‘2L8F_3_fmo_input.inp’ -> ‘/scratch/hazwong/825279/./2L8F_3_fmo_input.inp’
‘rungms’ -> ‘/scratch/hazwong/825279/./rungms’
‘gms-files.csh’ -> ‘/scratch/hazwong/825279/./gms-files.csh’
----- GAMESS execution script 'rungms' -----
This job is running on host gollum056.lsa.umich.edu
under operating system Linux at Sat Dec 7 12:26:40 EST 2019
Available scratch disk space (Kbyte units) at beginning of the job is
Filesystem     1K-blocks     Used Available Use% Mounted on
/dev/sda4      426933580 11081072 415852508   3% /scratch
GAMESS temporary binary files will be written to /scratch/hazwong/825279/2L8F_3/usrc
GAMESS supplementary output files will be written to /scratch/hazwong/825279/2L8F_3/src
Copying input file 2L8F_3_fmo_input.inp to your run's scratch directory...
cp 2L8F_3_fmo_input.inp /scratch/hazwong/825279/2L8F_3/usrc/2L8F_3_fmo_input.F05
unset echo
This is a GDDI run, keeping various output files on local disks
setenv OUTPUT /scratch/hazwong/825279/2L8F_3/usrc/2L8F_3_fmo_input.F06
setenv PUNCH /scratch/hazwong/825279/2L8F_3/usrc/2L8F_3_fmo_input.F07
unset echo
 
Assuming a single but multicore node.
 
/export/apps/CentOS7/gamess/src/build//ddikick.x /export/apps/CentOS7/gamess/src/build//gamess.R3.x 2L8F_3_fmo_input -ddi 1 16 gollum056.lsa.umich.edu:cpus=16 -scr /scratch/hazwong/825279/2L8F_3/usrc

 Distributed Data Interface kickoff program.
 Initiating 16 compute processes on 1 nodes to run the following command:
 /export/apps/CentOS7/gamess/src/build//gamess.R3.x 2L8F_3_fmo_input 

          ******************************************************
          *         GAMESS VERSION = 30 SEP 2018 (R3)         *
          *             FROM IOWA STATE UNIVERSITY             *
          * M.W.SCHMIDT, K.K.BALDRIDGE, J.A.BOATZ, S.T.ELBERT, *
          *   M.S.GORDON, J.H.JENSEN, S.KOSEKI, N.MATSUNAGA,   *
          *          K.A.NGUYEN, S.J.SU, T.L.WINDUS,           *
          *       TOGETHER WITH M.DUPUIS, J.A.MONTGOMERY       *
          *         J.COMPUT.CHEM.  14, 1347-1363(1993)        *
          **************** 64 BIT LINUX VERSION ****************

  SINCE 1993, STUDENTS AND POSTDOCS WORKING AT IOWA STATE UNIVERSITY
  AND ALSO IN THEIR VARIOUS JOBS AFTER LEAVING ISU HAVE MADE IMPORTANT
  CONTRIBUTIONS TO THE CODE:
     IVANA ADAMOVIC, CHRISTINE AIKENS, YURI ALEXEEV, POOJA ARORA,
     ANDREY ASADCHEV, ROB BELL, PRADIPTA BANDYOPADHYAY, JONATHAN BENTZ,
     BRETT BODE, KURT BRORSEN, CALEB CARLIN, GALINA CHABAN, WEI CHEN,
     CHEOL HO CHOI, PAUL DAY, ALBERT DEFUSCO, NUWAN DESILVA, TIM DUDLEY,
     DMITRI FEDOROV, ALEX FINDLATER, GRAHAM FLETCHER, MARK FREITAG,
     KURT GLAESEMANN, ANASTASIA GUNINA,
     DAN KEMP, GRANT MERRILL, NORIYUKI MINEZAWA, JONATHAN MULLIN,
     TAKESHI NAGATA, SEAN NEDD, HEATHER NETZLOFF, BOSILJKA NJEGIC, RYAN OLSON,
     MIKE PAK, BUU PHAM,
     SPENCER PRUITT, LUKE ROSKOP, JIM SHOEMAKER, LYUDMILA SLIPCHENKO,
     TONY SMITH, SAROM SOK LEANG, JIE SONG, TETSUYA TAKETSUGU, SIMON WEBB,
     PENG XU, SOOHAENG YOO, FEDERICO ZAHARIEV

  ADDITIONAL CODE HAS BEEN PROVIDED BY COLLABORATORS IN OTHER GROUPS:
     IOWA STATE UNIVERSITY:
          JOE IVANIC, AARON WEST, LAIMUTIS BYTAUTAS, KLAUS RUEDENBERG
     UNIVERSITY OF TOKYO: KIMIHIKO HIRAO, TAKAHITO NAKAJIMA,
          TAKAO TSUNEDA, MUNEAKI KAMIYA, SUSUMU YANAGISAWA,
          KIYOSHI YAGI, MAHITO CHIBA, SEIKEN TOKURA, NAOAKI KAWAKAMI
     UNIVERSITY OF AARHUS: FRANK JENSEN
     UNIVERSITY OF IOWA: VISVALDAS KAIRYS, HUI LI
     NATIONAL INST. OF STANDARDS AND TECHNOLOGY: WALT STEVENS, DAVID GARMER
     UNIVERSITY OF PISA: BENEDETTA MENNUCCI, JACOPO TOMASI
     UNIVERSITY OF MEMPHIS: HENRY KURTZ, PRAKASHAN KORAMBATH
     UNIVERSITY OF ALBERTA: TOBY ZENG, MARIUSZ KLOBUKOWSKI
     UNIVERSITY OF NEW ENGLAND: MARK SPACKMAN
     MIE UNIVERSITY: HIROAKI UMEDA
     NAT. INST. OF ADVANCED INDUSTRIAL SCIENCE AND TECHNOLOGY: KAZUO KITAURA
     MICHIGAN STATE UNIVERSITY:
          KAROL KOWALSKI, MARTA WLOCH, JEFFREY GOUR, JESSE LUTZ,
          WEI LI, JUN SHEN, J. EMILIANO DEUSTUA, PIOTR PIECUCH
     UNIVERSITY OF MINNESOTA:
          YINAN SHU
     UNIVERSITY OF SILESIA: MONIKA MUSIAL, STANISLAW KUCHARSKI
     FACULTES UNIVERSITAIRES NOTRE-DAME DE LA PAIX:
          OLIVIER QUINET, BENOIT CHAMPAGNE
     UNIVERSITY OF CALIFORNIA - SANTA BARBARA: BERNARD KIRTMAN
     INSTITUTE FOR MOLECULAR SCIENCE:
          KAZUYA ISHIMURA, MICHIO KATOUDA, AND SHIGERU NAGASE
     UNIVERSITY OF NOTRE DAME: ANNA POMOGAEVA, DAN CHIPMAN
     KYUSHU UNIVERSITY:
          HARUYUKI NAKANO,
          FENG LONG GU, JACEK KORCHOWIEC, MARCIN MAKOWSKI, AND YURIKO AOKI,
          HIROTOSHI MORI AND EISAKU MIYOSHI
     PENNSYLVANIA STATE UNIVERSITY:
          TZVETELIN IORDANOV, CHET SWALINA, JONATHAN SKONE,
          SHARON HAMMES-SCHIFFER
     WASEDA UNIVERSITY:
          MASATO KOBAYASHI, TOMOKO AKAMA, TSUGUKI TOUMA,
          TAKESHI YOSHIKAWA, YASUHIRO IKABATA, JUNJI SEINO,
          YUYA NAKAJIMA, HIROMI NAKAI
     NANJING UNIVERSITY: SHUHUA LI
     UNIVERSITY OF NEBRASKA:
          PEIFENG SU, DEJUN SI, NANDUN THELLAMUREGE, YALI WANG, HUI LI
     UNIVERSITY OF ZURICH: ROBERTO PEVERATI, KIM BALDRIDGE
     N. COPERNICUS UNIVERSITY AND JACKSON STATE UNIVERSITY:
          MARIA BARYSZ
     UNIVERSITY OF COPENHAGEN: Jimmy Kromann, CASPER STEINMANN
     TOKYO INSTITUTE OF TECHNOLOGY: HIROYA NAKATA
     NAGOYA UNIVERSITY: YOSHIO NISHIMOTO, STEPHAN IRLE
     MOSCOW STATE UNIVERSITY: VLADIMIR MIRONOV


 PARALLEL VERSION RUNNING ON       16 PROCESSORS IN        1 NODES.

 EXECUTION OF GAMESS BEGUN Sat Dec  7 12:26:42 2019

            ECHO OF THE FIRST FEW INPUT CARDS -
 INPUT CARD>!*** FMO 5.3 (Gamess) INPUT generated by Facio 22.1.1.32 ***                    
 INPUT CARD> $CONTRL RUNTYP=ENERGY NPRINT=-5 ISPHER=1 MAXIT=200 $END                        
 INPUT CARD> $SYSTEM MWORDS=63 MEMDDI=63 $END                                               
 INPUT CARD> $GDDI NGROUP=1 $END                                                            
 INPUT CARD> $SCF DIRSCF=.TRUE. NPUNCH=0 $END                                               
 INPUT CARD>!*** NumCPU : 2  MemPerNode : 512MB                                             
 INPUT CARD> $PCM SOLVNT=WATER IEF=-10 ICOMP=2 ICAV=1 IDISP=1 IFMO=-1 $END                  
 INPUT CARD> $PCMCAV RADII=SUAHF $END                                                       
 INPUT CARD> $TESCAV NTSALL=60 $END                                                         
 INPUT CARD> $FMOPRP                                                                        
 INPUT CARD>    NAODIR=200                                                                  
 INPUT CARD>    NGRFMO(1)=1, 1, 0, 0, 0,   0, 0, 0, 0, 0                                    
 INPUT CARD>    IPIEDA=1                                                                    
 INPUT CARD>    NPRINT=9                                                                    
 INPUT CARD> $END                                                                           
 INPUT CARD> $FMO                                                                           
 INPUT CARD>      SCFTYP(1)=RHF                                                             
 INPUT CARD>      MODGRD=10                                                                 
 INPUT CARD>      MODMUL=0                                                                  
 INPUT CARD>      MAXCAO=5                                                                  
 INPUT CARD>      MAXBND=18                                                                 
 INPUT CARD>      NLAYER=1                                                                  
 INPUT CARD>      MPLEVL(1)=2                                                               
 INPUT CARD>      NFRAG=16                                                                  
 INPUT CARD>      ICHARG(1)=-1, -1, -1, -1, -1, -1, -1, 0, -1, -1, -1, -1, -1, -1,          
 INPUT CARD>-1, 0                                                                           
 INPUT CARD>      FRGNAM(1)=F1, F2, F3, F4, F5, F6, F7, F8, F9, F10, F11, F12, F13,         
 INPUT CARD>F14, F15, F16                                                                   
 INPUT CARD>      indat(1)=0                                                                
 INPUT CARD>               1   -32   0                                                      
 INPUT CARD>               33   -66   0                                                     
 INPUT CARD>               67   -99   0                                                     
 INPUT CARD>               100   -132   0                                                   
 INPUT CARD>               133   -166   0                                                   
 INPUT CARD>               167   -197   0                                                   
 INPUT CARD>               198   -228   0                                                   
 INPUT CARD>               229   -258   0                                                   
 INPUT CARD>               259   -292   0                                                   
 INPUT CARD>               293   -326   0                                                   
 INPUT CARD>               327   -359   0                                                   
 INPUT CARD>               360   -393   0                                                   
 INPUT CARD>               394   -427   0                                                   
 INPUT CARD>               428   -460   0                                                   
 INPUT CARD>               461   -491   0                                                   
 INPUT CARD>               492   -521   0                                                   
 INPUT CARD> $END                                                                           
 INPUT CARD>                                                                                
 INPUT CARD> $FMOBND                                                                        
 INPUT CARD>   -33   32       6-31G*    MINI                                                
 INPUT CARD>   -67   66       6-31G*    MINI                                                


 -------------------------------------------------------------
 GROUP DDI, PROGRAMMED BY: RYAN M. OLSON AND DMITRI G. FEDOROV
        FEDOROV ET AL., J. COMPUT. CHEM., 25 (2004) 872.
 -------------------------------------------------------------

 -------------------------------------------------------
 GDDI: INITIALIZATION COMPLETED FOR GROUP     1 OF     1
 WITH    16 PROCESSES BALTYP=DLB   global rank=        0
 -------------------------------------------------------

   63000000 WORDS OF MEMORY AVAILABLE


     RUN TITLE
     ---------
  FMO calculation                                                                

 THE POINT GROUP OF THE MOLECULE IS C1      
 THE ORDER OF THE PRINCIPAL AXIS IS     0

 ATOM   ATOMIC CHARGE
 H.1-1       1.0
 O.1-1       8.0
 C.1-1       6.0
 N.1-1       7.0
 P.1-1      15.0

     ATOMIC BASIS SET LIBRARY
     ----------------
 THE CONTRACTED PRIMITIVE FUNCTIONS HAVE BEEN UNNORMALIZED
 THE CONTRACTED BASIS FUNCTIONS ARE NOW NORMALIZED TO UNITY

  SHELL TYPE  PRIMITIVE        EXPONENT          CONTRACTION COEFFICIENT(S)

 H.1-1     

      1   S       1            18.7311370    0.033494604338
      1   S       2             2.8253944    0.234726953484
      1   S       3             0.6401217    0.813757326146

      2   S       4             0.1612778    1.000000000000

 O.1-1     

      3   S       5          5484.6716600    0.001831074430
      3   S       6           825.2349460    0.013950172200
      3   S       7           188.0469580    0.068445078098
      3   S       8            52.9645000    0.232714335992
      3   S       9            16.8975704    0.470192897984
      3   S      10             5.7996353    0.358520852987

      4   L      11            15.5396162   -0.110777549525    0.070874268231
      4   L      12             3.5999336   -0.148026262701    0.339752839147
      4   L      13             1.0137618    1.130767015354    0.727158577316

      5   L      14             0.2700058    1.000000000000    1.000000000000

      6   D      15             0.8000000    1.000000000000

 C.1-1     

      7   S      16          3047.5248800    0.001834737132
      7   S      17           457.3695180    0.014037322813
      7   S      18           103.9486850    0.068842622264
      7   S      19            29.2101553    0.232184443216
      7   S      20             9.2866630    0.467941348435
      7   S      21             3.1639270    0.362311985337

      8   L      22             7.8682723   -0.119332419775    0.068999066591
      8   L      23             1.8812885   -0.160854151696    0.316423960957
      8   L      24             0.5442493    1.143456437840    0.744308290898

      9   L      25             0.1687145    1.000000000000    1.000000000000

     10   D      26             0.8000000    1.000000000000

 N.1-1     

     11   S      27          4173.5114600    0.001834772160
     11   S      28           627.4579110    0.013994627002
     11   S      29           142.9020930    0.068586551812
     11   S      30            40.2343293    0.232240873040
     11   S      31            12.8202129    0.469069948082
     11   S      32             4.3904370    0.360455199063

     12   L      33            11.6263619   -0.114961181702    0.067579743878
     12   L      34             2.7162798   -0.169117478561    0.323907295893
     12   L      35             0.7722184    1.145851947027    0.740895139755

     13   L      36             0.2120315    1.000000000000    1.000000000000

     14   D      37             0.8000000    1.000000000000

 P.1-1     

     15   S      38         19413.3000000    0.001851598923
     15   S      39          2909.4200000    0.014206191735
     15   S      40           661.3640000    0.069999459277
     15   S      41           185.7590000    0.240078860331
     15   S      42            59.1943000    0.484761717984
     15   S      43            20.0310000    0.335199804993

     16   L      44           339.4780000   -0.002782170105    0.004564616191
     16   L      45            81.0101000   -0.036049901354    0.033693571881
     16   L      46            25.8780000   -0.116631004382    0.139754883368
     16   L      47             9.4522100    0.096832803638    0.339361716786
     16   L      48             3.6656600    0.614418023082    0.450920623685
     16   L      49             1.4674600    0.403798015170    0.238585800889

     17   L      50             2.1562300   -0.252924113863   -0.017765312733
     17   L      51             0.7489970    0.032851844678    0.274058196433
     17   L      52             0.2831450    1.081254761783    0.785421562957

     18   L      53             0.0998317    1.000000000000    1.000000000000

     19   D      54             0.5500000    1.000000000000

 TOTAL NUMBER OF BASIS SET SHELLS             =   19
 NUMBER OF CARTESIAN GAUSSIAN BASIS FUNCTIONS =   66

     $CONTRL OPTIONS
     ---------------
 SCFTYP=RHF          RUNTYP=ENERGY       EXETYP=RUN     
 MPLEVL=       0     CITYP =NONE         CCTYP =NONE         VBTYP =NONE    
 DFTTYP=NONE         TDDFT =NONE    
 MULT  =       1     ICHARG=       0     NZVAR =       0     COORD =UNIQUE  
 PP    =NONE         RELWFN=NONE         LOCAL =NONE         NUMGRD=       F
 ISPHER=       1     NOSYM =       0     MAXIT =     200     UNITS =ANGS    
 PLTORB=       F     MOLPLT=       F     AIMPAC=       F     FRIEND=        
 NPRINT=      -5     IREST =       0     GEOM  =INPUT   
 NORMF =       0     NORMP =       0     ITOL  =      24     ICUT  =      12
 INTTYP=BEST         GRDTYP=BEST         QMTTOL= 1.0E-06

     $SYSTEM OPTIONS
     ---------------
  REPLICATED MEMORY=    63000000 WORDS (ON EVERY NODE).
 DISTRIBUTED MEMDDI=          63 MILLION WORDS IN AGGREGATE,
 MEMDDI DISTRIBUTED OVER  16 PROCESSORS IS     3937500 WORDS/PROCESSOR.
 TOTAL MEMORY REQUESTED ON EACH PROCESSOR=    66937500 WORDS.
 TIMLIM=      525600.00 MINUTES, OR     365.0 DAYS.
 PARALL= T  BALTYP=  DLB     KDIAG=    0  COREFL= F
 MXSEQ2=     300 MXSEQ3=     150  mem10=         0

 ** LOOKING UP INTERNALLY STORED DATA FOR SOLVENT=WATER    **
 OPTICAL AND PHYSICAL CONSTANTS:
 EPS= 78.390; EPSINF=  1.776; RSOLV=  1.385 A; VMOL=  18.070 ML/MOL;
 TCE= .25700E-03 1/K; STEN= 71.810 DYN/CM;  DSTEN=  0.6500; CMF=  1.2770


     -----------------------------------
     INPUT FOR PCM SOLVATION CALCULATION 
     -----------------------------------
     IEF   =     -10
     ICOMP =       2     IFIELD=       0     ICAV  =       1
     IDISP =       1     IREP  =       0     IDP   =       0

     SOLVNT=WATER        EPS   = 78.3900     EPSINF=  1.7760
     VMOL  = 18.0700     TCE   =  0.00025700 STEN  = 71.8100
     DSTEN =  0.6500     CMF   =  1.2770     RSOLV =  1.3850

     NESFP =       0
     OMEGA = 40.0000     RET   =100.0000     FRO   =  0.7000

     TABS  =298.0000     IPRINT=       0

     --------------------------------
     INPUT FOR ITERATIVE C-PCM METHOD 
     --------------------------------
     IPCMIT  =         1     MXDIIS  =        50
     MXITR1  =       200     MXITR2  =       200
     THRES   = 0.100E-09     IMUL    =         3
     RCUT(1) =   20.0000     RCUT(2) =   50.0000

     IDIRCT  =         1
     IMGABI  =         0     RABI    =    4.0000
     IMGASC  =         0     RASC    =   20.0000
     THRSLS  = 0.500E-03     DENSLS  =    0.0100
     IEFPOL  =         1     REFPOL  =    0.0000

     INPUT FOR ISOTROPIC DIELECTRICS
     -------------------------------
     EPS=    78.39

          ----------------
          PROPERTIES INPUT
          ----------------

     MOMENTS            FIELD           POTENTIAL          DENSITY
 IEMOM =       1   IEFLD =       0   IEPOT =       0   IEDEN =       0
 WHERE =COMASS     WHERE =NUCLEI     WHERE =NUCLEI     WHERE =NUCLEI  
 OUTPUT=BOTH       OUTPUT=BOTH       OUTPUT=NONE       OUTPUT=BOTH    
 IEMINT=       0   IEFINT=       0                     IEDINT=       0
                                                       MORB  =       0
          EXTRAPOLATION IN EFFECT
          SOSCF IN EFFECT
 ORBITAL PRINTING OPTION: NPREO=     1 32767     2     1

     -------------------------------
     INTEGRAL TRANSFORMATION OPTIONS
     -------------------------------
     NWORD  =            0
     CUTOFF = 1.0E-10     MPTRAN =       0
     DIRTRF =       T     AOINTS =DUP     

          ----------------------
          INTEGRAL INPUT OPTIONS
          ----------------------
 NOPK  =       1 NORDER=       0 SCHWRZ=       T

 ..... DONE SETTING UP THE RUN .....
 CPU     0: STEP CPU TIME=     0.04 TOTAL CPU TIME=          0.0 (      0.0 MIN)
 TOTAL WALL CLOCK TIME=          0.1 SECONDS, CPU UTILIZATION IS    57.14%
 CPU     0: STEP CPU TIME=     0.01 TOTAL CPU TIME=          0.0 (      0.0 MIN)
 TOTAL WALL CLOCK TIME=          0.1 SECONDS, CPU UTILIZATION IS    62.50%

                    ----------------------
                    AO INTEGRAL TECHNOLOGY
                    ----------------------
     S,P,L SHELL ROTATED AXIS INTEGRALS, REPROGRAMMED BY
        KAZUYA ISHIMURA (IMS) AND JOSE SIERRA (SYNSTAR).
     S,P,D,L SHELL ROTATED AXIS INTEGRALS PROGRAMMED BY
        KAZUYA ISHIMURA (INSTITUTE FOR MOLECULAR SCIENCE).
     S,P,D,F,G SHELL TO TOTAL QUARTET ANGULAR MOMENTUM SUM 5,
        ERIC PROGRAM BY GRAHAM FLETCHER (ELORET AND NASA ADVANCED
        SUPERCOMPUTING DIVISION, AMES RESEARCH CENTER).
     S,P,D,F,G,L SHELL GENERAL RYS QUADRATURE PROGRAMMED BY
        MICHEL DUPUIS (PACIFIC NORTHWEST NATIONAL LABORATORY).
 Setting modorb=1 flag...
 Setting modorb=1 flag...

          -----------------------
          MP2 CONTROL INFORMATION
          -----------------------
          NACORE =        8  NBCORE =        8
          LMOMP2 =        F  AOINTS = DUP     
          METHOD =        2  NWORD  =               0
          MP2PRP =        F  OSPT   = NONE    
          CUTOFF = 1.00E-12  CPHFBS = BASISAO 
          CODE   = IMS     

          NUMBER OF CORE -A-  ORBITALS =     8
          NUMBER OF CORE -B-  ORBITALS =     8
          NUMBER OF OCC. -A-  ORBITALS =    18
          NUMBER OF OCC. -B-  ORBITALS =    18
          NUMBER OF MOLECULAR ORBITALS =    66
          NUMBER OF   BASIS  FUNCTIONS =    66

 CPU     0: STEP CPU TIME=     0.03 TOTAL CPU TIME=          0.1 (      0.0 MIN)
 TOTAL WALL CLOCK TIME=          0.1 SECONDS, CPU UTILIZATION IS    72.73%
 CPU     0: STEP CPU TIME=     0.00 TOTAL CPU TIME=          0.1 (      0.0 MIN)
 TOTAL WALL CLOCK TIME=          0.1 SECONDS, CPU UTILIZATION IS    72.73%

     INPUT FOR CAVITY DEFINITION 
     ---------------------------
   ATOM               COORDINATES                RADIUS       EPS
      1      8.5390     -3.5230     -8.6750      0.0100     78.3900
      2      8.2890     -2.5850     -8.7770      1.5900     78.3900
      3      9.4820     -1.8680     -9.1270      1.7700     78.3900
      4      9.8770     -2.2680    -10.0840      0.0100     78.3900
      5     10.2640     -2.0330     -8.3480      0.0100     78.3900
      6      9.2560     -0.3590     -9.2940      1.7700     78.3900
      7     10.2130      0.1600     -9.5180      0.0100     78.3900
      8      8.3540     -0.1040    -10.4140      1.5900     78.3900
      9      7.4980      0.9830    -10.0910      1.7700     78.3900
     10      7.6380      1.7370    -10.9030      0.0100     78.3900
     11      6.0650      0.5610    -10.0180      1.6800     78.3900
     12      5.7200     -0.7680     -9.8760      1.7700     78.3900
     13      6.5510     -1.4710     -9.8310      0.0100     78.3900
     14      5.0870      1.5290    -10.1070      1.7700     78.3900
     15      5.3460      2.7220    -10.2240      1.5900     78.3900
     16      3.7990      1.0600    -10.0800      1.6800     78.3900
     17      3.0770      1.7690    -10.1290      0.0100     78.3900
     18      3.3840     -0.2510     -9.9830      1.7700     78.3900
     19      2.1850     -0.5250    -10.0250      1.5900     78.3900
     20      4.4510     -1.1970     -9.8610      1.7700     78.3900
     21      4.2110     -2.2540     -9.7770      0.0100     78.3900
     22      8.0010      1.5640     -8.7820      1.7700     78.3900
     23      7.1840      2.0090     -8.1830      0.0100     78.3900
     24      8.9910      2.5460     -9.0330      1.5900     78.3900
     25      9.2950      2.8520     -8.1710      0.0100     78.3900
     26      8.5910      0.3340     -8.1000      1.7700     78.3900
     27      7.7760     -0.3370     -7.7440      0.0100     78.3900
     28      9.5840      0.6060     -7.0850      1.5900     78.3900
     29      9.1490      0.7220     -5.5800      2.1000     78.3900
     30      8.3380     -0.4560     -5.2060      1.5900     78.3900
     31     10.3430      0.9930     -4.7490      1.5900     78.3900
     32      8.2390      2.0090     -5.5760      1.5900     78.3900
     33      8.8630      3.3170     -5.6990      1.7700     78.3900
     34      9.5100      3.3720     -6.6030      0.0100     78.3900
     35      9.5070      3.5280     -4.8110      0.0100     78.3900
     36      7.8260      4.4500     -5.7950      1.7700     78.3900
     37      8.3270      5.4310     -5.9390      0.0100     78.3900
     38      6.9570      4.2300     -6.9390      1.5900     78.3900
     39      5.6310      4.6140     -6.6050      1.7700     78.3900
     40      5.3190      5.3730     -7.3580      0.0100     78.3900
     41      4.7020      3.4790     -6.6690      1.6800     78.3900
     42      3.3380      3.5520     -6.7330      1.7700     78.3900
     43      0.4200      5.4140     -6.7690      1.6800     78.3900
     44      0.7490      6.3500     -6.6310      0.0100     78.3900
     45     -0.5690      5.2390     -6.7600      0.0100     78.3900
     46      2.6080      4.6820     -6.7330      1.6800     78.3900
     47      1.3040      4.4350     -6.8100      1.7700     78.3900
     48      0.7840      3.1770     -6.9250      1.6800     78.3900
     49     -0.2200      3.0820     -6.9540      0.0100     78.3900
     50      1.5110      1.9940     -6.9530      1.7700     78.3900
     51      0.9540      0.9000     -7.0760      1.5900     78.3900
     52      2.9020      2.2430     -6.8140      1.7700     78.3900
     53      3.9730      1.3620     -6.7610      1.6800     78.3900
     54      5.0190      2.1430     -6.6790      1.7700     78.3900
     55      6.0540      1.8040     -6.6070      0.0100     78.3900
     56      5.6680      5.2510     -5.2330      1.7700     78.3900
     57      4.7460      5.0510     -4.6500      0.0100     78.3900
     58      5.8720      6.6470     -5.3470      1.5900     78.3900
     59      6.0100      6.9850     -4.4490      0.0100     78.3900
     60      6.8700      4.5650     -4.5990      1.7700     78.3900
     61      6.6060      3.5260     -4.3020      0.0100     78.3900
     62      7.4990      5.3000     -3.5240      1.5900     78.3900
     63      6.8610      5.2330     -2.0830      2.1000     78.3900
     64      6.5910      3.8160     -1.7560      1.5900     78.3900
     65      7.7400      5.9760     -1.1470      1.5900     78.3900
     66      5.4910      6.0230     -2.1820      1.5900     78.3900
     67      4.4630      5.7630     -1.1800      1.7700     78.3900
     68      4.5260      6.5230     -0.3700      0.0100     78.3900
     69      4.5840      4.7660     -0.6880      0.0100     78.3900
     70      3.0390      5.7820     -1.7660      1.7700     78.3900
     71      2.7310      6.8080     -2.0570      0.0100     78.3900
     72      3.0010      4.9740     -2.9730      1.5900     78.3900
     73      1.8020      4.2440     -3.0370      1.7700     78.3900
     74      1.3320      4.5140     -4.0090      0.0100     78.3900
     75      2.0730      2.8110     -3.0270      1.6800     78.3900
     76      1.9260      0.6430     -3.3070      1.7700     78.3900
     77      3.1560      0.8750     -2.7110      1.6800     78.3900
     78      3.2060      2.1740     -2.5790      1.7700     78.3900
     79      4.0540      2.7350     -2.1770      0.0100     78.3900
     80      0.0300     -0.4200     -4.2000      1.6800     78.3900
     81     -0.5260      0.7860     -4.2960      1.7700     78.3900
     82     -1.5410      0.7930     -4.7090      0.0100     78.3900
     83      0.0070      1.9820     -3.9920      1.6800     78.3900
     84      1.2440      1.8300     -3.4950      1.7700     78.3900
     85      1.2800     -0.5340     -3.7190      1.7700     78.3900
     86      1.8400     -1.7490     -3.6630      1.6800     78.3900
     87      2.7080     -1.9190     -3.1940      0.0100     78.3900
     88      1.2740     -2.5470     -3.9050      0.0100     78.3900
     89      0.9190      4.6910     -1.8880      1.7700     78.3900
     90      0.2920      3.8750     -1.4700      0.0100     78.3900
     91      0.0930      5.7620     -2.3060      1.5900     78.3900
     92     -0.1190      5.7000     -3.2470      0.0100     78.3900
     93      1.9600      5.1510     -0.8690      1.7700     78.3900
     94      2.4570      4.2540     -0.4310      0.0100     78.3900
     95      1.4840      6.1070      0.1220      1.5900     78.3900
     96      1.2190      5.5880      1.5920      2.1000     78.3900
     97      1.3590      4.1150      1.6200      1.5900     78.3900
     98      2.0860      6.3410      2.5300      1.5900     78.3900
     99     -0.2850      5.9150      1.9260      1.5900     78.3900
    100     -0.8410      7.2480      1.8400      1.7700     78.3900
    101     -0.4080      7.8210      0.9880      0.0100     78.3900
    102     -0.6260      7.8140      2.7760      0.0100     78.3900
    103     -2.3680      7.2190      1.6390      1.7700     78.3900
    104     -2.7730      8.2480      1.5530      0.0100     78.3900
    105     -2.6760      6.5270      0.3980      1.5900     78.3900
    106     -3.8670      5.7750      0.5500      1.7700     78.3900
    107     -4.5690      6.1320     -0.2410      0.0100     78.3900
    108     -3.6190      4.3440      0.3640      1.6800     78.3900
    109     -3.8750      2.2040     -0.0570      1.7700     78.3900
    110     -2.5190      2.3970      0.1570      1.6800     78.3900
    111     -2.4170      3.6830      0.3960      1.7700     78.3900
    112     -1.4860      4.2190      0.6050      0.0100     78.3900
    113     -5.9730      1.2270     -0.5780      1.6800     78.3900
    114     -6.4970      2.4420     -0.3660      1.7700     78.3900
    115     -7.5830      2.5280     -0.4770      0.0100     78.3900
    116     -5.8800      3.5800     -0.0390      1.6800     78.3900
    117     -4.5600      3.3940      0.0780      1.7700     78.3900
    118     -4.6320      1.0740     -0.4330      1.7700     78.3900
    119     -4.1080     -0.1360     -0.6790      1.6800     78.3900
    120     -3.1660     -0.3920     -0.4250      0.0100     78.3900
    121     -4.5860     -0.7370     -1.3120      0.0100     78.3900
    122     -4.4380      6.0890      1.9120      1.7700     78.3900
    123     -4.9490      5.2190      2.3730      0.0100     78.3900
    124     -5.3430      7.1720      1.8160      1.5900     78.3900
    125     -5.5880      7.3880      2.7230      0.0100     78.3900
    126     -3.1900      6.4720      2.7000      1.7700     78.3900
    127     -2.5960      5.5640      2.9560      0.0100     78.3900
    128     -3.4520      7.3330      3.8340      1.5900     78.3900
    129     -3.5790      6.7020      5.2690      2.1000     78.3900
    130     -2.5640      5.6390      5.3940      1.5900     78.3900
    131     -3.5480      7.7870      6.2700      1.5900     78.3900
    132     -5.0000      6.0300      5.2940      1.5900     78.3900
    133     -6.2270      6.7830      5.2060      1.7700     78.3900
    134     -6.1960      7.5210      4.3710      0.0100     78.3900
    135     -6.3930      7.3490      6.1490      0.0100     78.3900
    136     -7.4230      5.8400      4.9820      1.7700     78.3900
    137     -8.3760      6.4080      4.9420      0.0100     78.3900
    138     -7.2640      5.1740      3.6960      1.5900     78.3900
    139     -7.7080      3.8260      3.7940      1.7700     78.3900
    140     -8.4670      3.6780      2.9920      0.0100     78.3900
    141     -6.6000      2.8840      3.5860      1.6800     78.3900
    142     -6.6900      1.6160      3.0740      1.7700     78.3900
    143     -8.5850     -0.9850      1.7940      1.6800     78.3900
    144     -9.5060     -0.5960      1.8090      0.0100     78.3900
    145     -8.4570     -1.8910      1.3890      0.0100     78.3900
    146     -7.8190      0.9970      2.6860      1.6800     78.3900
    147     -7.5910     -0.2370      2.2350      1.7700     78.3900
    148     -6.3430     -0.8030      2.1870      1.6800     78.3900
    149     -6.2620     -1.7360      1.8280      0.0100     78.3900
    150     -5.1570     -0.1620      2.5430      1.7700     78.3900
    151     -4.0650     -0.7180      2.4270      1.5900     78.3900
    152     -5.3950      1.1450      3.0370      1.7700     78.3900
    153     -4.5060      2.0920      3.5270      1.6800     78.3900
    154     -5.2680      3.1020      3.8500      1.7700     78.3900
    155     -4.9120      4.0410      4.2670      0.0100     78.3900
    156     -8.3610      3.6660      5.1470      1.7700     78.3900
    157     -8.2490      2.6400      5.5570      0.0100     78.3900
    158     -9.7350      4.0040      5.0540      1.5900     78.3900
    159    -10.0670      4.1250      5.9550      0.0100     78.3900
    160     -7.5890      4.6790      5.9790      1.7700     78.3900
    161     -6.5610      4.3030      6.1890      0.0100     78.3900
    162     -8.2920      5.1170      7.1630      1.5900     78.3900
    163     -7.8930      4.5020      8.5590      2.1000     78.3900
    164     -6.4230      4.5510      8.6850      1.5900     78.3900
    165     -8.6700      5.1930      9.6080      1.5900     78.3900
    166     -8.3440      2.9960      8.4800      1.5900     78.3900
    167     -9.7310      2.6120      8.3620      1.7700     78.3900
    168    -10.2200      3.1280      7.5070      0.0100     78.3900
    169    -10.2870      2.8950      9.2860      0.0100     78.3900
    170     -9.8830      1.0950      8.1560      1.7700     78.3900
    171    -10.9520      0.8020      8.1660      0.0100     78.3900
    172     -9.3630      0.7240      6.8470      1.5900     78.3900
    173     -8.6860     -0.5250      6.9520      1.7700     78.3900
    174     -9.1980     -1.1880      6.2170      0.0100     78.3900
    175     -7.2480     -0.4300      6.5950      1.6800     78.3900
    176     -6.5770      0.7450      6.8250      1.7700     78.3900
    177     -7.1690      1.5630      7.2260      0.0100     78.3900
    178     -5.2860      0.8800      6.5180      1.7700     78.3900
    179     -4.7500      1.8160      6.6570      0.0100     78.3900
    180     -6.5650     -1.5300      6.0790      1.7700     78.3900
    181     -7.1760     -2.5980      5.9290      1.5900     78.3900
    182     -5.2610     -1.4080      5.7430      1.6800     78.3900
    183     -4.6210     -0.2430      5.9550      1.7700     78.3900
    184     -3.3360     -0.1300      5.6550      1.6800     78.3900
    185     -2.8940     -0.8500      5.1120      0.0100     78.3900
    186     -2.8570      0.7450      5.7290      0.0100     78.3900
    187     -8.9260     -1.0750      8.3470      1.7700     78.3900
    188     -8.0670     -1.6680      8.7310      0.0100     78.3900
    189    -10.0990     -1.8700      8.3520      1.5900     78.3900
    190    -10.3230     -2.0540      9.2780      0.0100     78.3900
    191     -9.1150      0.2060      9.1500      1.7700     78.3900
    192     -8.1280      0.6940      9.3180      0.0100     78.3900
    193     -9.8810      0.0550     10.3680      1.5900     78.3900
    194     -9.1200     -0.2870     11.7050      2.1000     78.3900
    195     -7.9570      0.6180     11.8170      1.5900     78.3900
    196    -10.1050     -0.2470     12.8080      1.5900     78.3900
    197     -8.6270     -1.7740     11.5210      1.5900     78.3900
    198     -7.4530     -2.2030     12.2600      1.7700     78.3900
    199     -7.6740     -2.2650     13.3490      0.0100     78.3900
    200     -6.5980     -1.4930     12.1220      0.0100     78.3900
    201     -6.9890     -3.5880     11.7980      1.7700     78.3900
    202     -7.7760     -4.3510     12.0030      0.0100     78.3900
    203     -6.7530     -3.5760     10.3620      1.5900     78.3900
    204     -5.6050     -4.3550     10.0710      1.7700     78.3900
    205     -5.9300     -5.1030      9.3120      0.0100     78.3900
    206     -4.4890     -3.5380      9.5080      1.6800     78.3900
    207     -4.5040     -2.1660      9.6370      1.7700     78.3900
    208     -5.3520     -1.7360     10.1780      0.0100     78.3900
    209     -3.5330     -1.4060      9.1170      1.7700     78.3900
    210     -3.5360     -0.3210      9.1960      0.0100     78.3900
    211     -3.4320     -4.1550      8.8390      1.7700     78.3900
    212     -3.4180     -5.3910      8.7330      1.5900     78.3900
    213     -2.4350     -3.4010      8.3210      1.6800     78.3900
    214     -2.4720     -2.0620      8.4320      1.7700     78.3900
    215     -1.4870     -1.3420      7.9040      1.6800     78.3900
    216     -0.7580     -1.7970      7.3860      0.0100     78.3900
    217     -1.5040     -0.3420      7.9120      0.0100     78.3900
    218     -5.2230     -5.0810     11.3490      1.7700     78.3900
    219     -4.1400     -5.3000     11.4050      0.0100     78.3900
    220     -5.9550     -6.2880     11.4530      1.5900     78.3900
    221     -5.7430     -6.6690     12.3130      0.0100     78.3900
    222     -5.6640     -4.0750     12.4080      1.7700     78.3900
    223     -4.9740     -3.2000     12.4210      0.0100     78.3900
    224     -5.9010     -4.6250     13.7240      1.5900     78.3900
    225     -4.7420     -4.6140     14.7930      2.1000     78.3900
    226     -4.1010     -3.2820     14.8330      1.5900     78.3900
    227     -5.2800     -5.1220     16.0720      1.5900     78.3900
    228     -3.6970     -5.6450     14.2420      1.5900     78.3900
    229     -3.9950     -7.0590     14.2500      1.7700     78.3900
    230     -4.9290     -7.2800     13.6870      0.0100     78.3900
    231     -4.1340     -7.4190     15.2980      0.0100     78.3900
    232     -2.8600     -7.8710     13.6150      1.7700     78.3900
    233     -3.0980     -8.9540     13.6490      0.0100     78.3900
    234     -2.6960     -7.5140     12.2130      1.5900     78.3900
    235     -1.3100     -7.4870     11.8930      1.7700     78.3900
    236     -1.1900     -8.1780     11.0250      0.0100     78.3900
    237     -0.8400     -6.1280     11.4880      1.6800     78.3900
    238     -1.5600     -5.0090     11.8410      1.7700     78.3900
    239     -2.4580     -5.1870     12.4260      0.0100     78.3900
    240     -1.1860     -3.7810     11.4650      1.7700     78.3900
    241     -1.7630     -2.8930     11.7230      0.0100     78.3900
    242      0.3440     -5.9760     10.7700      1.7700     78.3900
    243      1.0150     -6.9800     10.4930      1.5900     78.3900
    244      0.7370     -4.7450     10.3720      1.6800     78.3900
    245      0.0070     -3.6630     10.6960      1.7700     78.3900
    246      0.4200     -2.4650     10.2860      1.6800     78.3900
    247      1.2740     -2.3860      9.7660      0.0100     78.3900
    248     -0.0710     -1.6250     10.5180      0.0100     78.3900
    249     -0.5540     -8.0590     13.0840      1.7700     78.3900
    250      0.4500     -7.5990     13.2020      0.0100     78.3900
    251     -0.4200     -9.4680     12.9540      1.5900     78.3900
    252     -1.3030     -9.8780     12.9540      0.0100     78.3900
    253     -1.4770     -7.6640     14.2340      1.7700     78.3900
    254     -1.3590     -6.5840     14.4710      0.0100     78.3900
    255     -1.3580     -8.4650     15.4210      1.5900     78.3900
    256     -0.4640     -8.3670     15.8030      0.0100     78.3900
    257      9.4190     -1.5000      3.8860      0.0100     78.3900
    258      8.9340     -2.2490      4.2750      1.5900     78.3900
    259      9.7980     -3.3920      4.1940      1.7700     78.3900
    260     10.7250     -3.1850      4.7750      0.0100     78.3900
    261     10.0860     -3.5630      3.1290      0.0100     78.3900
    262      9.1570     -4.6700      4.7480      1.7700     78.3900
    263      9.8430     -5.5360      4.6270      0.0100     78.3900
    264      8.8870     -4.5430      6.1800      1.5900     78.3900
    265      7.6440     -5.1760      6.4640      1.7700     78.3900
    266      7.8390     -5.9180      7.2740      0.0100     78.3900
    267      6.6300     -4.2120      6.9180      1.6800     78.3900
    268      5.4780     -4.5140      7.5910      1.7700     78.3900
    269      3.3980     -6.8420      9.0760      1.6800     78.3900
    270      3.8500     -7.7060      8.8660      0.0100     78.3900
    271      2.5250     -6.8600      9.5730      0.0100     78.3900
    272      5.0770     -5.7460      7.9490      1.6800     78.3900
    273      3.9370     -5.7250      8.6330      1.7700     78.3900
    274      3.2560     -4.5730      8.9250      1.6800     78.3900
    275      2.4080     -4.6470      9.4660      0.0100     78.3900
    276      3.6410     -3.2870      8.5630      1.7700     78.3900
    277      2.9650     -2.3020      8.8800      1.5900     78.3900
    278      4.8560     -3.3000      7.8250      1.7700     78.3900
    279      5.5960     -2.2510      7.2880      1.6800     78.3900
    280      6.6410     -2.8450      6.7530      1.7700     78.3900
    281      7.4590     -2.3440      6.2300      0.0100     78.3900
    282      7.2020     -5.9040      5.2120      1.7700     78.3900
    283      6.0980     -5.9430      5.1110      0.0100     78.3900
    284      7.7270     -7.2180      5.1940      1.5900     78.3900
    285      7.3930     -7.6210      4.3810      0.0100     78.3900
    286      7.8120     -5.0370      4.1150      1.7700     78.3900
    287      7.2380     -4.0850      4.0080      0.0100     78.3900
    288      8.0390     -5.7050      2.8490      1.5900     78.3900
    289      6.8730     -5.6930      1.7900      2.1000     78.3900
    290      6.3870     -4.3080      1.6220      1.5900     78.3900
    291      7.3530     -6.3800      0.5750      1.5900     78.3900
    292      5.7180     -6.5370      2.4330      1.5900     78.3900
    293      5.8440     -7.9780      2.5020      1.7700     78.3900
    294      6.7910     -8.2790      3.0110      0.0100     78.3900
    295      5.8530     -8.4260      1.4800      0.0100     78.3900
    296      4.6750     -8.5820      3.2890      1.7700     78.3900
    297      4.8190     -9.6740      3.4430      0.0100     78.3900
    298      4.6100     -7.9670      4.6070      1.5900     78.3900
    299      3.2530     -7.8410      4.9950      1.7700     78.3900
    300      3.1470     -8.3870      5.9610      0.0100     78.3900
    301      2.8590     -6.4440      5.1930      1.6800     78.3900
    302      1.7530     -6.0150      5.8780      1.7700     78.3900
    303     -1.1490     -6.6810      7.6580      1.6800     78.3900
    304     -1.1800     -7.6790      7.6660      0.0100     78.3900
    305     -1.9110     -6.1650      8.0600      0.0100     78.3900
    306      0.8350     -6.7990      6.4790      1.6800     78.3900
    307     -0.1310     -6.0870      7.0610      1.7700     78.3900
    308     -0.1400     -4.7200      7.0870      1.6800     78.3900
    309     -0.9140     -4.2600      7.5400      0.0100     78.3900
    310      0.8070     -3.8920      6.5070      1.7700     78.3900
    311      0.7160     -2.6670      6.5910      1.5900     78.3900
    312      1.8050     -4.6350      5.8260      1.7700     78.3900
    313      2.9000     -4.2040      5.0860      1.6800     78.3900
    314      3.4960     -5.3160      4.7260      1.7700     78.3900
    315      4.4000     -5.3830      4.1170      0.0100     78.3900
    316      2.4130     -8.5140      3.9400      1.7700     78.3900
    317      1.4330     -8.0180      3.7960      0.0100     78.3900
    318      2.2310     -9.8770      4.2820      1.5900     78.3900
    319      1.8470    -10.3090      3.5070      0.0100     78.3900
    320      3.2720     -8.3550      2.6980      1.7700     78.3900
    321      3.2430     -7.2990      2.3320      0.0100     78.3900
    322      2.9970     -9.3180      1.6630      1.5900     78.3900
    323      2.0110     -9.0100      0.4650      2.1000     78.3900
    324      2.4610     -7.7880     -0.2270      1.5900     78.3900
    325      1.9910    -10.2470     -0.3410      1.5900     78.3900
    326      0.5860     -8.7960      1.1180      1.5900     78.3900
    327     -0.1560     -9.8650      1.7440      1.7700     78.3900
    328      0.4830    -10.4560      2.4400      0.0100     78.3900
    329     -0.5440    -10.5690      0.9690      0.0100     78.3900
    330     -1.3610     -9.3310      2.5460      1.7700     78.3900
    331     -1.9150    -10.1630      3.0280      0.0100     78.3900
    332     -0.9100     -8.4440      3.6130      1.5900     78.3900
    333     -1.7870     -7.3350      3.7310      1.7700     78.3900
    334     -2.1190     -7.3040      4.7950      0.0100     78.3900
    335     -1.1120     -6.0730      3.4090      1.6800     78.3900
    336     -0.5370     -3.9520      3.3080      1.7700     78.3900
    337      0.4200     -4.6510      2.6010      1.6800     78.3900
    338      0.0230     -5.8950      2.6620      1.7700     78.3900
    339      0.5290     -6.7370      2.1930      0.0100     78.3900
    340     -1.7350     -2.2240      4.3780      1.6800     78.3900
    341     -2.5800     -3.1720      4.7890      1.7700     78.3900
    342     -3.4060     -2.8350      5.4170      0.0100     78.3900
    343     -2.5390     -4.4920      4.5860      1.6800     78.3900
    344     -1.4880     -4.8180      3.8190      1.7700     78.3900
    345     -0.6800     -2.5820      3.6020      1.7700     78.3900
    346      0.1820     -1.6460      3.1560      1.6800     78.3900
    347      1.0590     -1.8890      2.7400      0.0100     78.3900
    348      0.0330     -0.6920      3.4190      0.0100     78.3900
    349     -2.9680     -7.5990      2.8380      1.7700     78.3900
    350     -3.3920     -6.6690      2.4080      0.0100     78.3900
    351     -3.9610     -8.2890      3.5720      1.5900     78.3900
    352     -4.6060     -8.6410      2.9380      0.0100     78.3900
    353     -2.3590     -8.4800      1.7490      1.7700     78.3900
    354     -1.7510     -7.8640      1.0400      0.0100     78.3900
    355     -3.3240     -9.3330      1.0910      1.5900     78.3900
    356     -3.9040     -8.8890     -0.3040      2.1000     78.3900
    357     -2.8460     -9.0880     -1.3090      1.5900     78.3900
    358     -5.1800     -9.6030     -0.5250      1.5900     78.3900
    359     -4.1870     -7.3510     -0.1350      1.5900     78.3900
    360     -5.4050     -6.8600      0.4640      1.7700     78.3900
    361     -5.4750     -7.1780      1.5290      0.0100     78.3900
    362     -6.2990     -7.2510     -0.0780      0.0100     78.3900
    363     -5.4500     -5.3260      0.4230      1.7700     78.3900
    364     -6.3840     -4.9310      0.8870      0.0100     78.3900
    365     -4.3190     -4.7740      1.1640      1.5900     78.3900
    366     -3.8020     -3.6500      0.4680      1.7700     78.3900
    367     -3.7990     -2.8070      1.1950      0.0100     78.3900
    368     -2.4220     -3.8680      0.0020      1.6800     78.3900
    369     -1.4730     -2.8970     -0.2140      1.7700     78.3900
    370     -0.4360      0.4240     -0.1890      1.6800     78.3900
    371      0.4370      0.9000     -0.2160      0.0100     78.3900
    372     -1.2600      0.9540      0.0350      0.0100     78.3900
    373     -1.6350     -1.5630     -0.0480      1.6800     78.3900
    374     -0.5020     -0.8920     -0.2710      1.7700     78.3900
    375      0.6750     -1.4920     -0.6090      1.6800     78.3900
    376      1.4970     -0.9280     -0.7240      0.0100     78.3900
    377      0.8490     -2.8480     -0.8260      1.7700     78.3900
    378      1.9590     -3.2750     -1.1410      1.5900     78.3900
    379     -0.3380     -3.5820     -0.6030      1.7700     78.3900
    380     -0.5680     -4.9510     -0.6650      1.6800     78.3900
    381     -1.8220     -5.0730     -0.3080      1.7700     78.3900
    382     -2.3560     -6.0190     -0.2490      0.0100     78.3900
    383     -4.7600     -3.3440     -0.6670      1.7700     78.3900
    384     -4.2430     -2.9160     -1.5500      0.0100     78.3900
    385     -5.7750     -2.4500     -0.2220      1.5900     78.3900
    386     -5.3450     -1.6380      0.0860      0.0100     78.3900
    387     -5.3110     -4.7280     -0.9840      1.7700     78.3900
    388     -4.5360     -5.3220     -1.5230      0.0100     78.3900
    389     -6.5870     -4.7340     -1.6500      1.5900     78.3900
    390     -6.7330     -5.0880     -3.1740      2.1000     78.3900
    391     -6.5490     -6.5430     -3.3490      1.5900     78.3900
    392     -8.0110     -4.5270     -3.6620      1.5900     78.3900
    393     -5.5380     -4.3550     -3.8740      1.5900     78.3900
    394     -5.5770     -2.9270     -4.1030      1.7700     78.3900
    395     -5.8160     -2.3640     -3.1710      0.0100     78.3900
    396     -6.3720     -2.6930     -4.8390      0.0100     78.3900
    397     -4.2260     -2.4180     -4.6340      1.7700     78.3900
    398     -4.1710     -1.3150     -4.6680      0.0100     78.3900
    399     -3.1730     -2.8540     -3.7340      1.5900     78.3900
    400     -2.0160     -3.2000     -4.4700      1.7700     78.3900
    401     -1.2100     -2.5320     -4.1030      0.0100     78.3900
    402     -1.6070     -4.5870     -4.2340      1.6800     78.3900
    403     -0.3270     -5.0820     -4.2330      1.7700     78.3900
    404      3.0930     -4.6190     -4.5670      1.6800     78.3900
    405      3.9240     -5.1710     -4.4860      0.0100     78.3900
    406      3.1620     -3.6490     -4.7830      0.0100     78.3900
    407      0.7980     -4.3770     -4.4610      1.6800     78.3900
    408      1.8920     -5.1360     -4.3650      1.7700     78.3900
    409      1.8580     -6.4850     -4.1330      1.6800     78.3900
    410      2.7290     -6.9800     -4.0540      0.0100     78.3900
    411      0.7110     -7.2450     -3.9490      1.7700     78.3900
    412      0.7740     -8.4680     -3.7880      1.5900     78.3900
    413     -0.4600     -6.4410     -4.0040      1.7700     78.3900
    414     -1.7980     -6.7890     -3.8650      1.6800     78.3900
    415     -2.4380     -5.6520     -3.9920      1.7700     78.3900
    416     -3.5180     -5.5210     -3.9320      0.0100     78.3900
    417     -2.2920     -2.9320     -5.9360      1.7700     78.3900
    418     -1.8530     -3.7070     -6.6070      0.0100     78.3900
    419     -1.7840     -1.6740     -6.3040      1.5900     78.3900
    420     -2.1650     -1.4730     -7.1650      0.0100     78.3900
    421     -3.8200     -2.9490     -6.0190      1.7700     78.3900
    422     -4.1660     -4.0010     -6.1020      0.0100     78.3900
    423     -4.3310     -2.1200     -7.0840      1.5900     78.3900
    424     -5.7880     -2.1480     -7.6610      2.1000     78.3900
    425     -5.6890     -1.7100     -9.0690      1.5900     78.3900
    426     -6.4150     -3.4660     -7.4170      1.5900     78.3900
    427     -6.4960     -1.0240     -6.8030      1.5900     78.3900
    428     -7.9250     -1.0600     -6.5730      1.7700     78.3900
    429     -8.1930     -1.9150     -5.9090      0.0100     78.3900
    430     -8.4770     -1.1710     -7.5330      0.0100     78.3900
    431     -8.4240      0.2250     -5.8880      1.7700     78.3900
    432     -9.5180      0.1710     -5.6880      0.0100     78.3900
    433     -7.7710      0.3880     -4.5900      1.5900     78.3900
    434     -7.5080      1.7660     -4.3680      1.7700     78.3900
    435     -7.9860      2.0370     -3.3990      0.0100     78.3900
    436     -6.0770      2.0300     -4.2790      1.6800     78.3900
    437     -4.1380      2.9700     -3.8860      1.7700     78.3900
    438     -3.8640      1.7120     -4.4060      1.6800     78.3900
    439     -5.0470      1.1990     -4.6280      1.7700     78.3900
    440     -5.2490      0.2180     -5.0630      0.0100     78.3900
    441     -3.9140      5.1530     -2.9960      1.6800     78.3900
    442     -5.2440      5.2220     -3.0230      1.7700     78.3900
    443     -5.6670      6.1760     -2.6830      0.0100     78.3900
    444     -6.1270      4.2920     -3.4040      1.6800     78.3900
    445     -5.5000      3.1800     -3.8170      1.7700     78.3900
    446     -3.3150      4.0150     -3.4210      1.7700     78.3900
    447     -1.9860      3.9540     -3.3260      1.6800     78.3900
    448     -1.4560      3.1670     -3.6660      0.0100     78.3900
    449     -1.5340      4.6360     -2.7530      0.0100     78.3900
    450     -8.1500      2.5480     -5.4890      1.7700     78.3900
    451     -7.5660      3.4490     -5.7580      0.0100     78.3900
    452     -9.4600      2.9260     -5.1230      1.5900     78.3900
    453     -9.9050      3.2470     -5.9220      0.0100     78.3900
    454     -8.1450      1.5410     -6.6290      1.7700     78.3900
    455     -7.1190      1.4390     -7.0530      0.0100     78.3900
    456     -9.1570      1.7980     -7.6280      1.5900     78.3900
    457     -8.7760      2.1840     -9.1030      2.1000     78.3900
    458     -8.0390      1.0720     -9.7320      1.5900     78.3900
    459    -10.0060      2.6200     -9.7960      1.5900     78.3900
    460     -7.7980      3.4090     -8.9310      1.5900     78.3900
    461     -8.3070      4.7010     -8.5240      1.7700     78.3900
    462     -8.9930      4.6030     -7.6510      0.0100     78.3900
    463     -8.8730      5.1630     -9.3650      0.0100     78.3900
    464     -7.1790      5.6670     -8.1110      1.7700     78.3900
    465     -7.5960      6.6480     -7.7960      0.0100     78.3900
    466     -6.4590      5.1270     -6.9680      1.5900     78.3900
    467     -5.0710      5.3990     -7.1020      1.7700     78.3900
    468     -4.7810      5.9350     -6.1690      0.0100     78.3900
    469     -4.2390      4.1690     -7.2210      1.6800     78.3900
    470     -4.7990      2.9890     -7.6520      1.7700     78.3900
    471     -5.8720      3.0110     -7.8320      0.0100     78.3900
    472     -4.0660      1.8770     -7.7910      1.7700     78.3900
    473     -4.4980      0.9280     -8.1040      0.0100     78.3900
    474     -2.8690      4.2300     -6.9790      1.7700     78.3900
    475     -2.3610      5.3160     -6.6710      1.5900     78.3900
    476     -2.1140      3.1160     -7.0910      1.6800     78.3900
    477     -2.6740      1.9670     -7.5010      1.7700     78.3900
    478     -1.9050      0.9000     -7.6760      1.6800     78.3900
    479     -0.9650      0.8890     -7.3210      0.0100     78.3900
    480     -2.2970      0.0430     -7.9950      0.0100     78.3900
    481     -4.9070      6.3300     -8.2890      1.7700     78.3900
    482     -3.9420      6.1830     -8.8140      0.0100     78.3900
    483     -5.0130      7.6770     -7.8700      1.5900     78.3900
    484     -5.0060      8.2240     -8.6650      0.0100     78.3900
    485     -6.0880      5.9140     -9.1600      1.7700     78.3900
    486     -5.8800      4.9190     -9.6180      0.0100     78.3900
    487     -6.5340      6.9130    -10.1080      1.5900     78.3900
    488     -6.1590      6.7390    -11.6270      2.1000     78.3900
    489     -6.2660      5.3170    -12.0080      1.5900     78.3900
    490     -6.9210      7.7100    -12.4450      1.5900     78.3900
    491     -4.6430      7.1590    -11.6510      1.5900     78.3900
    492     -4.3070      8.5480    -11.4200      1.7700     78.3900
    493     -4.7300      8.9170    -10.4540      0.0100     78.3900
    494     -4.7260      9.1850    -12.2340      0.0100     78.3900
    495     -2.7870      8.7500    -11.4120      1.7700     78.3900
    496     -2.5270      9.8260    -11.3150      0.0100     78.3900
    497     -2.2030      8.0570    -10.2710      1.5900     78.3900
    498     -0.9560      7.4920    -10.6540      1.7700     78.3900
    499     -0.1890      7.8900     -9.9500      0.0100     78.3900
    500     -0.9890      6.0290    -10.5490      1.6800     78.3900
    501     -0.4290      3.9120    -10.3630      1.7700     78.3900
    502     -1.8160      3.9430    -10.3960      1.6800     78.3900
    503     -2.0970      5.2160    -10.5090      1.7700     78.3900
    504     -3.1040      5.6340    -10.5730      0.0100     78.3900
    505      1.8140      3.1660    -10.2380      1.6800     78.3900
    506      2.1680      4.4510    -10.3540      1.7700     78.3900
    507      3.2460      4.6390    -10.3560      0.0100     78.3900
    508      1.3920      5.5330    -10.4800      1.6800     78.3900
    509      0.0930      5.1910    -10.4610      1.7700     78.3900
    510      0.4950      2.8520    -10.2470      1.7700     78.3900
    511      0.1360      1.5620    -10.1280      1.6800     78.3900
    512     -0.8270      1.2930    -10.0820      0.0100     78.3900
    513      0.8310      0.8560     -9.9620      0.0100     78.3900
    514     -0.6390      7.9630    -12.0640      1.7700     78.3900
    515     -0.1080      7.1850    -12.6540      0.0100     78.3900
    516      0.1390      9.1510    -12.0210      1.5900     78.3900
    517      0.1970      9.5320    -12.9160      0.0100     78.3900
    518     -2.0380      8.1840    -12.6280      1.7700     78.3900
    519     -2.5020      7.2100    -12.8960      0.0100     78.3900
    520     -2.0970      9.0930    -13.7400      1.5900     78.3900
    521     -1.6510      8.6980    -14.5080      0.0100     78.3900

     ----------------------------
     INPUT FOR TESSERA DEFINITION
     ----------------------------
     NTSALL  =        60     MTHALL  =         4
     MTHAUT  =         0     AUTFRE  =    2.0000
     NTSFRZ  =        60     KEEPSM  =         0
     AREAKP  =   10.0000     BONDRY  =    1.0000
     AREATL  =    0.0100

     SPHERE     INITS       METHOD
          1        60       FIXPVA
          2        60       FIXPVA
          3        60       FIXPVA
          4        60       FIXPVA
          5        60       FIXPVA
          6        60       FIXPVA
          7        60       FIXPVA
          8        60       FIXPVA
          9        60       FIXPVA
         10        60       FIXPVA
         11        60       FIXPVA
         12        60       FIXPVA
         13        60       FIXPVA
         14        60       FIXPVA
         15        60       FIXPVA
         16        60       FIXPVA
         17        60       FIXPVA
         18        60       FIXPVA
         19        60       FIXPVA
         20        60       FIXPVA
         21        60       FIXPVA
         22        60       FIXPVA
         23        60       FIXPVA
         24        60       FIXPVA
         25        60       FIXPVA
         26        60       FIXPVA
         27        60       FIXPVA
         28        60       FIXPVA
         29        60       FIXPVA
         30        60       FIXPVA
         31        60       FIXPVA
         32        60       FIXPVA
         33        60       FIXPVA
         34        60       FIXPVA
         35        60       FIXPVA
         36        60       FIXPVA
         37        60       FIXPVA
         38        60       FIXPVA
         39        60       FIXPVA
         40        60       FIXPVA
         41        60       FIXPVA
         42        60       FIXPVA
         43        60       FIXPVA
         44        60       FIXPVA
         45        60       FIXPVA
         46        60       FIXPVA
         47        60       FIXPVA
         48        60       FIXPVA
         49        60       FIXPVA
         50        60       FIXPVA
         51        60       FIXPVA
         52        60       FIXPVA
         53        60       FIXPVA
         54        60       FIXPVA
         55        60       FIXPVA
         56        60       FIXPVA
         57        60       FIXPVA
         58        60       FIXPVA
         59        60       FIXPVA
         60        60       FIXPVA
         61        60       FIXPVA
         62        60       FIXPVA
         63        60       FIXPVA
         64        60       FIXPVA
         65        60       FIXPVA
         66        60       FIXPVA
         67        60       FIXPVA
         68        60       FIXPVA
         69        60       FIXPVA
         70        60       FIXPVA
         71        60       FIXPVA
         72        60       FIXPVA
         73        60       FIXPVA
         74        60       FIXPVA
         75        60       FIXPVA
         76        60       FIXPVA
         77        60       FIXPVA
         78        60       FIXPVA
         79        60       FIXPVA
         80        60       FIXPVA
         81        60       FIXPVA
         82        60       FIXPVA
         83        60       FIXPVA
         84        60       FIXPVA
         85        60       FIXPVA
         86        60       FIXPVA
         87        60       FIXPVA
         88        60       FIXPVA
         89        60       FIXPVA
         90        60       FIXPVA
         91        60       FIXPVA
         92        60       FIXPVA
         93        60       FIXPVA
         94        60       FIXPVA
         95        60       FIXPVA
         96        60       FIXPVA
         97        60       FIXPVA
         98        60       FIXPVA
         99        60       FIXPVA
        100        60       FIXPVA
        101        60       FIXPVA
        102        60       FIXPVA
        103        60       FIXPVA
        104        60       FIXPVA
        105        60       FIXPVA
        106        60       FIXPVA
        107        60       FIXPVA
        108        60       FIXPVA
        109        60       FIXPVA
        110        60       FIXPVA
        111        60       FIXPVA
        112        60       FIXPVA
        113        60       FIXPVA
        114        60       FIXPVA
        115        60       FIXPVA
        116        60       FIXPVA
        117        60       FIXPVA
        118        60       FIXPVA
        119        60       FIXPVA
        120        60       FIXPVA
        121        60       FIXPVA
        122        60       FIXPVA
        123        60       FIXPVA
        124        60       FIXPVA
        125        60       FIXPVA
        126        60       FIXPVA
        127        60       FIXPVA
        128        60       FIXPVA
        129        60       FIXPVA
        130        60       FIXPVA
        131        60       FIXPVA
        132        60       FIXPVA
        133        60       FIXPVA
        134        60       FIXPVA
        135        60       FIXPVA
        136        60       FIXPVA
        137        60       FIXPVA
        138        60       FIXPVA
        139        60       FIXPVA
        140        60       FIXPVA
        141        60       FIXPVA
        142        60       FIXPVA
        143        60       FIXPVA
        144        60       FIXPVA
        145        60       FIXPVA
        146        60       FIXPVA
        147        60       FIXPVA
        148        60       FIXPVA
        149        60       FIXPVA
        150        60       FIXPVA
        151        60       FIXPVA
        152        60       FIXPVA
        153        60       FIXPVA
        154        60       FIXPVA
        155        60       FIXPVA
        156        60       FIXPVA
        157        60       FIXPVA
        158        60       FIXPVA
        159        60       FIXPVA
        160        60       FIXPVA
        161        60       FIXPVA
        162        60       FIXPVA
        163        60       FIXPVA
        164        60       FIXPVA
        165        60       FIXPVA
        166        60       FIXPVA
        167        60       FIXPVA
        168        60       FIXPVA
        169        60       FIXPVA
        170        60       FIXPVA
        171        60       FIXPVA
        172        60       FIXPVA
        173        60       FIXPVA
        174        60       FIXPVA
        175        60       FIXPVA
        176        60       FIXPVA
        177        60       FIXPVA
        178        60       FIXPVA
        179        60       FIXPVA
        180        60       FIXPVA
        181        60       FIXPVA
        182        60       FIXPVA
        183        60       FIXPVA
        184        60       FIXPVA
        185        60       FIXPVA
        186        60       FIXPVA
        187        60       FIXPVA
        188        60       FIXPVA
        189        60       FIXPVA
        190        60       FIXPVA
        191        60       FIXPVA
        192        60       FIXPVA
        193        60       FIXPVA
        194        60       FIXPVA
        195        60       FIXPVA
        196        60       FIXPVA
        197        60       FIXPVA
        198        60       FIXPVA
        199        60       FIXPVA
        200        60       FIXPVA
        201        60       FIXPVA
        202        60       FIXPVA
        203        60       FIXPVA
        204        60       FIXPVA
        205        60       FIXPVA
        206        60       FIXPVA
        207        60       FIXPVA
        208        60       FIXPVA
        209        60       FIXPVA
        210        60       FIXPVA
        211        60       FIXPVA
        212        60       FIXPVA
        213        60       FIXPVA
        214        60       FIXPVA
        215        60       FIXPVA
        216        60       FIXPVA
        217        60       FIXPVA
        218        60       FIXPVA
        219        60       FIXPVA
        220        60       FIXPVA
        221        60       FIXPVA
        222        60       FIXPVA
        223        60       FIXPVA
        224        60       FIXPVA
        225        60       FIXPVA
        226        60       FIXPVA
        227        60       FIXPVA
        228        60       FIXPVA
        229        60       FIXPVA
        230        60       FIXPVA
        231        60       FIXPVA
        232        60       FIXPVA
        233        60       FIXPVA
        234        60       FIXPVA
        235        60       FIXPVA
        236        60       FIXPVA
        237        60       FIXPVA
        238        60       FIXPVA
        239        60       FIXPVA
        240        60       FIXPVA
        241        60       FIXPVA
        242        60       FIXPVA
        243        60       FIXPVA
        244        60       FIXPVA
        245        60       FIXPVA
        246        60       FIXPVA
        247        60       FIXPVA
        248        60       FIXPVA
        249        60       FIXPVA
        250        60       FIXPVA
        251        60       FIXPVA
        252        60       FIXPVA
        253        60       FIXPVA
        254        60       FIXPVA
        255        60       FIXPVA
        256        60       FIXPVA
        257        60       FIXPVA
        258        60       FIXPVA
        259        60       FIXPVA
        260        60       FIXPVA
        261        60       FIXPVA
        262        60       FIXPVA
        263        60       FIXPVA
        264        60       FIXPVA
        265        60       FIXPVA
        266        60       FIXPVA
        267        60       FIXPVA
        268        60       FIXPVA
        269        60       FIXPVA
        270        60       FIXPVA
        271        60       FIXPVA
        272        60       FIXPVA
        273        60       FIXPVA
        274        60       FIXPVA
        275        60       FIXPVA
        276        60       FIXPVA
        277        60       FIXPVA
        278        60       FIXPVA
        279        60       FIXPVA
        280        60       FIXPVA
        281        60       FIXPVA
        282        60       FIXPVA
        283        60       FIXPVA
        284        60       FIXPVA
        285        60       FIXPVA
        286        60       FIXPVA
        287        60       FIXPVA
        288        60       FIXPVA
        289        60       FIXPVA
        290        60       FIXPVA
        291        60       FIXPVA
        292        60       FIXPVA
        293        60       FIXPVA
        294        60       FIXPVA
        295        60       FIXPVA
        296        60       FIXPVA
        297        60       FIXPVA
        298        60       FIXPVA
        299        60       FIXPVA
        300        60       FIXPVA
        301        60       FIXPVA
        302        60       FIXPVA
        303        60       FIXPVA
        304        60       FIXPVA
        305        60       FIXPVA
        306        60       FIXPVA
        307        60       FIXPVA
        308        60       FIXPVA
        309        60       FIXPVA
        310        60       FIXPVA
        311        60       FIXPVA
        312        60       FIXPVA
        313        60       FIXPVA
        314        60       FIXPVA
        315        60       FIXPVA
        316        60       FIXPVA
        317        60       FIXPVA
        318        60       FIXPVA
        319        60       FIXPVA
        320        60       FIXPVA
        321        60       FIXPVA
        322        60       FIXPVA
        323        60       FIXPVA
        324        60       FIXPVA
        325        60       FIXPVA
        326        60       FIXPVA
        327        60       FIXPVA
        328        60       FIXPVA
        329        60       FIXPVA
        330        60       FIXPVA
        331        60       FIXPVA
        332        60       FIXPVA
        333        60       FIXPVA
        334        60       FIXPVA
        335        60       FIXPVA
        336        60       FIXPVA
        337        60       FIXPVA
        338        60       FIXPVA
        339        60       FIXPVA
        340        60       FIXPVA
        341        60       FIXPVA
        342        60       FIXPVA
        343        60       FIXPVA
        344        60       FIXPVA
        345        60       FIXPVA
        346        60       FIXPVA
        347        60       FIXPVA
        348        60       FIXPVA
        349        60       FIXPVA
        350        60       FIXPVA
        351        60       FIXPVA
        352        60       FIXPVA
        353        60       FIXPVA
        354        60       FIXPVA
        355        60       FIXPVA
        356        60       FIXPVA
        357        60       FIXPVA
        358        60       FIXPVA
        359        60       FIXPVA
        360        60       FIXPVA
        361        60       FIXPVA
        362        60       FIXPVA
        363        60       FIXPVA
        364        60       FIXPVA
        365        60       FIXPVA
        366        60       FIXPVA
        367        60       FIXPVA
        368        60       FIXPVA
        369        60       FIXPVA
        370        60       FIXPVA
        371        60       FIXPVA
        372        60       FIXPVA
        373        60       FIXPVA
        374        60       FIXPVA
        375        60       FIXPVA
        376        60       FIXPVA
        377        60       FIXPVA
        378        60       FIXPVA
        379        60       FIXPVA
        380        60       FIXPVA
        381        60       FIXPVA
        382        60       FIXPVA
        383        60       FIXPVA
        384        60       FIXPVA
        385        60       FIXPVA
        386        60       FIXPVA
        387        60       FIXPVA
        388        60       FIXPVA
        389        60       FIXPVA
        390        60       FIXPVA
        391        60       FIXPVA
        392        60       FIXPVA
        393        60       FIXPVA
        394        60       FIXPVA
        395        60       FIXPVA
        396        60       FIXPVA
        397        60       FIXPVA
        398        60       FIXPVA
        399        60       FIXPVA
        400        60       FIXPVA
        401        60       FIXPVA
        402        60       FIXPVA
        403        60       FIXPVA
        404        60       FIXPVA
        405        60       FIXPVA
        406        60       FIXPVA
        407        60       FIXPVA
        408        60       FIXPVA
        409        60       FIXPVA
        410        60       FIXPVA
        411        60       FIXPVA
        412        60       FIXPVA
        413        60       FIXPVA
        414        60       FIXPVA
        415        60       FIXPVA
        416        60       FIXPVA
        417        60       FIXPVA
        418        60       FIXPVA
        419        60       FIXPVA
        420        60       FIXPVA
        421        60       FIXPVA
        422        60       FIXPVA
        423        60       FIXPVA
        424        60       FIXPVA
        425        60       FIXPVA
        426        60       FIXPVA
        427        60       FIXPVA
        428        60       FIXPVA
        429        60       FIXPVA
        430        60       FIXPVA
        431        60       FIXPVA
        432        60       FIXPVA
        433        60       FIXPVA
        434        60       FIXPVA
        435        60       FIXPVA
        436        60       FIXPVA
        437        60       FIXPVA
        438        60       FIXPVA
        439        60       FIXPVA
        440        60       FIXPVA
        441        60       FIXPVA
        442        60       FIXPVA
        443        60       FIXPVA
        444        60       FIXPVA
        445        60       FIXPVA
        446        60       FIXPVA
        447        60       FIXPVA
        448        60       FIXPVA
        449        60       FIXPVA
        450        60       FIXPVA
        451        60       FIXPVA
        452        60       FIXPVA
        453        60       FIXPVA
        454        60       FIXPVA
        455        60       FIXPVA
        456        60       FIXPVA
        457        60       FIXPVA
        458        60       FIXPVA
        459        60       FIXPVA
        460        60       FIXPVA
        461        60       FIXPVA
        462        60       FIXPVA
        463        60       FIXPVA
        464        60       FIXPVA
        465        60       FIXPVA
        466        60       FIXPVA
        467        60       FIXPVA
        468        60       FIXPVA
        469        60       FIXPVA
        470        60       FIXPVA
        471        60       FIXPVA
        472        60       FIXPVA
        473        60       FIXPVA
        474        60       FIXPVA
        475        60       FIXPVA
        476        60       FIXPVA
        477        60       FIXPVA
        478        60       FIXPVA
        479        60       FIXPVA
        480        60       FIXPVA
        481        60       FIXPVA
        482        60       FIXPVA
        483        60       FIXPVA
        484        60       FIXPVA
        485        60       FIXPVA
        486        60       FIXPVA
        487        60       FIXPVA
        488        60       FIXPVA
        489        60       FIXPVA
        490        60       FIXPVA
        491        60       FIXPVA
        492        60       FIXPVA
        493        60       FIXPVA
        494        60       FIXPVA
        495        60       FIXPVA
        496        60       FIXPVA
        497        60       FIXPVA
        498        60       FIXPVA
        499        60       FIXPVA
        500        60       FIXPVA
        501        60       FIXPVA
        502        60       FIXPVA
        503        60       FIXPVA
        504        60       FIXPVA
        505        60       FIXPVA
        506        60       FIXPVA
        507        60       FIXPVA
        508        60       FIXPVA
        509        60       FIXPVA
        510        60       FIXPVA
        511        60       FIXPVA
        512        60       FIXPVA
        513        60       FIXPVA
        514        60       FIXPVA
        515        60       FIXPVA
        516        60       FIXPVA
        517        60       FIXPVA
        518        60       FIXPVA
        519        60       FIXPVA
        520        60       FIXPVA
        521        60       FIXPVA

     ------------------------------
      FIXPVA TESSELLATION FOR PCM
         PEIFENG SU AND HUI LI
     UNIVERSITY OF NEBRASKA-LINCOLN
     ------------------------------


 PCM DIMENSIONS: MXSP=   521, MXTS=     20840, MEMORY=        214134

     INPUT FOR CAVITY DEFINITION 
     ---------------------------
   ATOM               COORDINATES                RADIUS       EPS
      1      8.5390     -3.5230     -8.6750      0.0100     78.3900
      2      8.2890     -2.5850     -8.7770      1.5900     78.3900
      3      9.4820     -1.8680     -9.1270      1.7700     78.3900
      4      9.8770     -2.2680    -10.0840      0.0100     78.3900
      5     10.2640     -2.0330     -8.3480      0.0100     78.3900
      6      9.2560     -0.3590     -9.2940      1.7700     78.3900
      7     10.2130      0.1600     -9.5180      0.0100     78.3900
      8      8.3540     -0.1040    -10.4140      1.5900     78.3900
      9      7.4980      0.9830    -10.0910      1.7700     78.3900
     10      7.6380      1.7370    -10.9030      0.0100     78.3900
     11      6.0650      0.5610    -10.0180      1.6800     78.3900
     12      5.7200     -0.7680     -9.8760      1.7700     78.3900
     13      6.5510     -1.4710     -9.8310      0.0100     78.3900
     14      5.0870      1.5290    -10.1070      1.7700     78.3900
     15      5.3460      2.7220    -10.2240      1.5900     78.3900
     16      3.7990      1.0600    -10.0800      1.6800     78.3900
     17      3.0770      1.7690    -10.1290      0.0100     78.3900
     18      3.3840     -0.2510     -9.9830      1.7700     78.3900
     19      2.1850     -0.5250    -10.0250      1.5900     78.3900
     20      4.4510     -1.1970     -9.8610      1.7700     78.3900
     21      4.2110     -2.2540     -9.7770      0.0100     78.3900
     22      8.0010      1.5640     -8.7820      1.7700     78.3900
     23      7.1840      2.0090     -8.1830      0.0100     78.3900
     24      8.9910      2.5460     -9.0330      1.5900     78.3900
     25      9.2950      2.8520     -8.1710      0.0100     78.3900
     26      8.5910      0.3340     -8.1000      1.7700     78.3900
     27      7.7760     -0.3370     -7.7440      0.0100     78.3900
     28      9.5840      0.6060     -7.0850      1.5900     78.3900
     29      9.1490      0.7220     -5.5800      2.1000     78.3900
     30      8.3380     -0.4560     -5.2060      1.5900     78.3900
     31     10.3430      0.9930     -4.7490      1.5900     78.3900
     32      8.2390      2.0090     -5.5760      1.5900     78.3900
     33      8.8630      3.3170     -5.6990      1.7700     78.3900
     34      9.5100      3.3720     -6.6030      0.0100     78.3900
     35      9.5070      3.5280     -4.8110      0.0100     78.3900
     36      7.8260      4.4500     -5.7950      1.7700     78.3900
     37      8.3270      5.4310     -5.9390      0.0100     78.3900
     38      6.9570      4.2300     -6.9390      1.5900     78.3900
     39      5.6310      4.6140     -6.6050      1.7700     78.3900
     40      5.3190      5.3730     -7.3580      0.0100     78.3900
     41      4.7020      3.4790     -6.6690      1.6800     78.3900
     42      3.3380      3.5520     -6.7330      1.7700     78.3900
     43      0.4200      5.4140     -6.7690      1.6800     78.3900
     44      0.7490      6.3500     -6.6310      0.0100     78.3900
     45     -0.5690      5.2390     -6.7600      0.0100     78.3900
     46      2.6080      4.6820     -6.7330      1.6800     78.3900
     47      1.3040      4.4350     -6.8100      1.7700     78.3900
     48      0.7840      3.1770     -6.9250      1.6800     78.3900
     49     -0.2200      3.0820     -6.9540      0.0100     78.3900
     50      1.5110      1.9940     -6.9530      1.7700     78.3900
     51      0.9540      0.9000     -7.0760      1.5900     78.3900
     52      2.9020      2.2430     -6.8140      1.7700     78.3900
     53      3.9730      1.3620     -6.7610      1.6800     78.3900
     54      5.0190      2.1430     -6.6790      1.7700     78.3900
     55      6.0540      1.8040     -6.6070      0.0100     78.3900
     56      5.6680      5.2510     -5.2330      1.7700     78.3900
     57      4.7460      5.0510     -4.6500      0.0100     78.3900
     58      5.8720      6.6470     -5.3470      1.5900     78.3900
     59      6.0100      6.9850     -4.4490      0.0100     78.3900
     60      6.8700      4.5650     -4.5990      1.7700     78.3900
     61      6.6060      3.5260     -4.3020      0.0100     78.3900
     62      7.4990      5.3000     -3.5240      1.5900     78.3900
     63      6.8610      5.2330     -2.0830      2.1000     78.3900
     64      6.5910      3.8160     -1.7560      1.5900     78.3900
     65      7.7400      5.9760     -1.1470      1.5900     78.3900
     66      5.4910      6.0230     -2.1820      1.5900     78.3900
     67      4.4630      5.7630     -1.1800      1.7700     78.3900
     68      4.5260      6.5230     -0.3700      0.0100     78.3900
[...]
   470   15   6.0   1.40    2.5   -0.002090    0.180887    0.157902
   471   15   1.0   0.00    0.0    0.000000    0.301833    0.332502
   472   15   6.0   3.09    5.5    0.017429   -0.400481   -0.423510
   473   15   1.0   0.00    0.0    0.000000    0.286809    0.291251
   474   15   6.0   0.00    0.0    0.000000    1.061412    1.100515
   475   15   8.0   5.51   12.0    0.102532   -0.785554   -0.768728
   476   15   7.0   0.00    0.0    0.000000   -0.869447   -0.868691
   477   15   6.0   0.00    0.0   -0.000001    0.773556    0.783384
   478   15   7.0   5.21   10.2   -0.054409   -0.937749   -1.016158
   479   15   1.0   0.00    0.0    0.000000    0.469329    0.509156
   480   15   1.0   0.00    0.0    0.000000    0.399613    0.421827
   481   15   6.0   0.01    0.0    0.001406    0.146255    0.116694
   482   15   1.0   0.00    0.0    0.000000    0.192240    0.221271
   483   15   8.0  16.77   36.7    0.085866   -0.823882   -0.839837
   484   15   1.0   0.00    0.0    0.000000    0.493847    0.514994
   485   15   6.0   1.78    3.1   -0.020157    0.134760    0.103851
   486   15   1.0   0.00    0.0    0.000000    0.248845    0.250655
   487   15   8.0   3.83    8.4    0.051105   -0.796688   -0.803005
   488   15  15.0   9.29   11.6    0.115398    1.605778    1.660791
   489   15   8.0  15.22   33.3    0.331822   -0.892339   -0.890811
   490   15   8.0  17.53   38.3    0.355793   -0.896726   -0.890160
   491   15   8.0   2.29    5.0    0.036623   -0.969808   -0.784584
   492   16   6.0  12.41   21.9   -0.083208    0.191489   -0.026331
   493   16   1.0   0.00    0.0    0.000000    0.178898    0.181786
   494   16   1.0   0.00    0.0    0.000000    0.236876    0.222160
   495   16   6.0   5.67   10.0   -0.042495    0.093051    0.152256
   496   16   1.0   0.00    0.0    0.000000    0.245959    0.219845
   497   16   8.0   4.65   10.2    0.052273   -0.725009   -0.732982
   498   16   6.0   5.86   10.3   -0.055110    0.417040    0.416665
   499   16   1.0   0.00    0.0    0.000000    0.252645    0.250573
   500   16   7.0   0.00    0.0    0.000002   -0.796644   -0.805008
   501   16   6.0   1.03    1.8    0.005152    0.061990    0.053973
   502   16   7.0   6.88   13.5    0.090793   -0.606187   -0.615416
   503   16   6.0   3.24    5.7    0.005203    0.300675    0.292646
   504   16   1.0   0.00    0.0    0.000000    0.271306    0.289447
   505   16   7.0   1.64    3.2    0.018240   -0.793587   -0.780829
   506   16   6.0  10.96   19.3   -0.018095    0.291818    0.291407
   507   16   1.0   0.00    0.0    0.000000    0.251632    0.248192
   508   16   7.0   8.56   16.8    0.121223   -0.671676   -0.673244
   509   16   6.0   1.03    1.8    0.001911    0.693468    0.698989
   510   16   6.0   2.06    3.6    0.004088    0.711673    0.719137
   511   16   7.0  11.94   23.4   -0.027056   -0.965585   -1.024970
   512   16   1.0   0.00    0.0    0.000000    0.440127    0.437238
   513   16   1.0   0.00    0.0    0.000000    0.451663    0.493224
   514   16   6.0   7.52   13.3   -0.055379    0.116814    0.117521
   515   16   1.0   0.00    0.0    0.000000    0.226484    0.225292
   516   16   8.0  22.32   48.8    0.028827   -0.843235   -0.844530
   517   16   1.0   0.00    0.0    0.000000    0.506535    0.507068
   518   16   6.0   5.77   10.2   -0.057995    0.162611    0.146044
   519   16   1.0   0.00    0.0    0.000000    0.224008    0.225444
   520   16   8.0  22.84   49.9   -0.000418   -0.849691   -0.852615
   521   16   1.0   0.00    0.0    0.000000    0.507989    0.507670

 Done with FMO properties.
 CPU     0: STEP CPU TIME=     0.00 TOTAL CPU TIME=      36580.1 (    609.7 MIN)
 TOTAL WALL CLOCK TIME=      91843.9 SECONDS, CPU UTILIZATION IS    39.83%
 CPU     0: STEP CPU TIME=     0.01 TOTAL CPU TIME=      36580.2 (    609.7 MIN)
 TOTAL WALL CLOCK TIME=      91844.0 SECONDS, CPU UTILIZATION IS    39.83%

 Total timing statistics in pairs (CPU,wall) for each rank, sec

    Rank   total     SCF    corr     DFT    CPHF     EFP    solv     ESP    geom
 -------------------------------------------------------------------------------
       1   36580.2   9115.5  13996.8      0.0    0.0   0.0  342.2 12355.4    0.0
       1   91844.1  19630.4  44440.6      0.0    0.0   0.0  916.9 24799.1    0.0
       2   36291.5   9028.5  13813.4      0.0    0.0   0.0  345.4 12345.7    0.0
       2   91844.1  19604.5  44449.0      0.0    0.0   0.0  917.3 24798.1    0.0
       3   36326.6   9059.2  13873.3      0.0    0.0   0.0  345.8 12311.3    0.0
       3   91844.1  19604.2  44447.9      0.0    0.0   0.0  917.1 24798.4    0.0
       4   36296.8   9018.1  13859.6      0.0    0.0   0.0  345.4 12333.9    0.0
       4   91844.1  19605.5  44447.9      0.0    0.0   0.0  915.5 24798.1    0.0
       5   36345.2   9059.9  13898.5      0.0    0.0   0.0  344.2 12286.3    0.0
       5   91844.1  19605.1  44447.9      0.0    0.0   0.0  916.5 24798.5    0.0
       6   36226.2   9016.5  13950.9      0.0    0.0   0.0  344.7 12179.8    0.0
       6   91844.1  19605.9  44447.8      0.0    0.0   0.0  915.3 24798.3    0.0
       7   36132.0   9050.1  13834.7      0.0    0.0   0.0  344.7 12156.7    0.0
       7   91844.1  19605.6  44447.8      0.0    0.0   0.0  915.5 24798.4    0.0
       8   36436.4   9050.1  14061.8      0.0    0.0   0.0  344.2 12244.1    0.0
       8   91844.1  19606.3  44447.9      0.0    0.0   0.0  914.2 24798.3    0.0
       9   35914.6   9048.8  13666.5      0.0    0.0   0.0  338.0 12129.6    0.0
       9   91844.1  19608.2  44449.4      0.0    0.0   0.0  913.9 24797.9    0.0
      10   35950.8   9001.2  13687.0      0.0    0.0   0.0  342.0 12192.4    0.0
      10   91844.1  19607.3  44448.0      0.0    0.0   0.0  914.7 24797.7    0.0
      11   36078.9   9043.9  13837.8      0.0    0.0   0.0  340.3 12116.2    0.0
      11   91844.1  19607.6  44447.9      0.0    0.0   0.0  914.2 24797.7    0.0
      12   35845.0   9013.2  13623.4      0.0    0.0   0.0  340.0 12143.5    0.0
      12   91844.1  19608.3  44447.8      0.0    0.0   0.0  913.0 24797.5    0.0
      13   35951.1   9033.9  13768.9      0.0    0.0   0.0  336.9 12079.3    0.0
      13   91844.1  19609.1  44447.9      0.0    0.0   0.0  913.3 24797.6    0.0
      14   36188.9   9009.3  13951.4      0.0    0.0   0.0  339.9 12156.6    0.0
      14   91844.1  19608.8  44449.4      0.0    0.0   0.0  913.0 24797.6    0.0
      15   36059.2   9072.5  13752.4      0.0    0.0   0.0  341.0 12152.8    0.0
      15   91844.2  19609.6  44447.7      0.0    0.0   0.0  912.6 24797.3    0.0
      16   36259.6   9034.4  13988.2      0.0    0.0   0.0  340.5 12164.8    0.0
      16   91844.1  19609.8  44447.7      0.0    0.0   0.0  911.3 24797.3    0.0
averaged   36180.2   9040.9  13847.8      0.0    0.0   0.0  342.2 12209.3    0.0
averaged   91844.1  19608.5  44447.7      0.0    0.0   0.0  914.6 24798.0    0.0

  FMO  timing statistics in pairs (CPU,wall) for each rank, sec

    Rank  FMOini FMOscf1  FMOdm1 FMOsyn1 FMOscf2  FMOes2 FMOsyn2 FMOscf3 FMOsyn3
 -------------------------------------------------------------------------------
       1    3.5   12771.0    0.5    0.0   23240.4     564.7    0.0    0.0    0.0
       1    9.1   26497.9    2.8    0.0   64209.3    1124.5    0.0    0.0    0.0
       2    2.6   12714.0    0.2    0.0   23014.7     560.0    0.0    0.0    0.0
       2    9.1   26497.8    2.8    0.1   64216.1    1117.7    0.0    0.0    0.0
       3    2.9   12700.0    0.2    0.0   23086.7     536.7    0.0    0.0    0.0
       3    9.1   26497.8    2.8    0.1   64217.7    1116.1    0.0    0.0    0.0
       4    2.6   12711.5    0.1    0.0   23041.3     541.3    0.0    0.0    0.0
       4    9.1   26497.8    2.8    0.1   64217.2    1116.7    0.0    0.0    0.0
       5    3.2   12686.0    0.3    0.0   23100.4     555.3    0.0    0.0    0.0
       5    9.1   26497.8    2.8    0.1   64218.7    1115.2    0.0    0.0    0.0
       6    2.7   12661.3    0.1    0.0   23027.6     534.4    0.0    0.0    0.0
       6    9.1   26497.8    2.8    0.1   64215.1    1118.8    0.0    0.0    0.0
       7    2.9   12600.5    0.2    0.0   22981.5     547.0    0.0    0.0    0.0
       7    9.1   26497.9    2.8    0.0   64217.5    1116.4    0.0    0.0    0.0
       8    2.5   12667.9    0.1    0.0   23226.9     538.9    0.0    0.0    0.0
       8    9.1   26497.9    2.8    0.0   64214.7    1119.1    0.0    0.0    0.0
       9    3.1   12570.0    0.4    0.0   22806.9     534.2    0.0    0.0    0.0
       9    9.1   26497.8    2.8    0.1   64217.7    1116.1    0.0    0.0    0.0
      10    2.5   12575.7    0.1    0.0   22839.5     533.0    0.0    0.0    0.0
      10    9.1   26497.8    2.8    0.1   64216.1    1117.7    0.0    0.0    0.0
      11    2.6   12571.3    0.2    0.0   22959.3     545.4    0.0    0.0    0.0
      11    9.1   26497.8    2.8    0.1   64216.1    1117.8    0.0    0.0    0.0
      12    2.3   12566.5    0.1    0.0   22742.6     533.4    0.0    0.0    0.0
      12    9.1   26497.8    2.8    0.1   64218.2    1115.7    0.0    0.0    0.0
      13    2.8   12502.7    0.3    0.0   22908.5     536.7    0.0    0.0    0.0
      13    9.1   26497.8    2.8    0.1   64217.9    1116.0    0.0    0.0    0.0
      14    2.3   12543.5    0.2    0.0   23104.8     538.0    0.0    0.0    0.0
      14    9.1   26497.8    2.8    0.1   64212.8    1121.0    0.0    0.0    0.0
      15    2.6   12599.1    0.2    0.0   22912.0     545.2    0.0    0.0    0.0
      15    9.1   26497.8    2.8    0.1   64212.6    1121.2    0.0    0.0    0.0
      16    2.4   12583.9    0.1    0.0   23133.4     539.9    0.0    0.0    0.0
      16    9.1   26497.8    2.8    0.1   64219.6    1114.2    0.0    0.0    0.0
averaged    2.7   12626.6    0.2    0.0   23007.9     542.8    0.0    0.0    0.0
averaged    9.1   26497.8    2.8    0.1   64216.1    1117.8    0.0    0.0    0.0
             62771924  WORDS OF DYNAMIC MEMORY USED
 EXECUTION OF GAMESS TERMINATED NORMALLY Sun Dec  8 13:57:26 2019
 DDI: 263640 bytes (0.3 MB / 0 MWords) used by master data server.

 ----------------------------------------
 CPU timing information for all processes
 ========================================
 0: 35707.609 + 872.584 = 36580.193
 1: 35520.574 + 770.971 = 36291.546
 2: 35539.954 + 786.691 = 36326.645
 3: 35518.25 + 778.873 = 36296.898
 4: 35520.354 + 824.907 = 36345.262
 5: 35460.645 + 765.598 = 36226.244
 6: 35330.249 + 801.856 = 36132.106
 7: 35662.925 + 773.495 = 36436.420
 8: 35095.544 + 819.152 = 35914.697
 9: 35198.552 + 752.262 = 35950.815
 10: 35284.173 + 794.755 = 36078.928
 11: 35083.150 + 761.899 = 35845.50
 12: 35145.318 + 805.829 = 35951.148
 13: 35409.255 + 779.681 = 36188.937
 14: 35285.719 + 773.504 = 36059.224
 15: 35502.166 + 757.555 = 36259.721
 ----------------------------------------
 ddikick.x: exited gracefully.
unset echo
----- accounting info -----
Files used on the master node gollum056.lsa.umich.edu were:
-rw-r--r-- 1 hazwong frank    25096 Dec  7 12:26 /scratch/hazwong/825279/2L8F_3/usrc/2L8F_3_fmo_input.F05
-rw-r--r-- 1 hazwong frank      634 Dec  8 13:57 /scratch/hazwong/825279/2L8F_3/usrc/2L8F_3_fmo_input.F06.001
-rw-r--r-- 1 hazwong frank      634 Dec  8 13:57 /scratch/hazwong/825279/2L8F_3/usrc/2L8F_3_fmo_input.F06.002
-rw-r--r-- 1 hazwong frank      634 Dec  8 13:57 /scratch/hazwong/825279/2L8F_3/usrc/2L8F_3_fmo_input.F06.003
-rw-r--r-- 1 hazwong frank      634 Dec  8 13:57 /scratch/hazwong/825279/2L8F_3/usrc/2L8F_3_fmo_input.F06.004
-rw-r--r-- 1 hazwong frank      634 Dec  8 13:57 /scratch/hazwong/825279/2L8F_3/usrc/2L8F_3_fmo_input.F06.005
-rw-r--r-- 1 hazwong frank      634 Dec  8 13:57 /scratch/hazwong/825279/2L8F_3/usrc/2L8F_3_fmo_input.F06.006
-rw-r--r-- 1 hazwong frank      634 Dec  8 13:57 /scratch/hazwong/825279/2L8F_3/usrc/2L8F_3_fmo_input.F06.007
-rw-r--r-- 1 hazwong frank      634 Dec  8 13:57 /scratch/hazwong/825279/2L8F_3/usrc/2L8F_3_fmo_input.F06.008
-rw-r--r-- 1 hazwong frank      634 Dec  8 13:57 /scratch/hazwong/825279/2L8F_3/usrc/2L8F_3_fmo_input.F06.009
-rw-r--r-- 1 hazwong frank      634 Dec  8 13:57 /scratch/hazwong/825279/2L8F_3/usrc/2L8F_3_fmo_input.F06.010
-rw-r--r-- 1 hazwong frank      634 Dec  8 13:57 /scratch/hazwong/825279/2L8F_3/usrc/2L8F_3_fmo_input.F06.011
-rw-r--r-- 1 hazwong frank      634 Dec  8 13:57 /scratch/hazwong/825279/2L8F_3/usrc/2L8F_3_fmo_input.F06.012
-rw-r--r-- 1 hazwong frank      634 Dec  8 13:57 /scratch/hazwong/825279/2L8F_3/usrc/2L8F_3_fmo_input.F06.013
-rw-r--r-- 1 hazwong frank      634 Dec  8 13:57 /scratch/hazwong/825279/2L8F_3/usrc/2L8F_3_fmo_input.F06.014
-rw-r--r-- 1 hazwong frank      634 Dec  8 13:57 /scratch/hazwong/825279/2L8F_3/usrc/2L8F_3_fmo_input.F06.015
-rw-r--r-- 1 hazwong frank    21906 Dec  8 13:57 /scratch/hazwong/825279/2L8F_3/usrc/2L8F_3_fmo_input.F07
-rw-r--r-- 1 hazwong frank        0 Dec  7 12:26 /scratch/hazwong/825279/2L8F_3/usrc/2L8F_3_fmo_input.F07.001
-rw-r--r-- 1 hazwong frank        0 Dec  7 12:26 /scratch/hazwong/825279/2L8F_3/usrc/2L8F_3_fmo_input.F07.002
-rw-r--r-- 1 hazwong frank        0 Dec  7 12:26 /scratch/hazwong/825279/2L8F_3/usrc/2L8F_3_fmo_input.F07.003
-rw-r--r-- 1 hazwong frank        0 Dec  7 12:26 /scratch/hazwong/825279/2L8F_3/usrc/2L8F_3_fmo_input.F07.004
-rw-r--r-- 1 hazwong frank        0 Dec  7 12:26 /scratch/hazwong/825279/2L8F_3/usrc/2L8F_3_fmo_input.F07.005
-rw-r--r-- 1 hazwong frank        0 Dec  7 12:26 /scratch/hazwong/825279/2L8F_3/usrc/2L8F_3_fmo_input.F07.006
-rw-r--r-- 1 hazwong frank        0 Dec  7 12:26 /scratch/hazwong/825279/2L8F_3/usrc/2L8F_3_fmo_input.F07.007
-rw-r--r-- 1 hazwong frank        0 Dec  7 12:26 /scratch/hazwong/825279/2L8F_3/usrc/2L8F_3_fmo_input.F07.008
-rw-r--r-- 1 hazwong frank        0 Dec  7 12:26 /scratch/hazwong/825279/2L8F_3/usrc/2L8F_3_fmo_input.F07.009
-rw-r--r-- 1 hazwong frank        0 Dec  7 12:26 /scratch/hazwong/825279/2L8F_3/usrc/2L8F_3_fmo_input.F07.010
-rw-r--r-- 1 hazwong frank        0 Dec  7 12:26 /scratch/hazwong/825279/2L8F_3/usrc/2L8F_3_fmo_input.F07.011
-rw-r--r-- 1 hazwong frank        0 Dec  7 12:26 /scratch/hazwong/825279/2L8F_3/usrc/2L8F_3_fmo_input.F07.012
-rw-r--r-- 1 hazwong frank        0 Dec  7 12:26 /scratch/hazwong/825279/2L8F_3/usrc/2L8F_3_fmo_input.F07.013
-rw-r--r-- 1 hazwong frank        0 Dec  7 12:26 /scratch/hazwong/825279/2L8F_3/usrc/2L8F_3_fmo_input.F07.014
-rw-r--r-- 1 hazwong frank        0 Dec  7 12:26 /scratch/hazwong/825279/2L8F_3/usrc/2L8F_3_fmo_input.F07.015
-rw-r--r-- 1 hazwong frank    65440 Dec  8 13:57 /scratch/hazwong/825279/2L8F_3/usrc/2L8F_3_fmo_input.F10.000
-rw-r--r-- 1 hazwong frank        0 Dec  7 12:26 /scratch/hazwong/825279/2L8F_3/usrc/2L8F_3_fmo_input.F26.000
-rw-r--r-- 1 hazwong frank        0 Dec  7 12:26 /scratch/hazwong/825279/2L8F_3/usrc/2L8F_3_fmo_input.F26.001
-rw-r--r-- 1 hazwong frank        0 Dec  7 12:26 /scratch/hazwong/825279/2L8F_3/usrc/2L8F_3_fmo_input.F26.002
-rw-r--r-- 1 hazwong frank        0 Dec  7 12:26 /scratch/hazwong/825279/2L8F_3/usrc/2L8F_3_fmo_input.F26.003
-rw-r--r-- 1 hazwong frank        0 Dec  7 12:26 /scratch/hazwong/825279/2L8F_3/usrc/2L8F_3_fmo_input.F26.004
-rw-r--r-- 1 hazwong frank        0 Dec  7 12:26 /scratch/hazwong/825279/2L8F_3/usrc/2L8F_3_fmo_input.F26.005
-rw-r--r-- 1 hazwong frank        0 Dec  7 12:26 /scratch/hazwong/825279/2L8F_3/usrc/2L8F_3_fmo_input.F26.006
-rw-r--r-- 1 hazwong frank        0 Dec  7 12:26 /scratch/hazwong/825279/2L8F_3/usrc/2L8F_3_fmo_input.F26.007
-rw-r--r-- 1 hazwong frank        0 Dec  7 12:26 /scratch/hazwong/825279/2L8F_3/usrc/2L8F_3_fmo_input.F26.008
-rw-r--r-- 1 hazwong frank        0 Dec  7 12:26 /scratch/hazwong/825279/2L8F_3/usrc/2L8F_3_fmo_input.F26.009
-rw-r--r-- 1 hazwong frank        0 Dec  7 12:26 /scratch/hazwong/825279/2L8F_3/usrc/2L8F_3_fmo_input.F26.010
-rw-r--r-- 1 hazwong frank        0 Dec  7 12:26 /scratch/hazwong/825279/2L8F_3/usrc/2L8F_3_fmo_input.F26.011
-rw-r--r-- 1 hazwong frank        0 Dec  7 12:26 /scratch/hazwong/825279/2L8F_3/usrc/2L8F_3_fmo_input.F26.012
-rw-r--r-- 1 hazwong frank        0 Dec  7 12:26 /scratch/hazwong/825279/2L8F_3/usrc/2L8F_3_fmo_input.F26.013
-rw-r--r-- 1 hazwong frank        0 Dec  7 12:26 /scratch/hazwong/825279/2L8F_3/usrc/2L8F_3_fmo_input.F26.014
-rw-r--r-- 1 hazwong frank        0 Dec  7 12:26 /scratch/hazwong/825279/2L8F_3/usrc/2L8F_3_fmo_input.F26.015
-rw-r--r-- 1 hazwong frank        0 Dec  7 12:26 /scratch/hazwong/825279/2L8F_3/usrc/2L8F_3_fmo_input.F27.000
-rw-r--r-- 1 hazwong frank        0 Dec  7 12:26 /scratch/hazwong/825279/2L8F_3/usrc/2L8F_3_fmo_input.F27.001
-rw-r--r-- 1 hazwong frank        0 Dec  7 12:26 /scratch/hazwong/825279/2L8F_3/usrc/2L8F_3_fmo_input.F27.002
-rw-r--r-- 1 hazwong frank        0 Dec  7 12:26 /scratch/hazwong/825279/2L8F_3/usrc/2L8F_3_fmo_input.F27.003
-rw-r--r-- 1 hazwong frank        0 Dec  7 12:26 /scratch/hazwong/825279/2L8F_3/usrc/2L8F_3_fmo_input.F27.004
-rw-r--r-- 1 hazwong frank        0 Dec  7 12:26 /scratch/hazwong/825279/2L8F_3/usrc/2L8F_3_fmo_input.F27.005
-rw-r--r-- 1 hazwong frank        0 Dec  7 12:26 /scratch/hazwong/825279/2L8F_3/usrc/2L8F_3_fmo_input.F27.006
-rw-r--r-- 1 hazwong frank        0 Dec  7 12:26 /scratch/hazwong/825279/2L8F_3/usrc/2L8F_3_fmo_input.F27.007
-rw-r--r-- 1 hazwong frank        0 Dec  7 12:26 /scratch/hazwong/825279/2L8F_3/usrc/2L8F_3_fmo_input.F27.008
-rw-r--r-- 1 hazwong frank        0 Dec  7 12:26 /scratch/hazwong/825279/2L8F_3/usrc/2L8F_3_fmo_input.F27.009
-rw-r--r-- 1 hazwong frank        0 Dec  7 12:26 /scratch/hazwong/825279/2L8F_3/usrc/2L8F_3_fmo_input.F27.010
-rw-r--r-- 1 hazwong frank        0 Dec  7 12:26 /scratch/hazwong/825279/2L8F_3/usrc/2L8F_3_fmo_input.F27.011
-rw-r--r-- 1 hazwong frank        0 Dec  7 12:26 /scratch/hazwong/825279/2L8F_3/usrc/2L8F_3_fmo_input.F27.012
-rw-r--r-- 1 hazwong frank        0 Dec  7 12:26 /scratch/hazwong/825279/2L8F_3/usrc/2L8F_3_fmo_input.F27.013
-rw-r--r-- 1 hazwong frank        0 Dec  7 12:26 /scratch/hazwong/825279/2L8F_3/usrc/2L8F_3_fmo_input.F27.014
-rw-r--r-- 1 hazwong frank        0 Dec  7 12:26 /scratch/hazwong/825279/2L8F_3/usrc/2L8F_3_fmo_input.F27.015
-rw-r--r-- 1 hazwong frank 33734656 Dec  7 19:48 /scratch/hazwong/825279/2L8F_3/usrc/2L8F_3_fmo_input.F40.000
-rw-r--r-- 1 hazwong frank 33734656 Dec  7 19:48 /scratch/hazwong/825279/2L8F_3/usrc/2L8F_3_fmo_input.F40.001
-rw-r--r-- 1 hazwong frank 33734656 Dec  7 19:48 /scratch/hazwong/825279/2L8F_3/usrc/2L8F_3_fmo_input.F40.002
-rw-r--r-- 1 hazwong frank 33734656 Dec  7 19:48 /scratch/hazwong/825279/2L8F_3/usrc/2L8F_3_fmo_input.F40.003
-rw-r--r-- 1 hazwong frank 33734656 Dec  7 19:48 /scratch/hazwong/825279/2L8F_3/usrc/2L8F_3_fmo_input.F40.004
-rw-r--r-- 1 hazwong frank 33734656 Dec  7 19:48 /scratch/hazwong/825279/2L8F_3/usrc/2L8F_3_fmo_input.F40.005
-rw-r--r-- 1 hazwong frank 33734656 Dec  7 19:48 /scratch/hazwong/825279/2L8F_3/usrc/2L8F_3_fmo_input.F40.006
-rw-r--r-- 1 hazwong frank 33734656 Dec  7 19:48 /scratch/hazwong/825279/2L8F_3/usrc/2L8F_3_fmo_input.F40.007
-rw-r--r-- 1 hazwong frank 33734656 Dec  7 19:48 /scratch/hazwong/825279/2L8F_3/usrc/2L8F_3_fmo_input.F40.008
-rw-r--r-- 1 hazwong frank 33734656 Dec  7 19:48 /scratch/hazwong/825279/2L8F_3/usrc/2L8F_3_fmo_input.F40.009
-rw-r--r-- 1 hazwong frank 33734656 Dec  7 19:48 /scratch/hazwong/825279/2L8F_3/usrc/2L8F_3_fmo_input.F40.010
-rw-r--r-- 1 hazwong frank 33734656 Dec  7 19:48 /scratch/hazwong/825279/2L8F_3/usrc/2L8F_3_fmo_input.F40.011
-rw-r--r-- 1 hazwong frank 33734656 Dec  7 19:48 /scratch/hazwong/825279/2L8F_3/usrc/2L8F_3_fmo_input.F40.012
-rw-r--r-- 1 hazwong frank 33734656 Dec  7 19:48 /scratch/hazwong/825279/2L8F_3/usrc/2L8F_3_fmo_input.F40.013
-rw-r--r-- 1 hazwong frank 33734656 Dec  7 19:48 /scratch/hazwong/825279/2L8F_3/usrc/2L8F_3_fmo_input.F40.014
-rw-r--r-- 1 hazwong frank 33734656 Dec  7 19:48 /scratch/hazwong/825279/2L8F_3/usrc/2L8F_3_fmo_input.F40.015
ls: No match.
ls: No match.
ls: No match.
Sun Dec  8 13:57:34 EST 2019
0.226u 0.114s 25:30:55.43 0.0%	0+0k 2208+176io 27pf+0w
