----- GAMESS execution script 'rungms' -----
This job is running on host gollum076.lsa.umich.edu
under operating system Linux at Sun Nov 17 21:22:11 EST 2019
Available scratch disk space (Kbyte units) at beginning of the job is
Filesystem     1K-blocks  Used Available Use% Mounted on
/dev/sda4      426933580 33264 426900316   1% /scratch
GAMESS temporary binary files will be written to /scratch/hazwong/638703/1ANR_1/usrc
GAMESS supplementary output files will be written to /scratch/hazwong/638703/1ANR_1/src
Copying input file 1ANR_1_fmo_input.inp to your run's scratch directory...
This is a GDDI run, keeping various output files on local disks
 
Assuming a single but multicore node.
 

 Distributed Data Interface kickoff program.
 Initiating 16 compute processes on 1 nodes to run the following command:
 /export/apps/CentOS7/gamess/src/build//gamess.R3.x 1ANR_1_fmo_input 

          ******************************************************
          *         GAMESS VERSION = 30 SEP 2018 (R3)         *
          *             FROM IOWA STATE UNIVERSITY             *
          * M.W.SCHMIDT, K.K.BALDRIDGE, J.A.BOATZ, S.T.ELBERT, *
          *   M.S.GORDON, J.H.JENSEN, S.KOSEKI, N.MATSUNAGA,   *
          *          K.A.NGUYEN, S.J.SU, T.L.WINDUS,           *
          *       TOGETHER WITH M.DUPUIS, J.A.MONTGOMERY       *
          *         J.COMPUT.CHEM.  14, 1347-1363(1993)        *
          **************** 64 BIT LINUX VERSION ****************

  SINCE 1993, STUDENTS AND POSTDOCS WORKING AT IOWA STATE UNIVERSITY
  AND ALSO IN THEIR VARIOUS JOBS AFTER LEAVING ISU HAVE MADE IMPORTANT
  CONTRIBUTIONS TO THE CODE:
     IVANA ADAMOVIC, CHRISTINE AIKENS, YURI ALEXEEV, POOJA ARORA,
     ANDREY ASADCHEV, ROB BELL, PRADIPTA BANDYOPADHYAY, JONATHAN BENTZ,
     BRETT BODE, KURT BRORSEN, CALEB CARLIN, GALINA CHABAN, WEI CHEN,
     CHEOL HO CHOI, PAUL DAY, ALBERT DEFUSCO, NUWAN DESILVA, TIM DUDLEY,
     DMITRI FEDOROV, ALEX FINDLATER, GRAHAM FLETCHER, MARK FREITAG,
     KURT GLAESEMANN, ANASTASIA GUNINA,
     DAN KEMP, GRANT MERRILL, NORIYUKI MINEZAWA, JONATHAN MULLIN,
     TAKESHI NAGATA, SEAN NEDD, HEATHER NETZLOFF, BOSILJKA NJEGIC, RYAN OLSON,
     MIKE PAK, BUU PHAM,
     SPENCER PRUITT, LUKE ROSKOP, JIM SHOEMAKER, LYUDMILA SLIPCHENKO,
     TONY SMITH, SAROM SOK LEANG, JIE SONG, TETSUYA TAKETSUGU, SIMON WEBB,
     PENG XU, SOOHAENG YOO, FEDERICO ZAHARIEV

  ADDITIONAL CODE HAS BEEN PROVIDED BY COLLABORATORS IN OTHER GROUPS:
     IOWA STATE UNIVERSITY:
          JOE IVANIC, AARON WEST, LAIMUTIS BYTAUTAS, KLAUS RUEDENBERG
     UNIVERSITY OF TOKYO: KIMIHIKO HIRAO, TAKAHITO NAKAJIMA,
          TAKAO TSUNEDA, MUNEAKI KAMIYA, SUSUMU YANAGISAWA,
          KIYOSHI YAGI, MAHITO CHIBA, SEIKEN TOKURA, NAOAKI KAWAKAMI
     UNIVERSITY OF AARHUS: FRANK JENSEN
     UNIVERSITY OF IOWA: VISVALDAS KAIRYS, HUI LI
     NATIONAL INST. OF STANDARDS AND TECHNOLOGY: WALT STEVENS, DAVID GARMER
     UNIVERSITY OF PISA: BENEDETTA MENNUCCI, JACOPO TOMASI
     UNIVERSITY OF MEMPHIS: HENRY KURTZ, PRAKASHAN KORAMBATH
     UNIVERSITY OF ALBERTA: TOBY ZENG, MARIUSZ KLOBUKOWSKI
     UNIVERSITY OF NEW ENGLAND: MARK SPACKMAN
     MIE UNIVERSITY: HIROAKI UMEDA
     NAT. INST. OF ADVANCED INDUSTRIAL SCIENCE AND TECHNOLOGY: KAZUO KITAURA
     MICHIGAN STATE UNIVERSITY:
          KAROL KOWALSKI, MARTA WLOCH, JEFFREY GOUR, JESSE LUTZ,
          WEI LI, JUN SHEN, J. EMILIANO DEUSTUA, PIOTR PIECUCH
     UNIVERSITY OF MINNESOTA:
          YINAN SHU
     UNIVERSITY OF SILESIA: MONIKA MUSIAL, STANISLAW KUCHARSKI
     FACULTES UNIVERSITAIRES NOTRE-DAME DE LA PAIX:
          OLIVIER QUINET, BENOIT CHAMPAGNE
     UNIVERSITY OF CALIFORNIA - SANTA BARBARA: BERNARD KIRTMAN
     INSTITUTE FOR MOLECULAR SCIENCE:
          KAZUYA ISHIMURA, MICHIO KATOUDA, AND SHIGERU NAGASE
     UNIVERSITY OF NOTRE DAME: ANNA POMOGAEVA, DAN CHIPMAN
     KYUSHU UNIVERSITY:
          HARUYUKI NAKANO,
          FENG LONG GU, JACEK KORCHOWIEC, MARCIN MAKOWSKI, AND YURIKO AOKI,
          HIROTOSHI MORI AND EISAKU MIYOSHI
     PENNSYLVANIA STATE UNIVERSITY:
          TZVETELIN IORDANOV, CHET SWALINA, JONATHAN SKONE,
          SHARON HAMMES-SCHIFFER
     WASEDA UNIVERSITY:
          MASATO KOBAYASHI, TOMOKO AKAMA, TSUGUKI TOUMA,
          TAKESHI YOSHIKAWA, YASUHIRO IKABATA, JUNJI SEINO,
          YUYA NAKAJIMA, HIROMI NAKAI
     NANJING UNIVERSITY: SHUHUA LI
     UNIVERSITY OF NEBRASKA:
          PEIFENG SU, DEJUN SI, NANDUN THELLAMUREGE, YALI WANG, HUI LI
     UNIVERSITY OF ZURICH: ROBERTO PEVERATI, KIM BALDRIDGE
     N. COPERNICUS UNIVERSITY AND JACKSON STATE UNIVERSITY:
          MARIA BARYSZ
     UNIVERSITY OF COPENHAGEN: Jimmy Kromann, CASPER STEINMANN
     TOKYO INSTITUTE OF TECHNOLOGY: HIROYA NAKATA
     NAGOYA UNIVERSITY: YOSHIO NISHIMOTO, STEPHAN IRLE
     MOSCOW STATE UNIVERSITY: VLADIMIR MIRONOV


 PARALLEL VERSION RUNNING ON       16 PROCESSORS IN        1 NODES.

 EXECUTION OF GAMESS BEGUN Sun Nov 17 21:22:11 2019

            ECHO OF THE FIRST FEW INPUT CARDS -
 INPUT CARD>!*** FMO 5.3 (Gamess) INPUT generated by Facio 22.1.1.32 ***                    
 INPUT CARD> $CONTRL RUNTYP=ENERGY NPRINT=-5 ISPHER=1 MAXIT=200 $END                        
 INPUT CARD> $SYSTEM MWORDS=63 MEMDDI=63 $END                                               
 INPUT CARD> $GDDI NGROUP=1 $END                                                            
 INPUT CARD> $SCF DIRSCF=.TRUE. NPUNCH=0 $END                                               
 INPUT CARD>!*** NumCPU : 2  MemPerNode : 512MB                                             
 INPUT CARD> $PCM SOLVNT=WATER IEF=-10 ICOMP=2 ICAV=1 IDISP=1 IFMO=-1 $END                  
 INPUT CARD> $PCMCAV RADII=SUAHF $END                                                       
 INPUT CARD> $TESCAV NTSALL=60 $END                                                         
 INPUT CARD> $FMOPRP                                                                        
 INPUT CARD>    NAODIR=200                                                                  
 INPUT CARD>    NGRFMO(1)=1, 1, 0, 0, 0,   0, 0, 0, 0, 0                                    
 INPUT CARD>    IPIEDA=1                                                                    
 INPUT CARD>    NPRINT=9                                                                    
 INPUT CARD> $END                                                                           
 INPUT CARD> $FMO                                                                           
 INPUT CARD>      SCFTYP(1)=RHF                                                             
 INPUT CARD>      MODGRD=10                                                                 
 INPUT CARD>      MODMUL=0                                                                  
 INPUT CARD>      MAXCAO=5                                                                  
 INPUT CARD>      MAXBND=12                                                                 
 INPUT CARD>      NLAYER=1                                                                  
 INPUT CARD>      MPLEVL(1)=2                                                               
 INPUT CARD>      NFRAG=10                                                                  
 INPUT CARD>      ICHARG(1)=-1, -1, -1, -1, -1, -1, -1, -1, -1, 0                           
 INPUT CARD>      FRGNAM(1)=F1, F2, F3, F4, F5, F6, F7, F8, F9, F10                         
 INPUT CARD>      indat(1)=0                                                                
 INPUT CARD>               1   -36   0                                                      
 INPUT CARD>               37   -67   0                                                     
 INPUT CARD>               68   -98   0                                                     
 INPUT CARD>               99   -128   0                                                    
 INPUT CARD>               129   -162   0                                                   
 INPUT CARD>               163   -196   0                                                   
 INPUT CARD>               197   -230   0                                                   
 INPUT CARD>               231   -263   0                                                   
 INPUT CARD>               264   -297   0                                                   
 INPUT CARD>               298   -325   0                                                   
 INPUT CARD> $END                                                                           
 INPUT CARD>                                                                                
 INPUT CARD> $FMOBND                                                                        
 INPUT CARD>   -37   36       6-31G*    MINI                                                
 INPUT CARD>   -68   67       6-31G*    MINI                                                
 INPUT CARD>   -99   98       6-31G*    MINI                                                
 INPUT CARD>   -129   128       6-31G*    MINI                                              
 INPUT CARD>   -163   162       6-31G*    MINI                                              
 INPUT CARD>   -197   196       6-31G*    MINI                                              
 INPUT CARD>   -231   230       6-31G*    MINI                                              
 INPUT CARD>   -264   263       6-31G*    MINI                                              
 INPUT CARD>   -298   297       6-31G*    MINI                                              
 INPUT CARD> $END                                                                           


 -------------------------------------------------------------
 GROUP DDI, PROGRAMMED BY: RYAN M. OLSON AND DMITRI G. FEDOROV
        FEDOROV ET AL., J. COMPUT. CHEM., 25 (2004) 872.
 -------------------------------------------------------------

 -------------------------------------------------------
 GDDI: INITIALIZATION COMPLETED FOR GROUP     1 OF     1
 WITH    16 PROCESSES BALTYP=DLB   global rank=        0
 -------------------------------------------------------

   63000000 WORDS OF MEMORY AVAILABLE


     RUN TITLE
     ---------
  FMO calculation                                                                

 THE POINT GROUP OF THE MOLECULE IS C1      
 THE ORDER OF THE PRINCIPAL AXIS IS     0

 ATOM   ATOMIC CHARGE
 H.1-1       1.0
 O.1-1       8.0
 C.1-1       6.0
 N.1-1       7.0
 P.1-1      15.0

     ATOMIC BASIS SET LIBRARY
     ----------------
 THE CONTRACTED PRIMITIVE FUNCTIONS HAVE BEEN UNNORMALIZED
 THE CONTRACTED BASIS FUNCTIONS ARE NOW NORMALIZED TO UNITY

  SHELL TYPE  PRIMITIVE        EXPONENT          CONTRACTION COEFFICIENT(S)

 H.1-1     

      1   S       1            18.7311370    0.033494604338
      1   S       2             2.8253944    0.234726953484
      1   S       3             0.6401217    0.813757326146

      2   S       4             0.1612778    1.000000000000

 O.1-1     

      3   S       5          5484.6716600    0.001831074430
      3   S       6           825.2349460    0.013950172200
      3   S       7           188.0469580    0.068445078098
      3   S       8            52.9645000    0.232714335992
      3   S       9            16.8975704    0.470192897984
      3   S      10             5.7996353    0.358520852987

      4   L      11            15.5396162   -0.110777549525    0.070874268231
      4   L      12             3.5999336   -0.148026262701    0.339752839147
      4   L      13             1.0137618    1.130767015354    0.727158577316

      5   L      14             0.2700058    1.000000000000    1.000000000000

      6   D      15             0.8000000    1.000000000000

 C.1-1     

      7   S      16          3047.5248800    0.001834737132
      7   S      17           457.3695180    0.014037322813
      7   S      18           103.9486850    0.068842622264
      7   S      19            29.2101553    0.232184443216
      7   S      20             9.2866630    0.467941348435
      7   S      21             3.1639270    0.362311985337

      8   L      22             7.8682723   -0.119332419775    0.068999066591
      8   L      23             1.8812885   -0.160854151696    0.316423960957
      8   L      24             0.5442493    1.143456437840    0.744308290898

      9   L      25             0.1687145    1.000000000000    1.000000000000

     10   D      26             0.8000000    1.000000000000

 N.1-1     

     11   S      27          4173.5114600    0.001834772160
     11   S      28           627.4579110    0.013994627002
     11   S      29           142.9020930    0.068586551812
     11   S      30            40.2343293    0.232240873040
     11   S      31            12.8202129    0.469069948082
     11   S      32             4.3904370    0.360455199063

     12   L      33            11.6263619   -0.114961181702    0.067579743878
     12   L      34             2.7162798   -0.169117478561    0.323907295893
     12   L      35             0.7722184    1.145851947027    0.740895139755

     13   L      36             0.2120315    1.000000000000    1.000000000000

     14   D      37             0.8000000    1.000000000000

 P.1-1     

     15   S      38         19413.3000000    0.001851598923
     15   S      39          2909.4200000    0.014206191735
     15   S      40           661.3640000    0.069999459277
     15   S      41           185.7590000    0.240078860331
     15   S      42            59.1943000    0.484761717984
     15   S      43            20.0310000    0.335199804993

     16   L      44           339.4780000   -0.002782170105    0.004564616191
     16   L      45            81.0101000   -0.036049901354    0.033693571881
     16   L      46            25.8780000   -0.116631004382    0.139754883368
     16   L      47             9.4522100    0.096832803638    0.339361716786
     16   L      48             3.6656600    0.614418023082    0.450920623685
     16   L      49             1.4674600    0.403798015170    0.238585800889

     17   L      50             2.1562300   -0.252924113863   -0.017765312733
     17   L      51             0.7489970    0.032851844678    0.274058196433
     17   L      52             0.2831450    1.081254761783    0.785421562957

     18   L      53             0.0998317    1.000000000000    1.000000000000

     19   D      54             0.5500000    1.000000000000

 TOTAL NUMBER OF BASIS SET SHELLS             =   19
 NUMBER OF CARTESIAN GAUSSIAN BASIS FUNCTIONS =   66

     $CONTRL OPTIONS
     ---------------
 SCFTYP=RHF          RUNTYP=ENERGY       EXETYP=RUN     
 MPLEVL=       0     CITYP =NONE         CCTYP =NONE         VBTYP =NONE    
 DFTTYP=NONE         TDDFT =NONE    
 MULT  =       1     ICHARG=       0     NZVAR =       0     COORD =UNIQUE  
 PP    =NONE         RELWFN=NONE         LOCAL =NONE         NUMGRD=       F
 ISPHER=       1     NOSYM =       0     MAXIT =     200     UNITS =ANGS    
 PLTORB=       F     MOLPLT=       F     AIMPAC=       F     FRIEND=        
 NPRINT=      -5     IREST =       0     GEOM  =INPUT   
 NORMF =       0     NORMP =       0     ITOL  =      24     ICUT  =      12
 INTTYP=BEST         GRDTYP=BEST         QMTTOL= 1.0E-06

     $SYSTEM OPTIONS
     ---------------
  REPLICATED MEMORY=    63000000 WORDS (ON EVERY NODE).
 DISTRIBUTED MEMDDI=          63 MILLION WORDS IN AGGREGATE,
 MEMDDI DISTRIBUTED OVER  16 PROCESSORS IS     3937500 WORDS/PROCESSOR.
 TOTAL MEMORY REQUESTED ON EACH PROCESSOR=    66937500 WORDS.
 TIMLIM=      525600.00 MINUTES, OR     365.0 DAYS.
 PARALL= T  BALTYP=  DLB     KDIAG=    0  COREFL= F
 MXSEQ2=     300 MXSEQ3=     150  mem10=         0

 ** LOOKING UP INTERNALLY STORED DATA FOR SOLVENT=WATER    **
 OPTICAL AND PHYSICAL CONSTANTS:
 EPS= 78.390; EPSINF=  1.776; RSOLV=  1.385 A; VMOL=  18.070 ML/MOL;
 TCE= .25700E-03 1/K; STEN= 71.810 DYN/CM;  DSTEN=  0.6500; CMF=  1.2770


     -----------------------------------
     INPUT FOR PCM SOLVATION CALCULATION 
     -----------------------------------
     IEF   =     -10
     ICOMP =       2     IFIELD=       0     ICAV  =       1
     IDISP =       1     IREP  =       0     IDP   =       0

     SOLVNT=WATER        EPS   = 78.3900     EPSINF=  1.7760
     VMOL  = 18.0700     TCE   =  0.00025700 STEN  = 71.8100
     DSTEN =  0.6500     CMF   =  1.2770     RSOLV =  1.3850

     NESFP =       0
     OMEGA = 40.0000     RET   =100.0000     FRO   =  0.7000

     TABS  =298.0000     IPRINT=       0

     --------------------------------
     INPUT FOR ITERATIVE C-PCM METHOD 
     --------------------------------
     IPCMIT  =         1     MXDIIS  =        50
     MXITR1  =       200     MXITR2  =       200
     THRES   = 0.100E-09     IMUL    =         3
     RCUT(1) =   20.0000     RCUT(2) =   50.0000

     IDIRCT  =         1
     IMGABI  =         0     RABI    =    4.0000
     IMGASC  =         0     RASC    =   20.0000
     THRSLS  = 0.500E-03     DENSLS  =    0.0100
     IEFPOL  =         1     REFPOL  =    0.0000

     INPUT FOR ISOTROPIC DIELECTRICS
     -------------------------------
     EPS=    78.39

          ----------------
          PROPERTIES INPUT
          ----------------

     MOMENTS            FIELD           POTENTIAL          DENSITY
 IEMOM =       1   IEFLD =       0   IEPOT =       0   IEDEN =       0
 WHERE =COMASS     WHERE =NUCLEI     WHERE =NUCLEI     WHERE =NUCLEI  
 OUTPUT=BOTH       OUTPUT=BOTH       OUTPUT=NONE       OUTPUT=BOTH    
 IEMINT=       0   IEFINT=       0                     IEDINT=       0
                                                       MORB  =       0
          EXTRAPOLATION IN EFFECT
          SOSCF IN EFFECT
 ORBITAL PRINTING OPTION: NPREO=     1 32767     2     1

     -------------------------------
     INTEGRAL TRANSFORMATION OPTIONS
     -------------------------------
     NWORD  =            0
     CUTOFF = 1.0E-10     MPTRAN =       0
     DIRTRF =       T     AOINTS =DUP     

          ----------------------
          INTEGRAL INPUT OPTIONS
          ----------------------
 NOPK  =       1 NORDER=       0 SCHWRZ=       T

 ..... DONE SETTING UP THE RUN .....
 CPU     0: STEP CPU TIME=     0.04 TOTAL CPU TIME=          0.0 (      0.0 MIN)
 TOTAL WALL CLOCK TIME=          0.1 SECONDS, CPU UTILIZATION IS    57.14%
 CPU     0: STEP CPU TIME=     0.00 TOTAL CPU TIME=          0.0 (      0.0 MIN)
 TOTAL WALL CLOCK TIME=          0.1 SECONDS, CPU UTILIZATION IS    57.14%

                    ----------------------
                    AO INTEGRAL TECHNOLOGY
                    ----------------------
     S,P,L SHELL ROTATED AXIS INTEGRALS, REPROGRAMMED BY
        KAZUYA ISHIMURA (IMS) AND JOSE SIERRA (SYNSTAR).
     S,P,D,L SHELL ROTATED AXIS INTEGRALS PROGRAMMED BY
        KAZUYA ISHIMURA (INSTITUTE FOR MOLECULAR SCIENCE).
     S,P,D,F,G SHELL TO TOTAL QUARTET ANGULAR MOMENTUM SUM 5,
        ERIC PROGRAM BY GRAHAM FLETCHER (ELORET AND NASA ADVANCED
        SUPERCOMPUTING DIVISION, AMES RESEARCH CENTER).
     S,P,D,F,G,L SHELL GENERAL RYS QUADRATURE PROGRAMMED BY
        MICHEL DUPUIS (PACIFIC NORTHWEST NATIONAL LABORATORY).
 Setting modorb=1 flag...
 Setting modorb=1 flag...

          -----------------------
          MP2 CONTROL INFORMATION
          -----------------------
          NACORE =        8  NBCORE =        8
          LMOMP2 =        F  AOINTS = DUP     
          METHOD =        2  NWORD  =               0
          MP2PRP =        F  OSPT   = NONE    
          CUTOFF = 1.00E-12  CPHFBS = BASISAO 
          CODE   = IMS     

          NUMBER OF CORE -A-  ORBITALS =     8
          NUMBER OF CORE -B-  ORBITALS =     8
          NUMBER OF OCC. -A-  ORBITALS =    18
          NUMBER OF OCC. -B-  ORBITALS =    18
          NUMBER OF MOLECULAR ORBITALS =    66
          NUMBER OF   BASIS  FUNCTIONS =    66

 CPU     0: STEP CPU TIME=     0.03 TOTAL CPU TIME=          0.1 (      0.0 MIN)
 TOTAL WALL CLOCK TIME=          0.1 SECONDS, CPU UTILIZATION IS    70.00%
 CPU     0: STEP CPU TIME=     0.00 TOTAL CPU TIME=          0.1 (      0.0 MIN)
 TOTAL WALL CLOCK TIME=          0.1 SECONDS, CPU UTILIZATION IS    70.00%

     INPUT FOR CAVITY DEFINITION 
     ---------------------------
   ATOM               COORDINATES                RADIUS       EPS
      1     -6.6130     -1.2710     11.5160      0.0100     78.3900
      2     -7.3310     -0.7800     11.0680      1.5900     78.3900
      3     -7.4760      0.4690     11.7600      1.7700     78.3900
      4     -6.5220      1.0400     11.6900      0.0100     78.3900
      5     -7.6720      0.2630     12.8350      0.0100     78.3900
      6     -8.6100      1.3360     11.2020      1.7700     78.3900
      7     -8.7020      2.2880     11.7650      0.0100     78.3900
      8     -8.3340      1.6740      9.8100      1.5900     78.3900
      9     -9.5460      1.6480      9.0720      1.7700     78.3900
     10     -9.6480      2.6470      8.5890      0.0100     78.3900
     11     -9.5170      0.6180      8.0250      1.6800     78.3900
     12    -10.3430      0.5520      6.9370      1.7700     78.3900
     13    -12.9660      1.8350      5.0840      1.6800     78.3900
     14    -13.2630      2.6110      5.6350      0.0100     78.3900
     15    -13.4480      1.6320      4.2270      0.0100     78.3900
     16    -11.3440      1.4030      6.6580      1.6800     78.3900
     17    -11.9540      1.1080      5.5120      1.7700     78.3900
     18    -11.5820      0.0600      4.7120      1.6800     78.3900
     19    -12.0870     -0.0820      3.8520      0.0100     78.3900
     20    -10.5440     -0.8280      4.9670      1.7700     78.3900
     21    -10.2670     -1.7430      4.1850      1.5900     78.3900
     22     -9.9080     -0.5370      6.2040      1.7700     78.3900
     23     -8.8450     -1.1680      6.8390      1.6800     78.3900
     24     -8.6530     -0.4510      7.9240      1.7700     78.3900
     25     -7.8920     -0.6380      8.6850      0.0100     78.3900
     26    -10.6730      1.4470     10.0580      1.7700     78.3900
     27    -11.5290      0.8900      9.6240      0.0100     78.3900
     28    -11.1120      2.7020     10.5320      1.5900     78.3900
     29    -11.7060      2.5080     11.2670      0.0100     78.3900
     30     -9.9850      0.6550     11.1650      1.7700     78.3900
     31     -9.8000     -0.3910     10.8350      0.0100     78.3900
     32    -10.6160      0.7350     12.4680      1.5900     78.3900
     33    -11.7060     -0.3410     12.8460      2.1000     78.3900
     34    -11.1710     -1.6960     12.5870      1.5900     78.3900
     35    -12.1730     -0.0720     14.2220      1.5900     78.3900
     36    -12.8690     -0.0580     11.8290      1.5900     78.3900
     37    -13.7020      1.1170     11.9820      1.7700     78.3900
     38    -13.1080      2.0550     11.9060      0.0100     78.3900
     39    -14.1950      1.1210     12.9820      0.0100     78.3900
     40    -14.8060      1.1510     10.9170      1.7700     78.3900
     41    -15.4450      2.0530     11.0380      0.0100     78.3900
     42    -14.2190      1.2140      9.5860      1.5900     78.3900
     43    -15.0160      0.4540      8.6860      1.7700     78.3900
     44    -15.3380      1.1720      7.8950      0.0100     78.3900
     45    -14.2610     -0.6570      8.0400      1.6800     78.3900
     46    -13.1210     -1.1460      8.6330      1.7700     78.3900
     47    -12.8320     -0.6690      9.5690      0.0100     78.3900
     48    -12.3990     -2.1190      8.0630      1.7700     78.3900
     49    -11.4720     -2.4900      8.4970      0.0100     78.3900
     50    -14.7200     -1.2280      6.8550      1.7700     78.3900
     51    -15.7790     -0.8210      6.3550      1.5900     78.3900
     52    -13.9980     -2.2040      6.2600      1.6800     78.3900
     53    -12.8640     -2.6480      6.8260      1.7700     78.3900
     54    -12.1640     -3.5910      6.2070      1.6800     78.3900
     55    -12.4890     -3.9550      5.3300      0.0100     78.3900
     56    -11.3090     -3.9490      6.5800      0.0100     78.3900
     57    -16.2410     -0.0180      9.4450      1.7700     78.3900
     58    -16.5980     -1.0120      9.1020      0.0100     78.3900
     59    -17.2750      0.9440      9.3300      1.5900     78.3900
     60    -17.9420      0.7110      9.9880      0.0100     78.3900
     61    -15.7110     -0.0870     10.8720      1.7700     78.3900
     62    -15.0450     -0.9730     10.9910      0.0100     78.3900
     63    -16.7250      0.0080     11.8970      1.5900     78.3900
     64    -17.2240     -1.2910     12.6360      2.1000     78.3900
     65    -16.0540     -2.1110     13.0210      1.5900     78.3900
     66    -18.1570     -0.9140     13.7190      1.5900     78.3900
     67    -18.0210     -2.0720     11.5440      1.5900     78.3900
     68    -19.2350     -1.5920     10.9390      1.7700     78.3900
     69    -19.1050     -0.5690     10.5290      0.0100     78.3900
     70    -20.0560     -1.5640     11.6900      0.0100     78.3900
     71    -19.6620     -2.4940      9.7720      1.7700     78.3900
     72    -20.6250     -2.1400      9.3360      0.0100     78.3900
     73    -18.6640     -2.4120      8.7160      1.5900     78.3900
     74    -18.4930     -3.6940      8.1270      1.7700     78.3900
     75    -18.7240     -3.5430      7.0470      0.0100     78.3900
     76    -17.1000     -4.2040      8.2590      1.6800     78.3900
     77    -16.3490     -3.8660      9.3570      1.7700     78.3900
     78    -16.8310     -3.2110     10.0760      0.0100     78.3900
     79    -15.0870     -4.2830      9.4990      1.7700     78.3900
     80    -14.4700     -4.0000     10.3500      0.0100     78.3900
     81    -16.5630     -5.0540      7.2940      1.7700     78.3900
     82    -17.2710     -5.3850      6.3310      1.5900     78.3900
     83    -15.2840     -5.4870      7.4170      1.6800     78.3900
     84    -14.5480     -5.1070      8.4730      1.7700     78.3900
     85    -13.2840     -5.5070      8.5550      1.6800     78.3900
     86    -12.9150     -6.0650      7.8080      0.0100     78.3900
     87    -12.7270     -5.3630      9.3700      0.0100     78.3900
     88    -19.5390     -4.6250      8.7250      1.7700     78.3900
     89    -19.1730     -5.6700      8.8260      0.0100     78.3900
     90    -20.7190     -4.5980      7.9390      1.5900     78.3900
     91    -21.3970     -5.1010      8.4160      0.0100     78.3900
     92    -19.7720     -3.9920     10.0940      1.7700     78.3900
     93    -18.9250     -4.2390     10.7740      0.0100     78.3900
     94    -21.0630     -4.2670     10.6820      1.5900     78.3900
     95    -21.2320     -5.5320     11.6060      2.1000     78.3900
     96    -20.0900     -5.5850     12.5430      1.5900     78.3900
     97    -22.5900     -5.4350     12.1930      1.5900     78.3900
     98    -21.1820     -6.7670     10.6340      1.5900     78.3900
     99    -20.8410     -8.0760     11.1620      1.7700     78.3900
    100    -21.7420     -8.5500     11.6110      0.0100     78.3900
    101    -20.0560     -8.0130     11.9550      0.0100     78.3900
    102    -20.2920     -9.0160     10.0750      1.7700     78.3900
    103    -21.1120     -9.3460      9.4030      0.0100     78.3900
    104    -19.3410     -8.2950      9.2330      1.5900     78.3900
    105    -18.2500     -9.1310      8.9150      1.7700     78.3900
    106    -18.1800     -9.1250      7.8040      0.0100     78.3900
    107    -16.9900     -8.6240      9.5210      1.6800     78.3900
    108    -16.9920     -7.8910     10.6850      1.7700     78.3900
    109    -17.9730     -7.7230     11.1360      0.0100     78.3900
    110    -15.8140     -8.8990      8.8650      1.7700     78.3900
    111    -15.7790     -9.5240      7.8210      1.5900     78.3900
    112    -14.6830     -8.4060      9.4650      1.6800     78.3900
    113    -13.8080     -8.6050      9.0090      0.0100     78.3900
    114    -14.6080     -7.6680     10.6240      1.7700     78.3900
    115    -13.5170     -7.2830     11.0440      1.5900     78.3900
    116    -15.8720     -7.4060     11.2410      1.7700     78.3900
    117    -15.8860     -6.8420     12.1700      0.0100     78.3900
    118    -18.6020    -10.5340      9.3850      1.7700     78.3900
    119    -17.7040    -11.0930      9.7320      0.0100     78.3900
    120    -19.2670    -11.2500      8.3510      1.5900     78.3900
    121    -19.8480    -11.8890      8.7950      0.0100     78.3900
    122    -19.5240    -10.2600     10.5640      1.7700     78.3900
    123    -18.9130     -9.9470     11.4460      0.0100     78.3900
    124    -20.4390    -11.3430     10.8530      1.5900     78.3900
    125    -20.2730    -12.2270     12.1470      2.1000     78.3900
    126    -20.0890    -11.3450     13.3190      1.5900     78.3900
    127    -21.3890    -13.1950     12.1990      1.5900     78.3900
    128    -18.9440    -13.0290     11.8840      1.5900     78.3900
    129    -18.2990    -13.7220     12.9870      1.7700     78.3900
    130    -19.0360    -14.2260     13.6550      0.0100     78.3900
    131    -17.7360    -12.9960     13.6160      0.0100     78.3900
    132    -17.3110    -14.7990     12.5000      1.7700     78.3900
    133    -16.7390    -15.2220     13.3540      0.0100     78.3900
    134    -18.0520    -15.8930     11.9000      1.5900     78.3900
    135    -17.3640    -16.3580     10.7460      1.7700     78.3900
    136    -17.2050    -17.4520     10.8890      0.0100     78.3900
    137    -18.1640    -16.1540      9.5330      1.6800     78.3900
    138    -17.9550    -16.7520      8.3170      1.7700     78.3900
    139    -16.1000    -18.8110      6.2290      1.6800     78.3900
    140    -16.1660    -19.1730      5.2980      0.0100     78.3900
    141    -15.3970    -19.1630      6.8470      0.0100     78.3900
    142    -16.9720    -17.6250      8.0190      1.6800     78.3900
    143    -17.0160    -18.0070      6.7380      1.7700     78.3900
    144    -18.0090    -17.6300      5.8730      1.6800     78.3900
    145    -17.9870    -17.9960      4.9340      0.0100     78.3900
    146    -19.0640    -16.7790      6.1750      1.7700     78.3900
    147    -19.9330    -16.4970      5.3440      1.5900     78.3900
    148    -18.9750    -16.2880      7.5040      1.7700     78.3900
    149    -19.7950    -15.3920      8.1890      1.6800     78.3900
    150    -19.2750    -15.3460      9.3930      1.7700     78.3900
    151    -19.6500    -14.7470     10.2280      0.0100     78.3900
    152    -16.0270    -15.6550     10.6780      1.7700     78.3900
    153    -15.6950    -15.4500      9.6340      0.0100     78.3900
    154    -15.0350    -16.4030     11.3580      1.5900     78.3900
    155    -14.2300    -15.8640     11.3420      0.0100     78.3900
    156    -16.3310    -14.3550     11.4040      1.7700     78.3900
    157    -16.9140    -13.6830     10.7340      0.0100     78.3900
    158    -15.1730    -13.7150     11.9920      1.5900     78.3900
    159    -14.3430    -12.7490     11.0670      2.1000     78.3900
    160    -15.3180    -11.9730     10.2660      1.5900     78.3900
    161    -13.4430    -11.9700     11.9460      1.5900     78.3900
    162    -13.4860    -13.7170     10.1650      1.5900     78.3900
    163    -13.0090    -13.2500      8.8780      1.7700     78.3900
    164    -12.3340    -12.3640      8.9920      0.0100     78.3900
    165    -13.8590    -12.9150      8.2450      0.0100     78.3900
    166    -12.2580    -14.3700      8.1190      1.7700     78.3900
    167    -11.4120    -14.7460      8.7300      0.0100     78.3900
    168    -13.1280    -15.5150      7.8600      1.5900     78.3900
    169    -12.9570    -15.9560      6.5110      1.7700     78.3900
    170    -12.8000    -17.0550      6.5730      0.0100     78.3900
    171    -14.1360    -15.6870      5.6400      1.6800     78.3900
    172    -15.2690    -14.9420      5.9000      1.7700     78.3900
    173    -17.0140    -12.9390      8.0750      1.6800     78.3900
    174    -17.8060    -12.3270      8.1140      0.0100     78.3900
    175    -16.3070    -12.8120      8.7780      0.0100     78.3900
    176    -15.5440    -14.2910      7.0350      1.6800     78.3900
    177    -16.6760    -13.6450      7.0190      1.7700     78.3900
    178    -17.5170    -13.6310      5.9330      1.6800     78.3900
    179    -18.3840    -13.1300      5.9960      0.0100     78.3900
    180    -17.2740    -14.3060      4.7320      1.7700     78.3900
    181    -18.0830    -14.2500      3.8020      1.5900     78.3900
    182    -16.0380    -15.0110      4.7590      1.7700     78.3900
    183    -15.4190    -15.7940      3.7910      1.6800     78.3900
    184    -14.2900    -16.1660      4.3550      1.7700     78.3900
    185    -13.5340    -16.7950      3.8760      0.0100     78.3900
    186    -11.7060    -15.2900      5.9770      1.7700     78.3900
    187    -11.7510    -15.0970      4.8810      0.0100     78.3900
    188    -10.5570    -16.0700      6.2720      1.5900     78.3900
    189     -9.7800    -15.4940      6.1740      0.0100     78.3900
    190    -11.7210    -13.9750      6.7370      1.7700     78.3900
    191    -12.4880    -13.3010      6.2810      0.0100     78.3900
    192    -10.4230    -13.3710      6.8710      1.5900     78.3900
    193    -10.0390    -12.1280      6.0040      2.1000     78.3900
    194    -11.0380    -11.0730      6.2810      1.5900     78.3900
    195     -8.6270    -11.8030      6.3050      1.5900     78.3900
    196    -10.1460    -12.6270      4.5120      1.5900     78.3900
    197    -10.7020    -11.7720      3.4870      1.7700     78.3900
    198     -9.9320    -11.0590      3.1200      0.0100     78.3900
    199    -11.5670    -11.1740      3.8580      0.0100     78.3900
    200    -11.1980    -12.6260      2.3050      1.7700     78.3900
    201    -10.4060    -13.3210      1.9590      0.0100     78.3900
    202    -12.3460    -13.4340      2.7080      1.5900     78.3900
    203    -13.3470    -13.4000      1.6970      1.7700     78.3900
    204    -13.6020    -14.4620      1.4940      0.0100     78.3900
    205    -14.5880    -12.6910      2.1020      1.6800     78.3900
    206    -14.8560    -11.9840      3.2550      1.7700     78.3900
    207    -13.8380    -10.8670      6.3500      1.6800     78.3900
    208    -14.2450    -10.3790      7.1190      0.0100     78.3900
    209    -12.8580    -11.1020      6.3420      0.0100     78.3900
    210    -14.0180    -11.7900      4.2830      1.6800     78.3900
    211    -14.5520    -11.1270      5.2750      1.7700     78.3900
    212    -15.8370    -10.6530      5.2530      1.6800     78.3900
    213    -16.1570    -10.1410      6.0570      0.0100     78.3900
    214    -16.7340    -10.8130      4.2050      1.7700     78.3900
    215    -17.8870    -10.3780      4.2570      1.5900     78.3900
    216    -16.1560    -11.5390      3.1280      1.7700     78.3900
    217    -16.7010    -11.9410      1.9140      1.6800     78.3900
    218    -15.7400    -12.6320      1.3470      1.7700     78.3900
    219    -15.8220    -13.1250      0.3740      0.0100     78.3900
    220    -12.7160    -12.7720      0.4770      1.7700     78.3900
    221    -13.4480    -12.2170     -0.1350      0.0100     78.3900
    222    -12.1000    -13.7610     -0.3250      1.5900     78.3900
    223    -11.5170    -13.3080     -0.9540      0.0100     78.3900
    224    -11.6960    -11.8230      1.0990      1.7700     78.3900
    225    -12.2100    -10.9360      1.5330      0.0100     78.3900
    226    -10.5960    -11.4840      0.2250      1.5900     78.3900
    227    -10.5000    -10.0670     -0.4560      2.1000     78.3900
    228    -10.2200     -9.0640      0.5930      1.5900     78.3900
    229     -9.5310    -10.1410     -1.5710      1.5900     78.3900
    230    -11.9300     -9.7680     -1.0300      1.5900     78.3900
    231    -12.4970    -10.4470     -2.1690      1.7700     78.3900
    232    -12.4110    -11.5530     -2.0710      0.0100     78.3900
    233    -11.9620    -10.1480     -3.0970      0.0100     78.3900
    234    -13.9860    -10.0960     -2.3360      1.7700     78.3900
    235    -14.4200    -10.6150     -3.2170      0.0100     78.3900
    236    -14.7270    -10.5450     -1.1620      1.5900     78.3900
    237    -15.6710     -9.5630     -0.7860      1.7700     78.3900
    238    -16.6550    -10.0810     -0.7060      0.0100     78.3900
    239    -15.3370     -8.9780      0.5180      1.6800     78.3900
    240    -15.4800     -7.9960      2.4720      1.7700     78.3900
    241    -14.1690     -8.4300      2.3630      1.6800     78.3900
    242    -14.1360     -9.0000      1.1860      1.7700     78.3900
    243    -13.2600     -9.4650      0.7480      0.0100     78.3900
    244    -17.4720     -7.0280      3.2960      1.6800     78.3900
    245    -18.0300     -7.3830      2.1380      1.7700     78.3900
    246    -19.0860     -7.1190      2.0330      0.0100     78.3900
    247    -17.4950     -8.0460      1.1060      1.6800     78.3900
    248    -16.2060     -8.3230      1.3430      1.7700     78.3900
    249    -16.1660     -7.3240      3.4980      1.7700     78.3900
    250    -15.5750     -6.9710      4.6510      1.6800     78.3900
    251    -14.6170     -7.1790      4.8540      0.0100     78.3900
    252    -16.1120     -6.4700      5.3410      0.0100     78.3900
    253    -15.7240     -8.5400     -1.8940      1.7700     78.3900
    254    -15.9800     -7.5280     -1.5220      0.0100     78.3900
    255    -16.6730     -8.9370     -2.8670      1.5900     78.3900
    256    -16.5230     -8.3950     -3.6550      0.0100     78.3900
    257    -14.3040     -8.5950     -2.4450      1.7700     78.3900
    258    -13.5990     -8.0670     -1.7600      0.0100     78.3900
    259    -14.1810     -8.1600     -3.8180      1.5900     78.3900
    260    -13.8350     -6.6470     -4.1140      2.1000     78.3900
    261    -12.5110     -6.3680     -3.5210      1.5900     78.3900
    262    -13.9900     -6.3940     -5.5610      1.5900     78.3900
    263    -14.9130     -5.8130     -3.3210      1.5900     78.3900
    264    -16.2360     -5.6370     -3.8850      1.7700     78.3900
    265    -16.7530     -6.6140     -4.0160      0.0100     78.3900
    266    -16.1810     -5.1510     -4.8850      0.0100     78.3900
    267    -17.1070     -4.7560     -2.9850      1.7700     78.3900
    268    -18.1190     -4.6240     -3.4250      0.0100     78.3900
    269    -17.3070     -5.4030     -1.6950      1.5900     78.3900
    270    -17.2420     -4.4260     -0.6660      1.7700     78.3900
    271    -18.1610     -4.5460     -0.0480      0.0100     78.3900
    272    -16.0600     -4.6220      0.1880      1.6800     78.3900
    273    -15.8530     -4.0860      1.4330      1.7700     78.3900
    274    -16.8480     -2.0300      4.0340      1.6800     78.3900
    275    -17.7270     -1.6800      3.7200      0.0100     78.3900
    276    -16.4680     -1.6980      4.9010      0.0100     78.3900
    277    -16.6900     -3.2640      2.0940      1.6800     78.3900
    278    -16.1900     -2.8730      3.2640      1.7700     78.3900
    279    -14.9890     -3.3130      3.7520      1.6800     78.3900
    280    -14.6940     -2.9800      4.6570      0.0100     78.3900
    281    -14.1260     -4.1930      3.1190      1.7700     78.3900
    282    -13.0650     -4.5360      3.6500      1.5900     78.3900
    283    -14.6190     -4.5650      1.8370      1.7700     78.3900
    284    -14.0520     -5.3620      0.8510      1.6800     78.3900
    285    -14.9400     -5.3650     -0.1070      1.7700     78.3900
    286    -14.8370     -5.8990     -1.0500      0.0100     78.3900
    287    -17.2440     -3.0660     -1.3350      1.7700     78.3900
    288    -16.6910     -2.3010     -0.7500      0.0100     78.3900
    289    -18.5730     -2.6320     -1.5440      1.5900     78.3900
    290    -18.5360     -1.8490     -2.1110      0.0100     78.3900
    291    -16.5390     -3.3740     -2.6470      1.7700     78.3900
    292    -15.4490     -3.5210     -2.4620      0.0100     78.3900
    293    -16.8280     -2.4450     -3.7190      1.5900     78.3900
    294    -15.7090     -1.4410     -4.1880      2.1000     78.3900
    295    -14.4010     -2.1300     -4.1770      1.5900     78.3900
    296    -16.1140     -0.8160     -5.4670      1.5900     78.3900
    297    -15.7340     -0.3510     -3.0550      1.5900     78.3900
    298    -16.9130      0.4800     -2.9040      1.7700     78.3900
    299    -17.8390     -0.1320     -2.7900      0.0100     78.3900
    300    -17.0410      1.1270     -3.8040      0.0100     78.3900
    301    -16.8020      1.4040     -1.6830      1.7700     78.3900
    302    -17.6560      2.1100     -1.6370      0.0100     78.3900
    303    -16.8490      0.6140     -0.4610      1.5900     78.3900
    304    -15.9310      1.1620      0.4790      1.7700     78.3900
    305    -16.5270      1.3690      1.3980      0.0100     78.3900
    306    -14.8240      0.2180      0.8110      1.6800     78.3900
    307    -14.5180     -0.8210     -0.0390      1.7700     78.3900
    308    -15.1380     -0.9040     -0.9300      0.0100     78.3900
    309    -13.5340     -1.6860      0.2360      1.7700     78.3900
    310    -13.2950     -2.5260     -0.4150      0.0100     78.3900
    311    -14.0720      0.4020      1.9660      1.7700     78.3900
    312    -14.3350      1.3580      2.7110      1.5900     78.3900
    313    -13.0690     -0.4560      2.2590      1.6800     78.3900
    314    -12.7890     -1.4790      1.4320      1.7700     78.3900
    315    -11.8050     -2.3150      1.7550      1.6800     78.3900
    316    -11.3000     -2.1780      2.6110      0.0100     78.3900
    317    -11.5830     -3.1130      1.1980      0.0100     78.3900
    318    -15.4230      2.4830     -0.0850      1.7700     78.3900
    319    -14.3750      2.6930      0.2190      0.0100     78.3900
    320    -16.2680      3.5540      0.3080      1.5900     78.3900
    321    -16.0050      4.3560     -0.1800      0.0100     78.3900
    322    -15.5030      2.2110     -1.5800      1.7700     78.3900
    323    -14.6630      1.5540     -1.8820      0.0100     78.3900
    324    -15.5680      3.3860     -2.4080      1.5900     78.3900
    325    -14.7170      3.8600     -2.3760      0.0100     78.3900

     ----------------------------
     INPUT FOR TESSERA DEFINITION
     ----------------------------
     NTSALL  =        60     MTHALL  =         4
     MTHAUT  =         0     AUTFRE  =    2.0000
     NTSFRZ  =        60     KEEPSM  =         0
     AREAKP  =   10.0000     BONDRY  =    1.0000
     AREATL  =    0.0100

     SPHERE     INITS       METHOD
          1        60       FIXPVA
          2        60       FIXPVA
          3        60       FIXPVA
          4        60       FIXPVA
          5        60       FIXPVA
          6        60       FIXPVA
          7        60       FIXPVA
          8        60       FIXPVA
          9        60       FIXPVA
         10        60       FIXPVA
         11        60       FIXPVA
         12        60       FIXPVA
         13        60       FIXPVA
         14        60       FIXPVA
         15        60       FIXPVA
         16        60       FIXPVA
         17        60       FIXPVA
         18        60       FIXPVA
         19        60       FIXPVA
         20        60       FIXPVA
         21        60       FIXPVA
         22        60       FIXPVA
         23        60       FIXPVA
         24        60       FIXPVA
         25        60       FIXPVA
         26        60       FIXPVA
         27        60       FIXPVA
         28        60       FIXPVA
         29        60       FIXPVA
         30        60       FIXPVA
         31        60       FIXPVA
         32        60       FIXPVA
         33        60       FIXPVA
         34        60       FIXPVA
         35        60       FIXPVA
         36        60       FIXPVA
         37        60       FIXPVA
         38        60       FIXPVA
         39        60       FIXPVA
         40        60       FIXPVA
         41        60       FIXPVA
         42        60       FIXPVA
         43        60       FIXPVA
         44        60       FIXPVA
         45        60       FIXPVA
         46        60       FIXPVA
         47        60       FIXPVA
         48        60       FIXPVA
         49        60       FIXPVA
         50        60       FIXPVA
         51        60       FIXPVA
         52        60       FIXPVA
         53        60       FIXPVA
         54        60       FIXPVA
         55        60       FIXPVA
         56        60       FIXPVA
         57        60       FIXPVA
         58        60       FIXPVA
         59        60       FIXPVA
         60        60       FIXPVA
         61        60       FIXPVA
         62        60       FIXPVA
         63        60       FIXPVA
         64        60       FIXPVA
         65        60       FIXPVA
         66        60       FIXPVA
         67        60       FIXPVA
         68        60       FIXPVA
         69        60       FIXPVA
         70        60       FIXPVA
         71        60       FIXPVA
         72        60       FIXPVA
         73        60       FIXPVA
         74        60       FIXPVA
         75        60       FIXPVA
         76        60       FIXPVA
         77        60       FIXPVA
         78        60       FIXPVA
         79        60       FIXPVA
         80        60       FIXPVA
         81        60       FIXPVA
         82        60       FIXPVA
         83        60       FIXPVA
         84        60       FIXPVA
         85        60       FIXPVA
         86        60       FIXPVA
         87        60       FIXPVA
         88        60       FIXPVA
         89        60       FIXPVA
         90        60       FIXPVA
         91        60       FIXPVA
         92        60       FIXPVA
         93        60       FIXPVA
         94        60       FIXPVA
         95        60       FIXPVA
         96        60       FIXPVA
         97        60       FIXPVA
         98        60       FIXPVA
         99        60       FIXPVA
        100        60       FIXPVA
        101        60       FIXPVA
        102        60       FIXPVA
        103        60       FIXPVA
        104        60       FIXPVA
        105        60       FIXPVA
        106        60       FIXPVA
        107        60       FIXPVA
        108        60       FIXPVA
        109        60       FIXPVA
        110        60       FIXPVA
        111        60       FIXPVA
        112        60       FIXPVA
        113        60       FIXPVA
        114        60       FIXPVA
        115        60       FIXPVA
        116        60       FIXPVA
        117        60       FIXPVA
        118        60       FIXPVA
        119        60       FIXPVA
        120        60       FIXPVA
        121        60       FIXPVA
        122        60       FIXPVA
        123        60       FIXPVA
        124        60       FIXPVA
        125        60       FIXPVA
        126        60       FIXPVA
        127        60       FIXPVA
        128        60       FIXPVA
        129        60       FIXPVA
        130        60       FIXPVA
        131        60       FIXPVA
        132        60       FIXPVA
        133        60       FIXPVA
        134        60       FIXPVA
        135        60       FIXPVA
        136        60       FIXPVA
        137        60       FIXPVA
        138        60       FIXPVA
        139        60       FIXPVA
        140        60       FIXPVA
        141        60       FIXPVA
        142        60       FIXPVA
        143        60       FIXPVA
        144        60       FIXPVA
        145        60       FIXPVA
        146        60       FIXPVA
        147        60       FIXPVA
        148        60       FIXPVA
        149        60       FIXPVA
        150        60       FIXPVA
        151        60       FIXPVA
        152        60       FIXPVA
        153        60       FIXPVA
        154        60       FIXPVA
        155        60       FIXPVA
        156        60       FIXPVA
        157        60       FIXPVA
        158        60       FIXPVA
        159        60       FIXPVA
        160        60       FIXPVA
        161        60       FIXPVA
        162        60       FIXPVA
        163        60       FIXPVA
        164        60       FIXPVA
        165        60       FIXPVA
        166        60       FIXPVA
        167        60       FIXPVA
        168        60       FIXPVA
        169        60       FIXPVA
        170        60       FIXPVA
        171        60       FIXPVA
        172        60       FIXPVA
        173        60       FIXPVA
        174        60       FIXPVA
        175        60       FIXPVA
        176        60       FIXPVA
        177        60       FIXPVA
        178        60       FIXPVA
        179        60       FIXPVA
        180        60       FIXPVA
        181        60       FIXPVA
        182        60       FIXPVA
        183        60       FIXPVA
        184        60       FIXPVA
        185        60       FIXPVA
        186        60       FIXPVA
        187        60       FIXPVA
        188        60       FIXPVA
        189        60       FIXPVA
        190        60       FIXPVA
        191        60       FIXPVA
        192        60       FIXPVA
        193        60       FIXPVA
        194        60       FIXPVA
        195        60       FIXPVA
        196        60       FIXPVA
        197        60       FIXPVA
        198        60       FIXPVA
        199        60       FIXPVA
        200        60       FIXPVA
        201        60       FIXPVA
        202        60       FIXPVA
        203        60       FIXPVA
        204        60       FIXPVA
        205        60       FIXPVA
        206        60       FIXPVA
        207        60       FIXPVA
        208        60       FIXPVA
        209        60       FIXPVA
        210        60       FIXPVA
        211        60       FIXPVA
        212        60       FIXPVA
        213        60       FIXPVA
        214        60       FIXPVA
        215        60       FIXPVA
        216        60       FIXPVA
        217        60       FIXPVA
        218        60       FIXPVA
        219        60       FIXPVA
        220        60       FIXPVA
        221        60       FIXPVA
        222        60       FIXPVA
        223        60       FIXPVA
        224        60       FIXPVA
        225        60       FIXPVA
        226        60       FIXPVA
        227        60       FIXPVA
        228        60       FIXPVA
        229        60       FIXPVA
        230        60       FIXPVA
        231        60       FIXPVA
        232        60       FIXPVA
        233        60       FIXPVA
        234        60       FIXPVA
        235        60       FIXPVA
        236        60       FIXPVA
        237        60       FIXPVA
        238        60       FIXPVA
        239        60       FIXPVA
        240        60       FIXPVA
        241        60       FIXPVA
        242        60       FIXPVA
        243        60       FIXPVA
        244        60       FIXPVA
        245        60       FIXPVA
        246        60       FIXPVA
        247        60       FIXPVA
        248        60       FIXPVA
        249        60       FIXPVA
        250        60       FIXPVA
        251        60       FIXPVA
        252        60       FIXPVA
        253        60       FIXPVA
        254        60       FIXPVA
        255        60       FIXPVA
        256        60       FIXPVA
        257        60       FIXPVA
        258        60       FIXPVA
        259        60       FIXPVA
        260        60       FIXPVA
        261        60       FIXPVA
        262        60       FIXPVA
        263        60       FIXPVA
        264        60       FIXPVA
        265        60       FIXPVA
        266        60       FIXPVA
        267        60       FIXPVA
        268        60       FIXPVA
        269        60       FIXPVA
        270        60       FIXPVA
        271        60       FIXPVA
        272        60       FIXPVA
        273        60       FIXPVA
        274        60       FIXPVA
        275        60       FIXPVA
        276        60       FIXPVA
        277        60       FIXPVA
        278        60       FIXPVA
        279        60       FIXPVA
        280        60       FIXPVA
        281        60       FIXPVA
        282        60       FIXPVA
        283        60       FIXPVA
        284        60       FIXPVA
        285        60       FIXPVA
        286        60       FIXPVA
        287        60       FIXPVA
        288        60       FIXPVA
        289        60       FIXPVA
        290        60       FIXPVA
        291        60       FIXPVA
        292        60       FIXPVA
        293        60       FIXPVA
        294        60       FIXPVA
        295        60       FIXPVA
        296        60       FIXPVA
        297        60       FIXPVA
        298        60       FIXPVA
        299        60       FIXPVA
        300        60       FIXPVA
        301        60       FIXPVA
        302        60       FIXPVA
        303        60       FIXPVA
        304        60       FIXPVA
        305        60       FIXPVA
        306        60       FIXPVA
        307        60       FIXPVA
        308        60       FIXPVA
        309        60       FIXPVA
        310        60       FIXPVA
        311        60       FIXPVA
        312        60       FIXPVA
        313        60       FIXPVA
        314        60       FIXPVA
        315        60       FIXPVA
        316        60       FIXPVA
        317        60       FIXPVA
        318        60       FIXPVA
        319        60       FIXPVA
        320        60       FIXPVA
        321        60       FIXPVA
        322        60       FIXPVA
        323        60       FIXPVA
        324        60       FIXPVA
        325        60       FIXPVA

     ------------------------------
      FIXPVA TESSELLATION FOR PCM
         PEIFENG SU AND HUI LI
     UNIVERSITY OF NEBRASKA-LINCOLN
     ------------------------------


 PCM DIMENSIONS: MXSP=   325, MXTS=     13000, MEMORY=        133578

     INPUT FOR CAVITY DEFINITION 
     ---------------------------
   ATOM               COORDINATES                RADIUS       EPS
      1     -6.6130     -1.2710     11.5160      0.0100     78.3900
      2     -7.3310     -0.7800     11.0680      1.5900     78.3900
      3     -7.4760      0.4690     11.7600      1.7700     78.3900
      4     -6.5220      1.0400     11.6900      0.0100     78.3900
      5     -7.6720      0.2630     12.8350      0.0100     78.3900
      6     -8.6100      1.3360     11.2020      1.7700     78.3900
      7     -8.7020      2.2880     11.7650      0.0100     78.3900
      8     -8.3340      1.6740      9.8100      1.5900     78.3900
      9     -9.5460      1.6480      9.0720      1.7700     78.3900
     10     -9.6480      2.6470      8.5890      0.0100     78.3900
     11     -9.5170      0.6180      8.0250      1.6800     78.3900
     12    -10.3430      0.5520      6.9370      1.7700     78.3900
     13    -12.9660      1.8350      5.0840      1.6800     78.3900
     14    -13.2630      2.6110      5.6350      0.0100     78.3900
     15    -13.4480      1.6320      4.2270      0.0100     78.3900
     16    -11.3440      1.4030      6.6580      1.6800     78.3900
     17    -11.9540      1.1080      5.5120      1.7700     78.3900
     18    -11.5820      0.0600      4.7120      1.6800     78.3900
     19    -12.0870     -0.0820      3.8520      0.0100     78.3900
     20    -10.5440     -0.8280      4.9670      1.7700     78.3900
     21    -10.2670     -1.7430      4.1850      1.5900     78.3900
     22     -9.9080     -0.5370      6.2040      1.7700     78.3900
     23     -8.8450     -1.1680      6.8390      1.6800     78.3900
     24     -8.6530     -0.4510      7.9240      1.7700     78.3900
     25     -7.8920     -0.6380      8.6850      0.0100     78.3900
     26    -10.6730      1.4470     10.0580      1.7700     78.3900
     27    -11.5290      0.8900      9.6240      0.0100     78.3900
     28    -11.1120      2.7020     10.5320      1.5900     78.3900
     29    -11.7060      2.5080     11.2670      0.0100     78.3900
     30     -9.9850      0.6550     11.1650      1.7700     78.3900
     31     -9.8000     -0.3910     10.8350      0.0100     78.3900
     32    -10.6160      0.7350     12.4680      1.5900     78.3900
     33    -11.7060     -0.3410     12.8460      2.1000     78.3900
     34    -11.1710     -1.6960     12.5870      1.5900     78.3900
     35    -12.1730     -0.0720     14.2220      1.5900     78.3900
     36    -12.8690     -0.0580     11.8290      1.5900     78.3900
     37    -13.7020      1.1170     11.9820      1.7700     78.3900
     38    -13.1080      2.0550     11.9060      0.0100     78.3900
     39    -14.1950      1.1210     12.9820      0.0100     78.3900
     40    -14.8060      1.1510     10.9170      1.7700     78.3900
     41    -15.4450      2.0530     11.0380      0.0100     78.3900
     42    -14.2190      1.2140      9.5860      1.5900     78.3900
     43    -15.0160      0.4540      8.6860      1.7700     78.3900
     44    -15.3380      1.1720      7.8950      0.0100     78.3900
     45    -14.2610     -0.6570      8.0400      1.6800     78.3900
     46    -13.1210     -1.1460      8.6330      1.7700     78.3900
     47    -12.8320     -0.6690      9.5690      0.0100     78.3900
     48    -12.3990     -2.1190      8.0630      1.7700     78.3900
     49    -11.4720     -2.4900      8.4970      0.0100     78.3900
     50    -14.7200     -1.2280      6.8550      1.7700     78.3900
     51    -15.7790     -0.8210      6.3550      1.5900     78.3900
     52    -13.9980     -2.2040      6.2600      1.6800     78.3900
     53    -12.8640     -2.6480      6.8260      1.7700     78.3900
     54    -12.1640     -3.5910      6.2070      1.6800     78.3900
     55    -12.4890     -3.9550      5.3300      0.0100     78.3900
     56    -11.3090     -3.9490      6.5800      0.0100     78.3900
     57    -16.2410     -0.0180      9.4450      1.7700     78.3900
     58    -16.5980     -1.0120      9.1020      0.0100     78.3900
     59    -17.2750      0.9440      9.3300      1.5900     78.3900
     60    -17.9420      0.7110      9.9880      0.0100     78.3900
     61    -15.7110     -0.0870     10.8720      1.7700     78.3900
     62    -15.0450     -0.9730     10.9910      0.0100     78.3900
     63    -16.7250      0.0080     11.8970      1.5900     78.3900
     64    -17.2240     -1.2910     12.6360      2.1000     78.3900
     65    -16.0540     -2.1110     13.0210      1.5900     78.3900
     66    -18.1570     -0.9140     13.7190      1.5900     78.3900
     67    -18.0210     -2.0720     11.5440      1.5900     78.3900
     68    -19.2350     -1.5920     10.9390      1.7700     78.3900
     69    -19.1050     -0.5690     10.5290      0.0100     78.3900
     70    -20.0560     -1.5640     11.6900      0.0100     78.3900
     71    -19.6620     -2.4940      9.7720      1.7700     78.3900
     72    -20.6250     -2.1400      9.3360      0.0100     78.3900
     73    -18.6640     -2.4120      8.7160      1.5900     78.3900
     74    -18.4930     -3.6940      8.1270      1.7700     78.3900
     75    -18.7240     -3.5430      7.0470      0.0100     78.3900
     76    -17.1000     -4.2040      8.2590      1.6800     78.3900
     77    -16.3490     -3.8660      9.3570      1.7700     78.3900
     78    -16.8310     -3.2110     10.0760      0.0100     78.3900
     79    -15.0870     -4.2830      9.4990      1.7700     78.3900
     80    -14.4700     -4.0000     10.3500      0.0100     78.3900
     81    -16.5630     -5.0540      7.2940      1.7700     78.3900
     82    -17.2710     -5.3850      6.3310      1.5900     78.3900
     83    -15.2840     -5.4870      7.4170      1.6800     78.3900
     84    -14.5480     -5.1070      8.4730      1.7700     78.3900
     85    -13.2840     -5.5070      8.5550      1.6800     78.3900
     86    -12.9150     -6.0650      7.8080      0.0100     78.3900
     87    -12.7270     -5.3630      9.3700      0.0100     78.3900
     88    -19.5390     -4.6250      8.7250      1.7700     78.3900
     89    -19.1730     -5.6700      8.8260      0.0100     78.3900
     90    -20.7190     -4.5980      7.9390      1.5900     78.3900
     91    -21.3970     -5.1010      8.4160      0.0100     78.3900
     92    -19.7720     -3.9920     10.0940      1.7700     78.3900
     93    -18.9250     -4.2390     10.7740      0.0100     78.3900
     94    -21.0630     -4.2670     10.6820      1.5900     78.3900
     95    -21.2320     -5.5320     11.6060      2.1000     78.3900
     96    -20.0900     -5.5850     12.5430      1.5900     78.3900
     97    -22.5900     -5.4350     12.1930      1.5900     78.3900
     98    -21.1820     -6.7670     10.6340      1.5900     78.3900
     99    -20.8410     -8.0760     11.1620      1.7700     78.3900
    100    -21.7420     -8.5500     11.6110      0.0100     78.3900
    101    -20.0560     -8.0130     11.9550      0.0100     78.3900
    102    -20.2920     -9.0160     10.0750      1.7700     78.3900
    103    -21.1120     -9.3460      9.4030      0.0100     78.3900
    104    -19.3410     -8.2950      9.2330      1.5900     78.3900
    105    -18.2500     -9.1310      8.9150      1.7700     78.3900
    106    -18.1800     -9.1250      7.8040      0.0100     78.3900
    107    -16.9900     -8.6240      9.5210      1.6800     78.3900
    108    -16.9920     -7.8910     10.6850      1.7700     78.3900
    109    -17.9730     -7.7230     11.1360      0.0100     78.3900
    110    -15.8140     -8.8990      8.8650      1.7700     78.3900
    111    -15.7790     -9.5240      7.8210      1.5900     78.3900
    112    -14.6830     -8.4060      9.4650      1.6800     78.3900
    113    -13.8080     -8.6050      9.0090      0.0100     78.3900
    114    -14.6080     -7.6680     10.6240      1.7700     78.3900
    115    -13.5170     -7.2830     11.0440      1.5900     78.3900
    116    -15.8720     -7.4060     11.2410      1.7700     78.3900
    117    -15.8860     -6.8420     12.1700      0.0100     78.3900
    118    -18.6020    -10.5340      9.3850      1.7700     78.3900
    119    -17.7040    -11.0930      9.7320      0.0100     78.3900
    120    -19.2670    -11.2500      8.3510      1.5900     78.3900
    121    -19.8480    -11.8890      8.7950      0.0100     78.3900
    122    -19.5240    -10.2600     10.5640      1.7700     78.3900
    123    -18.9130     -9.9470     11.4460      0.0100     78.3900
    124    -20.4390    -11.3430     10.8530      1.5900     78.3900
    125    -20.2730    -12.2270     12.1470      2.1000     78.3900
    126    -20.0890    -11.3450     13.3190      1.5900     78.3900
    127    -21.3890    -13.1950     12.1990      1.5900     78.3900
    128    -18.9440    -13.0290     11.8840      1.5900     78.3900
    129    -18.2990    -13.7220     12.9870      1.7700     78.3900
    130    -19.0360    -14.2260     13.6550      0.0100     78.3900
    131    -17.7360    -12.9960     13.6160      0.0100     78.3900
    132    -17.3110    -14.7990     12.5000      1.7700     78.3900
    133    -16.7390    -15.2220     13.3540      0.0100     78.3900
    134    -18.0520    -15.8930     11.9000      1.5900     78.3900
    135    -17.3640    -16.3580     10.7460      1.7700     78.3900
    136    -17.2050    -17.4520     10.8890      0.0100     78.3900
    137    -18.1640    -16.1540      9.5330      1.6800     78.3900
    138    -17.9550    -16.7520      8.3170      1.7700     78.3900
    139    -16.1000    -18.8110      6.2290      1.6800     78.3900
    140    -16.1660    -19.1730      5.2980      0.0100     78.3900
    141    -15.3970    -19.1630      6.8470      0.0100     78.3900
    142    -16.9720    -17.6250      8.0190      1.6800     78.3900
    143    -17.0160    -18.0070      6.7380      1.7700     78.3900
    144    -18.0090    -17.6300      5.8730      1.6800     78.3900
    145    -17.9870    -17.9960      4.9340      0.0100     78.3900
    146    -19.0640    -16.7790      6.1750      1.7700     78.3900
    147    -19.9330    -16.4970      5.3440      1.5900     78.3900
    148    -18.9750    -16.2880      7.5040      1.7700     78.3900
    149    -19.7950    -15.3920      8.1890      1.6800     78.3900
    150    -19.2750    -15.3460      9.3930      1.7700     78.3900
    151    -19.6500    -14.7470     10.2280      0.0100     78.3900
    152    -16.0270    -15.6550     10.6780      1.7700     78.3900
    153    -15.6950    -15.4500      9.6340      0.0100     78.3900
    154    -15.0350    -16.4030     11.3580      1.5900     78.3900
    155    -14.2300    -15.8640     11.3420      0.0100     78.3900
    156    -16.3310    -14.3550     11.4040      1.7700     78.3900
    157    -16.9140    -13.6830     10.7340      0.0100     78.3900
    158    -15.1730    -13.7150     11.9920      1.5900     78.3900
    159    -14.3430    -12.7490     11.0670      2.1000     78.3900
    160    -15.3180    -11.9730     10.2660      1.5900     78.3900
    161    -13.4430    -11.9700     11.9460      1.5900     78.3900
    162    -13.4860    -13.7170     10.1650      1.5900     78.3900
    163    -13.0090    -13.2500      8.8780      1.7700     78.3900
    164    -12.3340    -12.3640      8.9920      0.0100     78.3900
    165    -13.8590    -12.9150      8.2450      0.0100     78.3900
    166    -12.2580    -14.3700      8.1190      1.7700     78.3900
    167    -11.4120    -14.7460      8.7300      0.0100     78.3900
    168    -13.1280    -15.5150      7.8600      1.5900     78.3900
    169    -12.9570    -15.9560      6.5110      1.7700     78.3900
    170    -12.8000    -17.0550      6.5730      0.0100     78.3900
    171    -14.1360    -15.6870      5.6400      1.6800     78.3900
    172    -15.2690    -14.9420      5.9000      1.7700     78.3900
    173    -17.0140    -12.9390      8.0750      1.6800     78.3900
    174    -17.8060    -12.3270      8.1140      0.0100     78.3900
    175    -16.3070    -12.8120      8.7780      0.0100     78.3900
    176    -15.5440    -14.2910      7.0350      1.6800     78.3900
    177    -16.6760    -13.6450      7.0190      1.7700     78.3900
    178    -17.5170    -13.6310      5.9330      1.6800     78.3900
    179    -18.3840    -13.1300      5.9960      0.0100     78.3900
    180    -17.2740    -14.3060      4.7320      1.7700     78.3900
    181    -18.0830    -14.2500      3.8020      1.5900     78.3900
    182    -16.0380    -15.0110      4.7590      1.7700     78.3900
    183    -15.4190    -15.7940      3.7910      1.6800     78.3900
    184    -14.2900    -16.1660      4.3550      1.7700     78.3900
    185    -13.5340    -16.7950      3.8760      0.0100     78.3900
    186    -11.7060    -15.2900      5.9770      1.7700     78.3900
    187    -11.7510    -15.0970      4.8810      0.0100     78.3900
    188    -10.5570    -16.0700      6.2720      1.5900     78.3900
    189     -9.7800    -15.4940      6.1740      0.0100     78.3900
    190    -11.7210    -13.9750      6.7370      1.7700     78.3900
    191    -12.4880    -13.3010      6.2810      0.0100     78.3900
    192    -10.4230    -13.3710      6.8710      1.5900     78.3900
    193    -10.0390    -12.1280      6.0040      2.1000     78.3900
    194    -11.0380    -11.0730      6.2810      1.5900     78.3900
    195     -8.6270    -11.8030      6.3050      1.5900     78.3900
    196    -10.1460    -12.6270      4.5120      1.5900     78.3900
    197    -10.7020    -11.7720      3.4870      1.7700     78.3900
    198     -9.9320    -11.0590      3.1200      0.0100     78.3900
    199    -11.5670    -11.1740      3.8580      0.0100     78.3900
    200    -11.1980    -12.6260      2.3050      1.7700     78.3900
    201    -10.4060    -13.3210      1.9590      0.0100     78.3900
    202    -12.3460    -13.4340      2.7080      1.5900     78.3900
    203    -13.3470    -13.4000      1.6970      1.7700     78.3900
    204    -13.6020    -14.4620      1.4940      0.0100     78.3900
    205    -14.5880    -12.6910      2.1020      1.6800     78.3900
    206    -14.8560    -11.9840      3.2550      1.7700     78.3900
    207    -13.8380    -10.8670      6.3500      1.6800     78.3900
    208    -14.2450    -10.3790      7.1190      0.0100     78.3900
    209    -12.8580    -11.1020      6.3420      0.0100     78.3900
    210    -14.0180    -11.7900      4.2830      1.6800     78.3900
    211    -14.5520    -11.1270      5.2750      1.7700     78.3900
    212    -15.8370    -10.6530      5.2530      1.6800     78.3900
    213    -16.1570    -10.1410      6.0570      0.0100     78.3900
    214    -16.7340    -10.8130      4.2050      1.7700     78.3900
    215    -17.8870    -10.3780      4.2570      1.5900     78.3900
    216    -16.1560    -11.5390      3.1280      1.7700     78.3900
    217    -16.7010    -11.9410      1.9140      1.6800     78.3900
    218    -15.7400    -12.6320      1.3470      1.7700     78.3900
    219    -15.8220    -13.1250      0.3740      0.0100     78.3900
    220    -12.7160    -12.7720      0.4770      1.7700     78.3900
    221    -13.4480    -12.2170     -0.1350      0.0100     78.3900
    222    -12.1000    -13.7610     -0.3250      1.5900     78.3900
    223    -11.5170    -13.3080     -0.9540      0.0100     78.3900
    224    -11.6960    -11.8230      1.0990      1.7700     78.3900
    225    -12.2100    -10.9360      1.5330      0.0100     78.3900
    226    -10.5960    -11.4840      0.2250      1.5900     78.3900
    227    -10.5000    -10.0670     -0.4560      2.1000     78.3900
    228    -10.2200     -9.0640      0.5930      1.5900     78.3900
    229     -9.5310    -10.1410     -1.5710      1.5900     78.3900
    230    -11.9300     -9.7680     -1.0300      1.5900     78.3900
    231    -12.4970    -10.4470     -2.1690      1.7700     78.3900
    232    -12.4110    -11.5530     -2.0710      0.0100     78.3900
    233    -11.9620    -10.1480     -3.0970      0.0100     78.3900
    234    -13.9860    -10.0960     -2.3360      1.7700     78.3900
    235    -14.4200    -10.6150     -3.2170      0.0100     78.3900
    236    -14.7270    -10.5450     -1.1620      1.5900     78.3900
    237    -15.6710     -9.5630     -0.7860      1.7700     78.3900
    238    -16.6550    -10.0810     -0.7060      0.0100     78.3900
    239    -15.3370     -8.9780      0.5180      1.6800     78.3900
    240    -15.4800     -7.9960      2.4720      1.7700     78.3900
    241    -14.1690     -8.4300      2.3630      1.6800     78.3900
    242    -14.1360     -9.0000      1.1860      1.7700     78.3900
    243    -13.2600     -9.4650      0.7480      0.0100     78.3900
    244    -17.4720     -7.0280      3.2960      1.6800     78.3900
    245    -18.0300     -7.3830      2.1380      1.7700     78.3900
    246    -19.0860     -7.1190      2.0330      0.0100     78.3900
    247    -17.4950     -8.0460      1.1060      1.6800     78.3900
    248    -16.2060     -8.3230      1.3430      1.7700     78.3900
    249    -16.1660     -7.3240      3.4980      1.7700     78.3900
    250    -15.5750     -6.9710      4.6510      1.6800     78.3900
    251    -14.6170     -7.1790      4.8540      0.0100     78.3900
    252    -16.1120     -6.4700      5.3410      0.0100     78.3900
    253    -15.7240     -8.5400     -1.8940      1.7700     78.3900
    254    -15.9800     -7.5280     -1.5220      0.0100     78.3900
    255    -16.6730     -8.9370     -2.8670      1.5900     78.3900
    256    -16.5230     -8.3950     -3.6550      0.0100     78.3900
    257    -14.3040     -8.5950     -2.4450      1.7700     78.3900
    258    -13.5990     -8.0670     -1.7600      0.0100     78.3900
    259    -14.1810     -8.1600     -3.8180      1.5900     78.3900
    260    -13.8350     -6.6470     -4.1140      2.1000     78.3900
    261    -12.5110     -6.3680     -3.5210      1.5900     78.3900
    262    -13.9900     -6.3940     -5.5610      1.5900     78.3900
    263    -14.9130     -5.8130     -3.3210      1.5900     78.3900
    264    -16.2360     -5.6370     -3.8850      1.7700     78.3900
    265    -16.7530     -6.6140     -4.0160      0.0100     78.3900
    266    -16.1810     -5.1510     -4.8850      0.0100     78.3900
    267    -17.1070     -4.7560     -2.9850      1.7700     78.3900
    268    -18.1190     -4.6240     -3.4250      0.0100     78.3900
    269    -17.3070     -5.4030     -1.6950      1.5900     78.3900
    270    -17.2420     -4.4260     -0.6660      1.7700     78.3900
    271    -18.1610     -4.5460     -0.0480      0.0100     78.3900
    272    -16.0600     -4.6220      0.1880      1.6800     78.3900
    273    -15.8530     -4.0860      1.4330      1.7700     78.3900
    274    -16.8480     -2.0300      4.0340      1.6800     78.3900
    275    -17.7270     -1.6800      3.7200      0.0100     78.3900
    276    -16.4680     -1.6980      4.9010      0.0100     78.3900
    277    -16.6900     -3.2640      2.0940      1.6800     78.3900
    278    -16.1900     -2.8730      3.2640      1.7700     78.3900
    279    -14.9890     -3.3130      3.7520      1.6800     78.3900
    280    -14.6940     -2.9800      4.6570      0.0100     78.3900
    281    -14.1260     -4.1930      3.1190      1.7700     78.3900
    282    -13.0650     -4.5360      3.6500      1.5900     78.3900
    283    -14.6190     -4.5650      1.8370      1.7700     78.3900
    284    -14.0520     -5.3620      0.8510      1.6800     78.3900
    285    -14.9400     -5.3650     -0.1070      1.7700     78.3900
    286    -14.8370     -5.8990     -1.0500      0.0100     78.3900
    287    -17.2440     -3.0660     -1.3350      1.7700     78.3900
    288    -16.6910     -2.3010     -0.7500      0.0100     78.3900
    289    -18.5730     -2.6320     -1.5440      1.5900     78.3900
    290    -18.5360     -1.8490     -2.1110      0.0100     78.3900
    291    -16.5390     -3.3740     -2.6470      1.7700     78.3900
    292    -15.4490     -3.5210     -2.4620      0.0100     78.3900
    293    -16.8280     -2.4450     -3.7190      1.5900     78.3900
    294    -15.7090     -1.4410     -4.1880      2.1000     78.3900
    295    -14.4010     -2.1300     -4.1770      1.5900     78.3900
    296    -16.1140     -0.8160     -5.4670      1.5900     78.3900
    297    -15.7340     -0.3510     -3.0550      1.5900     78.3900
    298    -16.9130      0.4800     -2.9040      1.7700     78.3900
    299    -17.8390     -0.1320     -2.7900      0.0100     78.3900
    300    -17.0410      1.1270     -3.8040      0.0100     78.3900
    301    -16.8020      1.4040     -1.6830      1.7700     78.3900
    302    -17.6560      2.1100     -1.6370      0.0100     78.3900
    303    -16.8490      0.6140     -0.4610      1.5900     78.3900
    304    -15.9310      1.1620      0.4790      1.7700     78.3900
    305    -16.5270      1.3690      1.3980      0.0100     78.3900
    306    -14.8240      0.2180      0.8110      1.6800     78.3900
    307    -14.5180     -0.8210     -0.0390      1.7700     78.3900
    308    -15.1380     -0.9040     -0.9300      0.0100     78.3900
    309    -13.5340     -1.6860      0.2360      1.7700     78.3900
    310    -13.2950     -2.5260     -0.4150      0.0100     78.3900
    311    -14.0720      0.4020      1.9660      1.7700     78.3900
    312    -14.3350      1.3580      2.7110      1.5900     78.3900
    313    -13.0690     -0.4560      2.2590      1.6800     78.3900
    314    -12.7890     -1.4790      1.4320      1.7700     78.3900
    315    -11.8050     -2.3150      1.7550      1.6800     78.3900
    316    -11.3000     -2.1780      2.6110      0.0100     78.3900
    317    -11.5830     -3.1130      1.1980      0.0100     78.3900
    318    -15.4230      2.4830     -0.0850      1.7700     78.3900
    319    -14.3750      2.6930      0.2190      0.0100     78.3900
    320    -16.2680      3.5540      0.3080      1.5900     78.3900
    321    -16.0050      4.3560     -0.1800      0.0100     78.3900
    322    -15.5030      2.2110     -1.5800      1.7700     78.3900
    323    -14.6630      1.5540     -1.8820      0.0100     78.3900
    324    -15.5680      3.3860     -2.4080      1.5900     78.3900
    325    -14.7170      3.8600     -2.3760      0.0100     78.3900

 CREATION OF A NEW CAVITY WITH THE ORIGINAL SPHERE
 SIZES FOR THE COMPUTATION OF THE CAVITATION ENERGY.

     INPUT FOR CAVITY DEFINITION 
     ---------------------------
   ATOM               COORDINATES                RADIUS       EPS
      1     -6.6130     -1.2710     11.5160      0.0100     78.3900
      2     -7.3310     -0.7800     11.0680      1.5900     78.3900
      3     -7.4760      0.4690     11.7600      1.7700     78.3900
      4     -6.5220      1.0400     11.6900      0.0100     78.3900
      5     -7.6720      0.2630     12.8350      0.0100     78.3900
      6     -8.6100      1.3360     11.2020      1.7700     78.3900
      7     -8.7020      2.2880     11.7650      0.0100     78.3900
      8     -8.3340      1.6740      9.8100      1.5900     78.3900
      9     -9.5460      1.6480      9.0720      1.7700     78.3900
     10     -9.6480      2.6470      8.5890      0.0100     78.3900
     11     -9.5170      0.6180      8.0250      1.6800     78.3900
     12    -10.3430      0.5520      6.9370      1.7700     78.3900
     13    -12.9660      1.8350      5.0840      1.6800     78.3900
     14    -13.2630      2.6110      5.6350      0.0100     78.3900
     15    -13.4480      1.6320      4.2270      0.0100     78.3900
     16    -11.3440      1.4030      6.6580      1.6800     78.3900
     17    -11.9540      1.1080      5.5120      1.7700     78.3900
     18    -11.5820      0.0600      4.7120      1.6800     78.3900
     19    -12.0870     -0.0820      3.8520      0.0100     78.3900
     20    -10.5440     -0.8280      4.9670      1.7700     78.3900
     21    -10.2670     -1.7430      4.1850      1.5900     78.3900
     22     -9.9080     -0.5370      6.2040      1.7700     78.3900
     23     -8.8450     -1.1680      6.8390      1.6800     78.3900
     24     -8.6530     -0.4510      7.9240      1.7700     78.3900
     25     -7.8920     -0.6380      8.6850      0.0100     78.3900
     26    -10.6730      1.4470     10.0580      1.7700     78.3900
     27    -11.5290      0.8900      9.6240      0.0100     78.3900
     28    -11.1120      2.7020     10.5320      1.5900     78.3900
     29    -11.7060      2.5080     11.2670      0.0100     78.3900
     30     -9.9850      0.6550     11.1650      1.7700     78.3900
     31     -9.8000     -0.3910     10.8350      0.0100     78.3900
     32    -10.6160      0.7350     12.4680      1.5900     78.3900
     33    -11.7060     -0.3410     12.8460      2.1000     78.3900
     34    -11.1710     -1.6960     12.5870      1.5900     78.3900
     35    -12.1730     -0.0720     14.2220      1.5900     78.3900
     36    -12.8690     -0.0580     11.8290      1.5900     78.3900
     37    -13.7020      1.1170     11.9820      1.7700     78.3900
     38    -13.1080      2.0550     11.9060      0.0100     78.3900
     39    -14.1950      1.1210     12.9820      0.0100     78.3900
     40    -14.8060      1.1510     10.9170      1.7700     78.3900
     41    -15.4450      2.0530     11.0380      0.0100     78.3900
     42    -14.2190      1.2140      9.5860      1.5900     78.3900
     43    -15.0160      0.4540      8.6860      1.7700     78.3900
     44    -15.3380      1.1720      7.8950      0.0100     78.3900
     45    -14.2610     -0.6570      8.0400      1.6800     78.3900
     46    -13.1210     -1.1460      8.6330      1.7700     78.3900
[...]
   273    9   6.0   0.00    0.0    0.000000    0.717012    0.720276
   274    9   7.0  12.94   25.3   -0.077691   -0.976763   -1.053105
   275    9   1.0   0.00    0.0    0.000000    0.441584    0.435570
   276    9   1.0   0.00    0.0    0.000000    0.476599    0.517825
   277    9   7.0   5.80   11.4    0.094130   -0.762120   -0.765055
   278    9   6.0   0.13    0.2    0.002346    0.989816    0.987220
   279    9   7.0   0.01    0.0    0.001208   -0.929756   -1.017859
   280    9   1.0   0.00    0.0    0.000000    0.484665    0.544179
   281    9   6.0   0.00    0.0    0.000000    0.899338    0.908472
   282    9   8.0   8.29   18.1    0.149513   -0.770327   -0.754493
   283    9   6.0   0.00    0.0    0.000000   -0.065146   -0.057916
   284    9   7.0   6.87   13.4    0.132339   -0.589937   -0.594685
   285    9   6.0   2.20    3.9    0.008983    0.280741    0.267300
   286    9   1.0   0.00    0.0    0.000000    0.258395    0.288801
   287    9   6.0   0.00    0.0   -0.000165    0.142112    0.116345
   288    9   1.0   0.00    0.0    0.000000    0.190085    0.217191
   289    9   8.0  16.83   36.8    0.080371   -0.825232   -0.842353
   290    9   1.0   0.00    0.0    0.000000    0.495504    0.516873
   291    9   6.0   0.96    1.7   -0.018610    0.134545    0.102905
   292    9   1.0   0.00    0.0    0.000000    0.254498    0.259138
   293    9   8.0   4.79   10.5    0.056490   -0.801043   -0.807952
   294    9  15.0   5.93    7.4    0.074825    1.608632    1.658988
   295    9   8.0  11.46   25.0    0.305697   -0.889735   -0.884972
   296    9   8.0  18.49   40.4    0.385698   -0.894699   -0.889873
   297    9   8.0   1.95    4.3    0.035459   -0.971971   -0.786818
   298   10   6.0  11.96   21.1   -0.087226    0.181226   -0.024873
   299   10   1.0   0.00    0.0    0.000000    0.180824    0.181622
   300   10   1.0   0.00    0.0    0.000000    0.237858    0.222469
   301   10   6.0   7.01   12.4   -0.045253    0.094970    0.147460
   302   10   1.0   0.00    0.0    0.000000    0.251386    0.224221
   303   10   8.0   5.04   11.0    0.056372   -0.729682   -0.737453
   304   10   6.0   6.23   11.0   -0.046067    0.417654    0.416590
   305   10   1.0   0.00    0.0    0.000000    0.254267    0.248500
   306   10   7.0   0.00    0.0    0.000000   -0.826507   -0.834690
   307   10   6.0   2.46    4.3   -0.003753    0.196900    0.178717
   308   10   1.0   0.00    0.0    0.000000    0.304377    0.327366
   309   10   6.0   6.80   12.0   -0.031930   -0.392300   -0.405267
   310   10   1.0   0.00    0.0    0.000000    0.270894    0.279094
   311   10   6.0   2.83    5.0   -0.004027    1.068440    1.075629
   312   10   8.0  10.02   21.9    0.145337   -0.801684   -0.769057
   313   10   7.0   2.38    4.7    0.023490   -0.869614   -0.865167
   314   10   6.0   1.15    2.0   -0.001434    0.721922    0.730574
   315   10   7.0  14.23   27.9   -0.075701   -0.946423   -0.995809
   316   10   1.0   0.00    0.0    0.000000    0.464013    0.499501
   317   10   1.0   0.00    0.0    0.000000    0.448143    0.448830
   318   10   6.0   7.01   12.4   -0.058861    0.120011    0.120854
   319   10   1.0   0.00    0.0    0.000000    0.227584    0.226572
   320   10   8.0  21.43   46.8    0.035974   -0.842792   -0.844470
   321   10   1.0   0.00    0.0    0.000000    0.507993    0.508848
   322   10   6.0   7.28   12.8   -0.058398    0.165609    0.149081
   323   10   1.0   0.00    0.0    0.000000    0.220568    0.223154
   324   10   8.0  21.81   47.7   -0.013845   -0.849964   -0.852773
   325   10   1.0   0.00    0.0    0.000000    0.508302    0.508144

 Done with FMO properties.
 CPU     0: STEP CPU TIME=     0.01 TOTAL CPU TIME=      18755.0 (    312.6 MIN)
 TOTAL WALL CLOCK TIME=      41839.4 SECONDS, CPU UTILIZATION IS    44.83%
 CPU     0: STEP CPU TIME=     0.00 TOTAL CPU TIME=      18755.0 (    312.6 MIN)
 TOTAL WALL CLOCK TIME=      41839.4 SECONDS, CPU UTILIZATION IS    44.83%

 Total timing statistics in pairs (CPU,wall) for each rank, sec

    Rank   total     SCF    corr     DFT    CPHF     EFP    solv     ESP    geom
 -------------------------------------------------------------------------------
       1   18755.0   5100.2   7330.7      0.0    0.0   0.0  141.3  5875.8    0.0
       1   41839.5  10915.0  17854.5      0.0    0.0   0.0  433.3 11930.9    0.0
       2   18626.5   5056.5   7297.7      0.0    0.0   0.0  143.7  5842.3    0.0
       2   41839.5  10915.5  17854.0      0.0    0.0   0.0  433.2 11930.3    0.0
       3   18774.3   5069.9   7407.3      0.0    0.0   0.0  141.8  5866.8    0.0
       3   41839.5  10915.1  17854.0      0.0    0.0   0.0  433.5 11930.4    0.0
       4   18771.0   5102.2   7295.7      0.0    0.0   0.0  142.3  5932.1    0.0
       4   41839.5  10915.8  17853.9      0.0    0.0   0.0  432.4 11930.4    0.0
       5   18666.0   5107.6   7179.8      0.0    0.0   0.0  142.0  5943.4    0.0
       5   41839.5  10915.4  17853.9      0.0    0.0   0.0  433.2 11930.5    0.0
       6   18851.9   5071.2   7383.5      0.0    0.0   0.0  142.9  5963.5    0.0
       6   41839.5  10916.4  17853.9      0.0    0.0   0.0  432.3 11930.4    0.0
       7   19195.3   5131.2   7589.2      0.0    0.0   0.0  142.3  6039.1    0.0
       7   41839.5  10916.0  17853.9      0.0    0.0   0.0  432.6 11930.4    0.0
       8   19199.1   5155.1   7633.6      0.0    0.0   0.0  142.4  5980.3    0.0
       8   41839.5  10916.7  17853.9      0.0    0.0   0.0  431.5 11930.4    0.0
       9   18867.3   5170.2   7385.2      0.0    0.0   0.0  140.2  5885.2    0.0
       9   41839.5  10916.5  17853.9      0.0    0.0   0.0  432.2 11930.3    0.0
      10   19302.4   5151.2   7798.8      0.0    0.0   0.0  141.3  5912.5    0.0
      10   41839.5  10916.2  17853.9      0.0    0.0   0.0  432.3 11930.1    0.0
      11   18637.1   5128.5   7212.3      0.0    0.0   0.0  140.6  5872.7    0.0
      11   41839.5  10917.3  17853.9      0.0    0.0   0.0  431.6 11930.0    0.0
      12   18928.2   5152.3   7460.1      0.0    0.0   0.0  141.1  5880.8    0.0
      12   41839.5  10917.5  17853.9      0.0    0.0   0.0  430.9 11930.0    0.0
      13   18763.7   5140.2   7375.6      0.0    0.0   0.0  140.1  5811.2    0.0
      13   41839.5  10917.8  17853.9      0.0    0.0   0.0  431.1 11930.0    0.0
      14   18853.4   5156.4   7413.6      0.0    0.0   0.0  140.3  5853.0    0.0
      14   41839.5  10917.8  17853.9      0.0    0.0   0.0  430.8 11929.8    0.0
      15   18998.4   5201.9   7385.4      0.0    0.0   0.0  140.4  5978.7    0.0
      15   41839.5  10917.7  17853.9      0.0    0.0   0.0  430.9 11929.9    0.0
      16   19075.4   5104.1   7619.2      0.0    0.0   0.0  140.4  5916.5    0.0
      16   41839.5  10918.2  17853.9      0.0    0.0   0.0  429.8 11929.8    0.0
averaged   18891.6   5124.9   7423.0      0.0    0.0   0.0  141.4  5909.6    0.0
averaged   41839.5  10916.6  17854.0      0.0    0.0   0.0  432.0 11930.2    0.0

  FMO  timing statistics in pairs (CPU,wall) for each rank, sec

    Rank  FMOini FMOscf1  FMOdm1 FMOsyn1 FMOscf2  FMOes2 FMOsyn2 FMOscf3 FMOsyn3
 -------------------------------------------------------------------------------
       1    2.2    6907.3    0.3    0.0   11626.9     218.3    0.0    0.0    0.0
       1    5.7   14690.9    6.0    0.0   26712.3     424.1    0.0    0.0    0.0
       2    1.6    6909.2    0.0    0.0   11514.4     201.3    0.0    0.0    0.0
       2    5.7   14691.0    6.0    0.0   26713.2     423.3    0.0    0.0    0.0
       3    1.8    6985.0    0.2    0.0   11584.7     202.6    0.0    0.0    0.0
       3    5.7   14691.0    6.0    0.0   26711.7     424.7    0.0    0.0    0.0
       4    1.6    7026.9    0.1    0.0   11529.6     212.7    0.0    0.0    0.0
       4    5.7   14690.9    6.0    0.0   26711.3     425.1    0.0    0.0    0.0
       5    2.0    6964.2    0.2    0.0   11492.5     207.2    0.0    0.0    0.0
       5    5.7   14691.0    6.0    0.0   26713.4     423.0    0.0    0.0    0.0
       6    1.7    7050.6    0.1    0.0   11592.6     206.8    0.0    0.0    0.0
       6    5.7   14691.0    6.0    0.0   26713.4     423.0    0.0    0.0    0.0
       7    1.8    7074.4    0.2    0.0   11911.2     207.7    0.0    0.0    0.0
       7    5.7   14691.0    6.0    0.0   26712.3     424.2    0.0    0.0    0.0
       8    1.5    7120.8    0.1    0.0   11872.4     204.2    0.0    0.0    0.0
       8    5.7   14691.0    6.0    0.0   26712.9     423.6    0.0    0.0    0.0
       9    1.9    6934.4    0.3    0.0   11731.4     199.3    0.0    0.0    0.0
       9    5.7   14690.9    6.0    0.0   26711.1     425.4    0.0    0.0    0.0
      10    1.6    6978.7    0.0    0.0   12106.3     215.8    0.0    0.0    0.0
      10    5.7   14691.0    6.0    0.0   26712.6     423.8    0.0    0.0    0.0
      11    1.6    6982.2    0.2    0.0   11453.8     199.4    0.0    0.0    0.0
      11    5.7   14691.0    6.0    0.0   26712.5     424.0    0.0    0.0    0.0
      12    1.4    7026.0    0.1    0.0   11689.5     211.2    0.0    0.0    0.0
      12    5.7   14691.0    6.0    0.0   26712.7     423.7    0.0    0.0    0.0
      13    1.8    6953.9    0.2    0.0   11594.7     213.1    0.0    0.0    0.0
      13    5.7   14691.0    6.0    0.0   26713.9     422.5    0.0    0.0    0.0
      14    1.4    7029.2    0.1    0.0   11614.0     208.7    0.0    0.0    0.0
      14    5.7   14691.0    6.0    0.0   26713.2     423.2    0.0    0.0    0.0
      15    1.6    7111.5    0.1    0.0   11675.4     209.8    0.0    0.0    0.0
      15    5.7   14691.0    6.0    0.0   26714.3     422.2    0.0    0.0    0.0
      16    1.5    7051.1    0.1    0.0   11809.5     213.2    0.0    0.0    0.0
      16    5.7   14691.0    6.0    0.0   26713.6     422.8    0.0    0.0    0.0
averaged    1.7    7006.6    0.1    0.0   11674.9     208.2    0.0    0.0    0.0
averaged    5.7   14691.0    6.0    0.0   26712.8     423.7    0.0    0.0    0.0
             62755970  WORDS OF DYNAMIC MEMORY USED
 EXECUTION OF GAMESS TERMINATED NORMALLY Mon Nov 18 08:59:31 2019
 DDI: 263640 bytes (0.3 MB / 0 MWords) used by master data server.

 ----------------------------------------
 CPU timing information for all processes
 ========================================
 0: 18297.211 + 457.896 = 18755.108
 1: 18196.185 + 430.433 = 18626.619
 2: 18327.809 + 446.592 = 18774.401
 3: 18358.858 + 412.230 = 18771.89
 4: 18214.482 + 451.632 = 18666.115
 5: 18419.288 + 432.675 = 18851.964
 6: 18752.646 + 442.690 = 19195.337
 7: 18758.743 + 440.427 = 19199.170
 8: 18422.632 + 444.694 = 18867.327
 9: 18859.985 + 442.490 = 19302.476
 10: 18200.637 + 436.625 = 18637.263
 11: 18490.429 + 437.902 = 18928.331
 12: 18306.576 + 457.216 = 18763.792
 13: 18446.162 + 407.286 = 18853.449
 14: 18566.542 + 431.900 = 18998.443
 15: 18633.343 + 442.126 = 19075.469
 ----------------------------------------
 ddikick.x: exited gracefully.
----- accounting info -----
Files used on the master node gollum076.lsa.umich.edu were:
-rw-r--r-- 1 hazwong frank    16992 Nov 17 21:22 /scratch/hazwong/638703/1ANR_1/usrc/1ANR_1_fmo_input.F05
-rw-r--r-- 1 hazwong frank      634 Nov 18 08:59 /scratch/hazwong/638703/1ANR_1/usrc/1ANR_1_fmo_input.F06.001
-rw-r--r-- 1 hazwong frank      634 Nov 18 08:59 /scratch/hazwong/638703/1ANR_1/usrc/1ANR_1_fmo_input.F06.002
-rw-r--r-- 1 hazwong frank      634 Nov 18 08:59 /scratch/hazwong/638703/1ANR_1/usrc/1ANR_1_fmo_input.F06.003
-rw-r--r-- 1 hazwong frank      634 Nov 18 08:59 /scratch/hazwong/638703/1ANR_1/usrc/1ANR_1_fmo_input.F06.004
-rw-r--r-- 1 hazwong frank      634 Nov 18 08:59 /scratch/hazwong/638703/1ANR_1/usrc/1ANR_1_fmo_input.F06.005
-rw-r--r-- 1 hazwong frank      634 Nov 18 08:59 /scratch/hazwong/638703/1ANR_1/usrc/1ANR_1_fmo_input.F06.006
-rw-r--r-- 1 hazwong frank      634 Nov 18 08:59 /scratch/hazwong/638703/1ANR_1/usrc/1ANR_1_fmo_input.F06.007
-rw-r--r-- 1 hazwong frank      634 Nov 18 08:59 /scratch/hazwong/638703/1ANR_1/usrc/1ANR_1_fmo_input.F06.008
-rw-r--r-- 1 hazwong frank      634 Nov 18 08:59 /scratch/hazwong/638703/1ANR_1/usrc/1ANR_1_fmo_input.F06.009
-rw-r--r-- 1 hazwong frank      634 Nov 18 08:59 /scratch/hazwong/638703/1ANR_1/usrc/1ANR_1_fmo_input.F06.010
-rw-r--r-- 1 hazwong frank      634 Nov 18 08:59 /scratch/hazwong/638703/1ANR_1/usrc/1ANR_1_fmo_input.F06.011
-rw-r--r-- 1 hazwong frank      634 Nov 18 08:59 /scratch/hazwong/638703/1ANR_1/usrc/1ANR_1_fmo_input.F06.012
-rw-r--r-- 1 hazwong frank      634 Nov 18 08:59 /scratch/hazwong/638703/1ANR_1/usrc/1ANR_1_fmo_input.F06.013
-rw-r--r-- 1 hazwong frank      634 Nov 18 08:59 /scratch/hazwong/638703/1ANR_1/usrc/1ANR_1_fmo_input.F06.014
-rw-r--r-- 1 hazwong frank      634 Nov 18 08:59 /scratch/hazwong/638703/1ANR_1/usrc/1ANR_1_fmo_input.F06.015
-rw-r--r-- 1 hazwong frank     9128 Nov 18 08:59 /scratch/hazwong/638703/1ANR_1/usrc/1ANR_1_fmo_input.F07
-rw-r--r-- 1 hazwong frank        0 Nov 17 21:22 /scratch/hazwong/638703/1ANR_1/usrc/1ANR_1_fmo_input.F07.001
-rw-r--r-- 1 hazwong frank        0 Nov 17 21:22 /scratch/hazwong/638703/1ANR_1/usrc/1ANR_1_fmo_input.F07.002
-rw-r--r-- 1 hazwong frank        0 Nov 17 21:22 /scratch/hazwong/638703/1ANR_1/usrc/1ANR_1_fmo_input.F07.003
-rw-r--r-- 1 hazwong frank        0 Nov 17 21:22 /scratch/hazwong/638703/1ANR_1/usrc/1ANR_1_fmo_input.F07.004
-rw-r--r-- 1 hazwong frank        0 Nov 17 21:22 /scratch/hazwong/638703/1ANR_1/usrc/1ANR_1_fmo_input.F07.005
-rw-r--r-- 1 hazwong frank        0 Nov 17 21:22 /scratch/hazwong/638703/1ANR_1/usrc/1ANR_1_fmo_input.F07.006
-rw-r--r-- 1 hazwong frank        0 Nov 17 21:22 /scratch/hazwong/638703/1ANR_1/usrc/1ANR_1_fmo_input.F07.007
-rw-r--r-- 1 hazwong frank        0 Nov 17 21:22 /scratch/hazwong/638703/1ANR_1/usrc/1ANR_1_fmo_input.F07.008
-rw-r--r-- 1 hazwong frank        0 Nov 17 21:22 /scratch/hazwong/638703/1ANR_1/usrc/1ANR_1_fmo_input.F07.009
-rw-r--r-- 1 hazwong frank        0 Nov 17 21:22 /scratch/hazwong/638703/1ANR_1/usrc/1ANR_1_fmo_input.F07.010
-rw-r--r-- 1 hazwong frank        0 Nov 17 21:22 /scratch/hazwong/638703/1ANR_1/usrc/1ANR_1_fmo_input.F07.011
-rw-r--r-- 1 hazwong frank        0 Nov 17 21:22 /scratch/hazwong/638703/1ANR_1/usrc/1ANR_1_fmo_input.F07.012
-rw-r--r-- 1 hazwong frank        0 Nov 17 21:22 /scratch/hazwong/638703/1ANR_1/usrc/1ANR_1_fmo_input.F07.013
-rw-r--r-- 1 hazwong frank        0 Nov 17 21:22 /scratch/hazwong/638703/1ANR_1/usrc/1ANR_1_fmo_input.F07.014
-rw-r--r-- 1 hazwong frank        0 Nov 17 21:22 /scratch/hazwong/638703/1ANR_1/usrc/1ANR_1_fmo_input.F07.015
-rw-r--r-- 1 hazwong frank    65440 Nov 18 08:59 /scratch/hazwong/638703/1ANR_1/usrc/1ANR_1_fmo_input.F10.000
-rw-r--r-- 1 hazwong frank        0 Nov 17 21:22 /scratch/hazwong/638703/1ANR_1/usrc/1ANR_1_fmo_input.F26.000
-rw-r--r-- 1 hazwong frank        0 Nov 17 21:22 /scratch/hazwong/638703/1ANR_1/usrc/1ANR_1_fmo_input.F26.001
-rw-r--r-- 1 hazwong frank        0 Nov 17 21:22 /scratch/hazwong/638703/1ANR_1/usrc/1ANR_1_fmo_input.F26.002
-rw-r--r-- 1 hazwong frank        0 Nov 17 21:22 /scratch/hazwong/638703/1ANR_1/usrc/1ANR_1_fmo_input.F26.003
-rw-r--r-- 1 hazwong frank        0 Nov 17 21:22 /scratch/hazwong/638703/1ANR_1/usrc/1ANR_1_fmo_input.F26.004
-rw-r--r-- 1 hazwong frank        0 Nov 17 21:22 /scratch/hazwong/638703/1ANR_1/usrc/1ANR_1_fmo_input.F26.005
-rw-r--r-- 1 hazwong frank        0 Nov 17 21:22 /scratch/hazwong/638703/1ANR_1/usrc/1ANR_1_fmo_input.F26.006
-rw-r--r-- 1 hazwong frank        0 Nov 17 21:22 /scratch/hazwong/638703/1ANR_1/usrc/1ANR_1_fmo_input.F26.007
-rw-r--r-- 1 hazwong frank        0 Nov 17 21:22 /scratch/hazwong/638703/1ANR_1/usrc/1ANR_1_fmo_input.F26.008
-rw-r--r-- 1 hazwong frank        0 Nov 17 21:22 /scratch/hazwong/638703/1ANR_1/usrc/1ANR_1_fmo_input.F26.009
-rw-r--r-- 1 hazwong frank        0 Nov 17 21:22 /scratch/hazwong/638703/1ANR_1/usrc/1ANR_1_fmo_input.F26.010
-rw-r--r-- 1 hazwong frank        0 Nov 17 21:22 /scratch/hazwong/638703/1ANR_1/usrc/1ANR_1_fmo_input.F26.011
-rw-r--r-- 1 hazwong frank        0 Nov 17 21:22 /scratch/hazwong/638703/1ANR_1/usrc/1ANR_1_fmo_input.F26.012
-rw-r--r-- 1 hazwong frank        0 Nov 17 21:22 /scratch/hazwong/638703/1ANR_1/usrc/1ANR_1_fmo_input.F26.013
-rw-r--r-- 1 hazwong frank        0 Nov 17 21:22 /scratch/hazwong/638703/1ANR_1/usrc/1ANR_1_fmo_input.F26.014
-rw-r--r-- 1 hazwong frank        0 Nov 17 21:22 /scratch/hazwong/638703/1ANR_1/usrc/1ANR_1_fmo_input.F26.015
-rw-r--r-- 1 hazwong frank        0 Nov 17 21:22 /scratch/hazwong/638703/1ANR_1/usrc/1ANR_1_fmo_input.F27.000
-rw-r--r-- 1 hazwong frank        0 Nov 17 21:22 /scratch/hazwong/638703/1ANR_1/usrc/1ANR_1_fmo_input.F27.001
-rw-r--r-- 1 hazwong frank        0 Nov 17 21:22 /scratch/hazwong/638703/1ANR_1/usrc/1ANR_1_fmo_input.F27.002
-rw-r--r-- 1 hazwong frank        0 Nov 17 21:22 /scratch/hazwong/638703/1ANR_1/usrc/1ANR_1_fmo_input.F27.003
-rw-r--r-- 1 hazwong frank        0 Nov 17 21:22 /scratch/hazwong/638703/1ANR_1/usrc/1ANR_1_fmo_input.F27.004
-rw-r--r-- 1 hazwong frank        0 Nov 17 21:22 /scratch/hazwong/638703/1ANR_1/usrc/1ANR_1_fmo_input.F27.005
-rw-r--r-- 1 hazwong frank        0 Nov 17 21:22 /scratch/hazwong/638703/1ANR_1/usrc/1ANR_1_fmo_input.F27.006
-rw-r--r-- 1 hazwong frank        0 Nov 17 21:22 /scratch/hazwong/638703/1ANR_1/usrc/1ANR_1_fmo_input.F27.007
-rw-r--r-- 1 hazwong frank        0 Nov 17 21:22 /scratch/hazwong/638703/1ANR_1/usrc/1ANR_1_fmo_input.F27.008
-rw-r--r-- 1 hazwong frank        0 Nov 17 21:22 /scratch/hazwong/638703/1ANR_1/usrc/1ANR_1_fmo_input.F27.009
-rw-r--r-- 1 hazwong frank        0 Nov 17 21:22 /scratch/hazwong/638703/1ANR_1/usrc/1ANR_1_fmo_input.F27.010
-rw-r--r-- 1 hazwong frank        0 Nov 17 21:22 /scratch/hazwong/638703/1ANR_1/usrc/1ANR_1_fmo_input.F27.011
-rw-r--r-- 1 hazwong frank        0 Nov 17 21:22 /scratch/hazwong/638703/1ANR_1/usrc/1ANR_1_fmo_input.F27.012
-rw-r--r-- 1 hazwong frank        0 Nov 17 21:22 /scratch/hazwong/638703/1ANR_1/usrc/1ANR_1_fmo_input.F27.013
-rw-r--r-- 1 hazwong frank        0 Nov 17 21:22 /scratch/hazwong/638703/1ANR_1/usrc/1ANR_1_fmo_input.F27.014
-rw-r--r-- 1 hazwong frank        0 Nov 17 21:22 /scratch/hazwong/638703/1ANR_1/usrc/1ANR_1_fmo_input.F27.015
-rw-r--r-- 1 hazwong frank 21184512 Nov 18 01:27 /scratch/hazwong/638703/1ANR_1/usrc/1ANR_1_fmo_input.F40.000
-rw-r--r-- 1 hazwong frank 21184512 Nov 18 01:27 /scratch/hazwong/638703/1ANR_1/usrc/1ANR_1_fmo_input.F40.001
-rw-r--r-- 1 hazwong frank 21184512 Nov 18 01:27 /scratch/hazwong/638703/1ANR_1/usrc/1ANR_1_fmo_input.F40.002
-rw-r--r-- 1 hazwong frank 21184512 Nov 18 01:27 /scratch/hazwong/638703/1ANR_1/usrc/1ANR_1_fmo_input.F40.003
-rw-r--r-- 1 hazwong frank 21184512 Nov 18 01:27 /scratch/hazwong/638703/1ANR_1/usrc/1ANR_1_fmo_input.F40.004
-rw-r--r-- 1 hazwong frank 21184512 Nov 18 01:27 /scratch/hazwong/638703/1ANR_1/usrc/1ANR_1_fmo_input.F40.005
-rw-r--r-- 1 hazwong frank 21184512 Nov 18 01:27 /scratch/hazwong/638703/1ANR_1/usrc/1ANR_1_fmo_input.F40.006
-rw-r--r-- 1 hazwong frank 21184512 Nov 18 01:27 /scratch/hazwong/638703/1ANR_1/usrc/1ANR_1_fmo_input.F40.007
-rw-r--r-- 1 hazwong frank 21184512 Nov 18 01:27 /scratch/hazwong/638703/1ANR_1/usrc/1ANR_1_fmo_input.F40.008
-rw-r--r-- 1 hazwong frank 21184512 Nov 18 01:27 /scratch/hazwong/638703/1ANR_1/usrc/1ANR_1_fmo_input.F40.009
-rw-r--r-- 1 hazwong frank 21184512 Nov 18 01:27 /scratch/hazwong/638703/1ANR_1/usrc/1ANR_1_fmo_input.F40.010
-rw-r--r-- 1 hazwong frank 21184512 Nov 18 01:27 /scratch/hazwong/638703/1ANR_1/usrc/1ANR_1_fmo_input.F40.011
-rw-r--r-- 1 hazwong frank 21184512 Nov 18 01:27 /scratch/hazwong/638703/1ANR_1/usrc/1ANR_1_fmo_input.F40.012
-rw-r--r-- 1 hazwong frank 21184512 Nov 18 01:27 /scratch/hazwong/638703/1ANR_1/usrc/1ANR_1_fmo_input.F40.013
-rw-r--r-- 1 hazwong frank 21184512 Nov 18 01:27 /scratch/hazwong/638703/1ANR_1/usrc/1ANR_1_fmo_input.F40.014
-rw-r--r-- 1 hazwong frank 21184512 Nov 18 01:27 /scratch/hazwong/638703/1ANR_1/usrc/1ANR_1_fmo_input.F40.015
Mon Nov 18 08:59:34 EST 2019
0.196u 0.092s 11:37:23.24 0.0%	0+0k 1360+144io 24pf+0w
