----- GAMESS execution script 'rungms' -----
This job is running on host gollum090.lsa.umich.edu
under operating system Linux at Sun Dec 8 08:31:07 EST 2019
Available scratch disk space (Kbyte units) at beginning of the job is
Filesystem     1K-blocks   Used Available Use% Mounted on
/dev/sda4      426933580 290328 426643252   1% /scratch
GAMESS temporary binary files will be written to /scratch/hazwong/827096/1HS2_2/usrc
GAMESS supplementary output files will be written to /scratch/hazwong/827096/1HS2_2/src
Copying input file 1HS2_2_fmo_input.inp to your run's scratch directory...
This is a GDDI run, keeping various output files on local disks
 
Assuming a single but multicore node.
 

 Distributed Data Interface kickoff program.
 Initiating 16 compute processes on 1 nodes to run the following command:
 /export/apps/CentOS7/gamess/src/build//gamess.R3.x 1HS2_2_fmo_input 

          ******************************************************
          *         GAMESS VERSION = 30 SEP 2018 (R3)         *
          *             FROM IOWA STATE UNIVERSITY             *
          * M.W.SCHMIDT, K.K.BALDRIDGE, J.A.BOATZ, S.T.ELBERT, *
          *   M.S.GORDON, J.H.JENSEN, S.KOSEKI, N.MATSUNAGA,   *
          *          K.A.NGUYEN, S.J.SU, T.L.WINDUS,           *
          *       TOGETHER WITH M.DUPUIS, J.A.MONTGOMERY       *
          *         J.COMPUT.CHEM.  14, 1347-1363(1993)        *
          **************** 64 BIT LINUX VERSION ****************

  SINCE 1993, STUDENTS AND POSTDOCS WORKING AT IOWA STATE UNIVERSITY
  AND ALSO IN THEIR VARIOUS JOBS AFTER LEAVING ISU HAVE MADE IMPORTANT
  CONTRIBUTIONS TO THE CODE:
     IVANA ADAMOVIC, CHRISTINE AIKENS, YURI ALEXEEV, POOJA ARORA,
     ANDREY ASADCHEV, ROB BELL, PRADIPTA BANDYOPADHYAY, JONATHAN BENTZ,
     BRETT BODE, KURT BRORSEN, CALEB CARLIN, GALINA CHABAN, WEI CHEN,
     CHEOL HO CHOI, PAUL DAY, ALBERT DEFUSCO, NUWAN DESILVA, TIM DUDLEY,
     DMITRI FEDOROV, ALEX FINDLATER, GRAHAM FLETCHER, MARK FREITAG,
     KURT GLAESEMANN, ANASTASIA GUNINA,
     DAN KEMP, GRANT MERRILL, NORIYUKI MINEZAWA, JONATHAN MULLIN,
     TAKESHI NAGATA, SEAN NEDD, HEATHER NETZLOFF, BOSILJKA NJEGIC, RYAN OLSON,
     MIKE PAK, BUU PHAM,
     SPENCER PRUITT, LUKE ROSKOP, JIM SHOEMAKER, LYUDMILA SLIPCHENKO,
     TONY SMITH, SAROM SOK LEANG, JIE SONG, TETSUYA TAKETSUGU, SIMON WEBB,
     PENG XU, SOOHAENG YOO, FEDERICO ZAHARIEV

  ADDITIONAL CODE HAS BEEN PROVIDED BY COLLABORATORS IN OTHER GROUPS:
     IOWA STATE UNIVERSITY:
          JOE IVANIC, AARON WEST, LAIMUTIS BYTAUTAS, KLAUS RUEDENBERG
     UNIVERSITY OF TOKYO: KIMIHIKO HIRAO, TAKAHITO NAKAJIMA,
          TAKAO TSUNEDA, MUNEAKI KAMIYA, SUSUMU YANAGISAWA,
          KIYOSHI YAGI, MAHITO CHIBA, SEIKEN TOKURA, NAOAKI KAWAKAMI
     UNIVERSITY OF AARHUS: FRANK JENSEN
     UNIVERSITY OF IOWA: VISVALDAS KAIRYS, HUI LI
     NATIONAL INST. OF STANDARDS AND TECHNOLOGY: WALT STEVENS, DAVID GARMER
     UNIVERSITY OF PISA: BENEDETTA MENNUCCI, JACOPO TOMASI
     UNIVERSITY OF MEMPHIS: HENRY KURTZ, PRAKASHAN KORAMBATH
     UNIVERSITY OF ALBERTA: TOBY ZENG, MARIUSZ KLOBUKOWSKI
     UNIVERSITY OF NEW ENGLAND: MARK SPACKMAN
     MIE UNIVERSITY: HIROAKI UMEDA
     NAT. INST. OF ADVANCED INDUSTRIAL SCIENCE AND TECHNOLOGY: KAZUO KITAURA
     MICHIGAN STATE UNIVERSITY:
          KAROL KOWALSKI, MARTA WLOCH, JEFFREY GOUR, JESSE LUTZ,
          WEI LI, JUN SHEN, J. EMILIANO DEUSTUA, PIOTR PIECUCH
     UNIVERSITY OF MINNESOTA:
          YINAN SHU
     UNIVERSITY OF SILESIA: MONIKA MUSIAL, STANISLAW KUCHARSKI
     FACULTES UNIVERSITAIRES NOTRE-DAME DE LA PAIX:
          OLIVIER QUINET, BENOIT CHAMPAGNE
     UNIVERSITY OF CALIFORNIA - SANTA BARBARA: BERNARD KIRTMAN
     INSTITUTE FOR MOLECULAR SCIENCE:
          KAZUYA ISHIMURA, MICHIO KATOUDA, AND SHIGERU NAGASE
     UNIVERSITY OF NOTRE DAME: ANNA POMOGAEVA, DAN CHIPMAN
     KYUSHU UNIVERSITY:
          HARUYUKI NAKANO,
          FENG LONG GU, JACEK KORCHOWIEC, MARCIN MAKOWSKI, AND YURIKO AOKI,
          HIROTOSHI MORI AND EISAKU MIYOSHI
     PENNSYLVANIA STATE UNIVERSITY:
          TZVETELIN IORDANOV, CHET SWALINA, JONATHAN SKONE,
          SHARON HAMMES-SCHIFFER
     WASEDA UNIVERSITY:
          MASATO KOBAYASHI, TOMOKO AKAMA, TSUGUKI TOUMA,
          TAKESHI YOSHIKAWA, YASUHIRO IKABATA, JUNJI SEINO,
          YUYA NAKAJIMA, HIROMI NAKAI
     NANJING UNIVERSITY: SHUHUA LI
     UNIVERSITY OF NEBRASKA:
          PEIFENG SU, DEJUN SI, NANDUN THELLAMUREGE, YALI WANG, HUI LI
     UNIVERSITY OF ZURICH: ROBERTO PEVERATI, KIM BALDRIDGE
     N. COPERNICUS UNIVERSITY AND JACKSON STATE UNIVERSITY:
          MARIA BARYSZ
     UNIVERSITY OF COPENHAGEN: Jimmy Kromann, CASPER STEINMANN
     TOKYO INSTITUTE OF TECHNOLOGY: HIROYA NAKATA
     NAGOYA UNIVERSITY: YOSHIO NISHIMOTO, STEPHAN IRLE
     MOSCOW STATE UNIVERSITY: VLADIMIR MIRONOV


 PARALLEL VERSION RUNNING ON       16 PROCESSORS IN        1 NODES.

 EXECUTION OF GAMESS BEGUN Sun Dec  8 08:31:08 2019

            ECHO OF THE FIRST FEW INPUT CARDS -
 INPUT CARD>!*** FMO 5.3 (Gamess) INPUT generated by Facio 22.1.1.32 ***                    
 INPUT CARD> $CONTRL RUNTYP=ENERGY NPRINT=-5 ISPHER=1 MAXIT=200 $END                        
 INPUT CARD> $SYSTEM MWORDS=63 MEMDDI=63 $END                                               
 INPUT CARD> $GDDI NGROUP=1 $END                                                            
 INPUT CARD> $SCF DIRSCF=.TRUE. NPUNCH=0 $END                                               
 INPUT CARD>!*** NumCPU : 2  MemPerNode : 512MB                                             
 INPUT CARD> $PCM SOLVNT=WATER IEF=-10 ICOMP=2 ICAV=1 IDISP=1 IFMO=-1 $END                  
 INPUT CARD> $PCMCAV RADII=SUAHF $END                                                       
 INPUT CARD> $TESCAV NTSALL=60 $END                                                         
 INPUT CARD> $FMOPRP                                                                        
 INPUT CARD>    NAODIR=200                                                                  
 INPUT CARD>    NGRFMO(1)=1, 1, 0, 0, 0,   0, 0, 0, 0, 0                                    
 INPUT CARD>    IPIEDA=1                                                                    
 INPUT CARD>    NPRINT=9                                                                    
 INPUT CARD> $END                                                                           
 INPUT CARD> $FMO                                                                           
 INPUT CARD>      SCFTYP(1)=RHF                                                             
 INPUT CARD>      MODGRD=10                                                                 
 INPUT CARD>      MODMUL=0                                                                  
 INPUT CARD>      MAXCAO=5                                                                  
 INPUT CARD>      MAXBND=12                                                                 
 INPUT CARD>      NLAYER=1                                                                  
 INPUT CARD>      MPLEVL(1)=2                                                               
 INPUT CARD>      NFRAG=10                                                                  
 INPUT CARD>      ICHARG(1)=-1, -1, -1, -1, -1, -1, -1, -1, -1, 0                           
 INPUT CARD>      FRGNAM(1)=F1, F2, F3, F4, F5, F6, F7, F8, F9, F10                         
 INPUT CARD>      indat(1)=0                                                                
 INPUT CARD>               1   -33   0                                                      
 INPUT CARD>               34   -67   0                                                     
 INPUT CARD>               68   -97   0                                                     
 INPUT CARD>               98   -127   0                                                    
 INPUT CARD>               128   -160   0                                                   
 INPUT CARD>               161   -193   0                                                   
 INPUT CARD>               194   -227   0                                                   
 INPUT CARD>               228   -257   0                                                   
 INPUT CARD>               258   -288   0                                                   
 INPUT CARD>               289   -319   0                                                   
 INPUT CARD> $END                                                                           
 INPUT CARD>                                                                                
 INPUT CARD> $FMOBND                                                                        
 INPUT CARD>   -34   33       6-31G*    MINI                                                
 INPUT CARD>   -68   67       6-31G*    MINI                                                
 INPUT CARD>   -98   97       6-31G*    MINI                                                
 INPUT CARD>   -128   127       6-31G*    MINI                                              
 INPUT CARD>   -161   160       6-31G*    MINI                                              
 INPUT CARD>   -194   193       6-31G*    MINI                                              
 INPUT CARD>   -228   227       6-31G*    MINI                                              
 INPUT CARD>   -258   257       6-31G*    MINI                                              
 INPUT CARD>   -289   288       6-31G*    MINI                                              
 INPUT CARD> $END                                                                           


 -------------------------------------------------------------
 GROUP DDI, PROGRAMMED BY: RYAN M. OLSON AND DMITRI G. FEDOROV
        FEDOROV ET AL., J. COMPUT. CHEM., 25 (2004) 872.
 -------------------------------------------------------------

 -------------------------------------------------------
 GDDI: INITIALIZATION COMPLETED FOR GROUP     1 OF     1
 WITH    16 PROCESSES BALTYP=DLB   global rank=        0
 -------------------------------------------------------

   63000000 WORDS OF MEMORY AVAILABLE


     RUN TITLE
     ---------
  FMO calculation                                                                

 THE POINT GROUP OF THE MOLECULE IS C1      
 THE ORDER OF THE PRINCIPAL AXIS IS     0

 ATOM   ATOMIC CHARGE
 H.1-1       1.0
 O.1-1       8.0
 C.1-1       6.0
 N.1-1       7.0
 P.1-1      15.0

     ATOMIC BASIS SET LIBRARY
     ----------------
 THE CONTRACTED PRIMITIVE FUNCTIONS HAVE BEEN UNNORMALIZED
 THE CONTRACTED BASIS FUNCTIONS ARE NOW NORMALIZED TO UNITY

  SHELL TYPE  PRIMITIVE        EXPONENT          CONTRACTION COEFFICIENT(S)

 H.1-1     

      1   S       1            18.7311370    0.033494604338
      1   S       2             2.8253944    0.234726953484
      1   S       3             0.6401217    0.813757326146

      2   S       4             0.1612778    1.000000000000

 O.1-1     

      3   S       5          5484.6716600    0.001831074430
      3   S       6           825.2349460    0.013950172200
      3   S       7           188.0469580    0.068445078098
      3   S       8            52.9645000    0.232714335992
      3   S       9            16.8975704    0.470192897984
      3   S      10             5.7996353    0.358520852987

      4   L      11            15.5396162   -0.110777549525    0.070874268231
      4   L      12             3.5999336   -0.148026262701    0.339752839147
      4   L      13             1.0137618    1.130767015354    0.727158577316

      5   L      14             0.2700058    1.000000000000    1.000000000000

      6   D      15             0.8000000    1.000000000000

 C.1-1     

      7   S      16          3047.5248800    0.001834737132
      7   S      17           457.3695180    0.014037322813
      7   S      18           103.9486850    0.068842622264
      7   S      19            29.2101553    0.232184443216
      7   S      20             9.2866630    0.467941348435
      7   S      21             3.1639270    0.362311985337

      8   L      22             7.8682723   -0.119332419775    0.068999066591
      8   L      23             1.8812885   -0.160854151696    0.316423960957
      8   L      24             0.5442493    1.143456437840    0.744308290898

      9   L      25             0.1687145    1.000000000000    1.000000000000

     10   D      26             0.8000000    1.000000000000

 N.1-1     

     11   S      27          4173.5114600    0.001834772160
     11   S      28           627.4579110    0.013994627002
     11   S      29           142.9020930    0.068586551812
     11   S      30            40.2343293    0.232240873040
     11   S      31            12.8202129    0.469069948082
     11   S      32             4.3904370    0.360455199063

     12   L      33            11.6263619   -0.114961181702    0.067579743878
     12   L      34             2.7162798   -0.169117478561    0.323907295893
     12   L      35             0.7722184    1.145851947027    0.740895139755

     13   L      36             0.2120315    1.000000000000    1.000000000000

     14   D      37             0.8000000    1.000000000000

 P.1-1     

     15   S      38         19413.3000000    0.001851598923
     15   S      39          2909.4200000    0.014206191735
     15   S      40           661.3640000    0.069999459277
     15   S      41           185.7590000    0.240078860331
     15   S      42            59.1943000    0.484761717984
     15   S      43            20.0310000    0.335199804993

     16   L      44           339.4780000   -0.002782170105    0.004564616191
     16   L      45            81.0101000   -0.036049901354    0.033693571881
     16   L      46            25.8780000   -0.116631004382    0.139754883368
     16   L      47             9.4522100    0.096832803638    0.339361716786
     16   L      48             3.6656600    0.614418023082    0.450920623685
     16   L      49             1.4674600    0.403798015170    0.238585800889

     17   L      50             2.1562300   -0.252924113863   -0.017765312733
     17   L      51             0.7489970    0.032851844678    0.274058196433
     17   L      52             0.2831450    1.081254761783    0.785421562957

     18   L      53             0.0998317    1.000000000000    1.000000000000

     19   D      54             0.5500000    1.000000000000

 TOTAL NUMBER OF BASIS SET SHELLS             =   19
 NUMBER OF CARTESIAN GAUSSIAN BASIS FUNCTIONS =   66

     $CONTRL OPTIONS
     ---------------
 SCFTYP=RHF          RUNTYP=ENERGY       EXETYP=RUN     
 MPLEVL=       0     CITYP =NONE         CCTYP =NONE         VBTYP =NONE    
 DFTTYP=NONE         TDDFT =NONE    
 MULT  =       1     ICHARG=       0     NZVAR =       0     COORD =UNIQUE  
 PP    =NONE         RELWFN=NONE         LOCAL =NONE         NUMGRD=       F
 ISPHER=       1     NOSYM =       0     MAXIT =     200     UNITS =ANGS    
 PLTORB=       F     MOLPLT=       F     AIMPAC=       F     FRIEND=        
 NPRINT=      -5     IREST =       0     GEOM  =INPUT   
 NORMF =       0     NORMP =       0     ITOL  =      24     ICUT  =      12
 INTTYP=BEST         GRDTYP=BEST         QMTTOL= 1.0E-06

     $SYSTEM OPTIONS
     ---------------
  REPLICATED MEMORY=    63000000 WORDS (ON EVERY NODE).
 DISTRIBUTED MEMDDI=          63 MILLION WORDS IN AGGREGATE,
 MEMDDI DISTRIBUTED OVER  16 PROCESSORS IS     3937500 WORDS/PROCESSOR.
 TOTAL MEMORY REQUESTED ON EACH PROCESSOR=    66937500 WORDS.
 TIMLIM=      525600.00 MINUTES, OR     365.0 DAYS.
 PARALL= T  BALTYP=  DLB     KDIAG=    0  COREFL= F
 MXSEQ2=     300 MXSEQ3=     150  mem10=         0

 ** LOOKING UP INTERNALLY STORED DATA FOR SOLVENT=WATER    **
 OPTICAL AND PHYSICAL CONSTANTS:
 EPS= 78.390; EPSINF=  1.776; RSOLV=  1.385 A; VMOL=  18.070 ML/MOL;
 TCE= .25700E-03 1/K; STEN= 71.810 DYN/CM;  DSTEN=  0.6500; CMF=  1.2770


     -----------------------------------
     INPUT FOR PCM SOLVATION CALCULATION 
     -----------------------------------
     IEF   =     -10
     ICOMP =       2     IFIELD=       0     ICAV  =       1
     IDISP =       1     IREP  =       0     IDP   =       0

     SOLVNT=WATER        EPS   = 78.3900     EPSINF=  1.7760
     VMOL  = 18.0700     TCE   =  0.00025700 STEN  = 71.8100
     DSTEN =  0.6500     CMF   =  1.2770     RSOLV =  1.3850

     NESFP =       0
     OMEGA = 40.0000     RET   =100.0000     FRO   =  0.7000

     TABS  =298.0000     IPRINT=       0

     --------------------------------
     INPUT FOR ITERATIVE C-PCM METHOD 
     --------------------------------
     IPCMIT  =         1     MXDIIS  =        50
     MXITR1  =       200     MXITR2  =       200
     THRES   = 0.100E-09     IMUL    =         3
     RCUT(1) =   20.0000     RCUT(2) =   50.0000

     IDIRCT  =         1
     IMGABI  =         0     RABI    =    4.0000
     IMGASC  =         0     RASC    =   20.0000
     THRSLS  = 0.500E-03     DENSLS  =    0.0100
     IEFPOL  =         1     REFPOL  =    0.0000

     INPUT FOR ISOTROPIC DIELECTRICS
     -------------------------------
     EPS=    78.39

          ----------------
          PROPERTIES INPUT
          ----------------

     MOMENTS            FIELD           POTENTIAL          DENSITY
 IEMOM =       1   IEFLD =       0   IEPOT =       0   IEDEN =       0
 WHERE =COMASS     WHERE =NUCLEI     WHERE =NUCLEI     WHERE =NUCLEI  
 OUTPUT=BOTH       OUTPUT=BOTH       OUTPUT=NONE       OUTPUT=BOTH    
 IEMINT=       0   IEFINT=       0                     IEDINT=       0
                                                       MORB  =       0
          EXTRAPOLATION IN EFFECT
          SOSCF IN EFFECT
 ORBITAL PRINTING OPTION: NPREO=     1 32767     2     1

     -------------------------------
     INTEGRAL TRANSFORMATION OPTIONS
     -------------------------------
     NWORD  =            0
     CUTOFF = 1.0E-10     MPTRAN =       0
     DIRTRF =       T     AOINTS =DUP     

          ----------------------
          INTEGRAL INPUT OPTIONS
          ----------------------
 NOPK  =       1 NORDER=       0 SCHWRZ=       T

 ..... DONE SETTING UP THE RUN .....
 CPU     0: STEP CPU TIME=     0.04 TOTAL CPU TIME=          0.0 (      0.0 MIN)
 TOTAL WALL CLOCK TIME=          0.1 SECONDS, CPU UTILIZATION IS    44.44%
 CPU     0: STEP CPU TIME=     0.00 TOTAL CPU TIME=          0.0 (      0.0 MIN)
 TOTAL WALL CLOCK TIME=          0.1 SECONDS, CPU UTILIZATION IS    44.44%

                    ----------------------
                    AO INTEGRAL TECHNOLOGY
                    ----------------------
     S,P,L SHELL ROTATED AXIS INTEGRALS, REPROGRAMMED BY
        KAZUYA ISHIMURA (IMS) AND JOSE SIERRA (SYNSTAR).
     S,P,D,L SHELL ROTATED AXIS INTEGRALS PROGRAMMED BY
        KAZUYA ISHIMURA (INSTITUTE FOR MOLECULAR SCIENCE).
     S,P,D,F,G SHELL TO TOTAL QUARTET ANGULAR MOMENTUM SUM 5,
        ERIC PROGRAM BY GRAHAM FLETCHER (ELORET AND NASA ADVANCED
        SUPERCOMPUTING DIVISION, AMES RESEARCH CENTER).
     S,P,D,F,G,L SHELL GENERAL RYS QUADRATURE PROGRAMMED BY
        MICHEL DUPUIS (PACIFIC NORTHWEST NATIONAL LABORATORY).
 Setting modorb=1 flag...
 Setting modorb=1 flag...

          -----------------------
          MP2 CONTROL INFORMATION
          -----------------------
          NACORE =        8  NBCORE =        8
          LMOMP2 =        F  AOINTS = DUP     
          METHOD =        2  NWORD  =               0
          MP2PRP =        F  OSPT   = NONE    
          CUTOFF = 1.00E-12  CPHFBS = BASISAO 
          CODE   = IMS     

          NUMBER OF CORE -A-  ORBITALS =     8
          NUMBER OF CORE -B-  ORBITALS =     8
          NUMBER OF OCC. -A-  ORBITALS =    18
          NUMBER OF OCC. -B-  ORBITALS =    18
          NUMBER OF MOLECULAR ORBITALS =    66
          NUMBER OF   BASIS  FUNCTIONS =    66

 CPU     0: STEP CPU TIME=     0.02 TOTAL CPU TIME=          0.1 (      0.0 MIN)
 TOTAL WALL CLOCK TIME=          0.1 SECONDS, CPU UTILIZATION IS    54.55%
 CPU     0: STEP CPU TIME=     0.00 TOTAL CPU TIME=          0.1 (      0.0 MIN)
 TOTAL WALL CLOCK TIME=          0.1 SECONDS, CPU UTILIZATION IS    54.55%

     INPUT FOR CAVITY DEFINITION 
     ---------------------------
   ATOM               COORDINATES                RADIUS       EPS
      1     11.5810     20.1970      7.9560      0.0100     78.3900
      2     11.7190     20.0430      8.9100      1.5900     78.3900
      3     10.4180     20.0750      9.5170      1.7700     78.3900
      4      9.7980     19.2500      9.0960      0.0100     78.3900
      5      9.9280     21.0400      9.2610      0.0100     78.3900
      6     10.4510     19.9370     11.0440      1.7700     78.3900
      7      9.4260     20.0050     11.4670      0.0100     78.3900
      8     10.9820     18.6320     11.4200      1.5900     78.3900
      9     11.8090     18.7790     12.5670      1.7700     78.3900
     10     11.3990     18.0760     13.3300      0.0100     78.3900
     11     13.2360     18.4320     12.3050      1.6800     78.3900
     12     13.7140     18.3940     11.0140      1.7700     78.3900
     13     12.9960     18.6210     10.2250      0.0100     78.3900
     14     14.9820     18.0620     10.7470      1.7700     78.3900
     15     15.3620     18.0090      9.7270      0.0100     78.3900
     16     14.1020     18.1660     13.3630      1.7700     78.3900
     17     13.6740     18.2330     14.5260      1.5900     78.3900
     18     15.3850     17.8170     13.1130      1.6800     78.3900
     19     15.8310     17.7530     11.8460      1.7700     78.3900
     20     17.0880     17.3720     11.6200      1.6800     78.3900
     21     17.7010     17.1980     12.3960      0.0100     78.3900
     22     17.4520     17.2880     10.6900      0.0100     78.3900
     23     11.6350     20.1980     13.0680      1.7700     78.3900
     24     12.5410     20.5850     13.5730      0.0100     78.3900
     25     10.5330     20.2840     13.9490      1.5900     78.3900
     26     10.5130     21.2060     14.2320      0.0100     78.3900
     27     11.3500     20.9460     11.7720      1.7700     78.3900
     28     12.2830     21.0430     11.1670      0.0100     78.3900
     29     10.6470     22.1980     11.9280      1.5900     78.3900
     30     11.4670     23.5320     12.0870      2.1000     78.3900
     31     12.5320     23.5630     11.0650      1.5900     78.3900
     32     10.5110     24.6600     12.0870      1.5900     78.3900
     33     12.1240     23.3970     13.5140      1.5900     78.3900
     34     11.2970     23.4890     14.6990      1.7700     78.3900
     35     10.4360     22.7830     14.6600      0.0100     78.3900
     36     10.8750     24.5170     14.7990      0.0100     78.3900
     37     12.1070     23.1850     15.9650      1.7700     78.3900
     38     11.4620     23.2140     16.8680      0.0100     78.3900
     39     12.6820     21.8490     15.8810      1.5900     78.3900
     40     13.9740     21.8580     16.4680      1.7700     78.3900
     41     13.9660     21.0830     17.2640      0.0100     78.3900
     42     15.0260     21.5210     15.4990      1.6800     78.3900
     43     16.2960     21.0940     15.7910      1.7700     78.3900
     44     18.7750     20.3810     18.1090      1.6800     78.3900
     45     18.3260     20.5730     18.9790      0.0100     78.3900
     46     19.7350     20.0860     18.1100      0.0100     78.3900
     47     16.8150     20.9320     17.0230      1.6800     78.3900
     48     18.0870     20.5450     16.9930      1.7700     78.3900
     49     18.7590     20.2760     15.8280      1.6800     78.3900
     50     19.7190     19.9720     15.8920      0.0100     78.3900
     51     18.2400     20.3990     14.5440      1.7700     78.3900
     52     18.9260     20.1320     13.5530      1.5900     78.3900
     53     16.9010     20.8730     14.5690      1.7700     78.3900
     54     16.0370     21.1880     13.5270      1.6800     78.3900
     55     14.9380     21.5720     14.1270      1.7700     78.3900
     56     14.0270     21.9090     13.6290      0.0100     78.3900
     57     14.1780     23.2190     17.0890      1.7700     78.3900
     58     15.2390     23.5370     17.0730      0.0100     78.3900
     59     13.6970     23.2050     18.4190      1.5900     78.3900
     60     13.6480     24.1250     18.7090      0.0100     78.3900
     61     13.3160     24.1050     16.2020      1.7700     78.3900
     62     13.7970     24.2630     15.2100      0.0100     78.3900
     63     12.8910     25.3370     16.8220      1.5900     78.3900
     64     13.7400     26.6560     16.6570      2.1000     78.3900
     65     13.9060     26.9260     15.2130      1.5900     78.3900
     66     13.0820     27.7090     17.4660      1.5900     78.3900
     67     15.1520     26.3260     17.2560      1.5900     78.3900
     68     15.4010     26.1560     18.6650      1.7700     78.3900
     69     14.7150     25.4080     19.1140      0.0100     78.3900
     70     15.2340     27.1110     19.2130      0.0100     78.3900
     71     16.8550     25.7130     18.9260      1.7700     78.3900
     72     17.0400     25.6150     20.0190      0.0100     78.3900
     73     17.1170     24.4060     18.3270      1.5900     78.3900
     74     18.4370     24.3730     17.7940      1.7700     78.3900
     75     18.9380     23.5150     18.2960      0.0100     78.3900
     76     18.4340     24.1780     16.3090      1.6800     78.3900
     77     17.3330     24.5170     15.5560      1.7700     78.3900
     78     16.5020     24.9390     16.1140      0.0100     78.3900
     79     19.5420     23.6220     15.7120      1.7700     78.3900
     80     20.5340     23.2730     16.3450      1.5900     78.3900
     81     19.4530     23.4580     14.3510      1.6800     78.3900
     82     20.2590     23.0470     13.8990      0.0100     78.3900
     83     18.3660     23.7200     13.5470      1.7700     78.3900
     84     18.4060     23.4700     12.3450      1.5900     78.3900
     85     17.2550     24.3010     14.2360      1.7700     78.3900
     86     16.3610     24.5440     13.6650      0.0100     78.3900
     87     19.1120     25.6690     18.2070      1.7700     78.3900
     88     19.8250     26.0300     17.4380      0.0100     78.3900
     89     19.7730     25.5090     19.4510      1.5900     78.3900
     90     19.8410     26.3950     19.8430      0.0100     78.3900
     91     17.9330     26.6270     18.3320      1.7700     78.3900
     92     17.5770     26.9410     17.3240      0.0100     78.3900
     93     18.1610     27.7430     19.2110      1.5900     78.3900
     94     18.7950     29.0820     18.6830      2.1000     78.3900
     95     17.9650     29.5850     17.5670      1.5900     78.3900
     96     18.9730     29.9780     19.8450      1.5900     78.3900
     97     20.2110     28.6670     18.1330      1.5900     78.3900
     98     20.8950     29.4720     17.1360      1.7700     78.3900
     99     21.4370     30.3100     17.6290      0.0100     78.3900
    100     20.1730     29.9210     16.4130      0.0100     78.3900
    101     21.9130     28.6520     16.3090      1.7700     78.3900
    102     22.8290     28.4420     16.9020      0.0100     78.3900
    103     21.3260     27.3700     15.9420      1.5900     78.3900
    104     21.6120     27.0470     14.5960      1.7700     78.3900
    105     22.0990     26.0420     14.6300      0.0100     78.3900
    106     20.3760     26.9850     13.7730      1.6800     78.3900
    107     19.1660     27.4460     14.2530      1.7700     78.3900
    108     19.1750     27.8520     15.2690      0.0100     78.3900
    109     20.4700     26.4240     12.5170      1.7700     78.3900
    110     21.5150     25.9600     12.0740      1.5900     78.3900
    111     19.3040     26.4140     11.8020      1.6800     78.3900
    112     19.3520     25.9830     10.8880      0.0100     78.3900
    113     18.0650     26.8550     12.2100      1.7700     78.3900
    114     17.0980     26.7600     11.4600      1.5900     78.3900
    115     18.0360     27.3930     13.5350      1.7700     78.3900
    116     17.0850     27.7410     13.9300      0.0100     78.3900
    117     22.5960     28.0800     14.0770      1.7700     78.3900
    118     22.4260     28.3290     13.0080      0.0100     78.3900
    119     23.9170     27.6130     14.2270      1.5900     78.3900
    120     24.4540     28.3420     14.5610      0.0100     78.3900
    121     22.3040     29.2810     14.9670      1.7700     78.3900
    122     21.3800     29.7880     14.5990      0.0100     78.3900
    123     23.4220     30.1880     15.1350      1.5900     78.3900
    124     23.5660     31.3380     14.0690      2.1000     78.3900
    125     22.8540     30.9420     12.8350      1.5900     78.3900
    126     23.1480     32.6100     14.6910      1.5900     78.3900
    127     25.1070     31.3790     13.7480      1.5900     78.3900
    128     25.9420     32.5260     14.0370      1.7700     78.3900
    129     25.3780     33.4100     14.4190      0.0100     78.3900
    130     26.4260     32.8530     13.0890      0.0100     78.3900
    131     27.0600     32.1780     15.0330      1.7700     78.3900
    132     27.9610     32.7990     14.8440      0.0100     78.3900
    133     26.6040     32.5020     16.3730      1.5900     78.3900
    134     27.1100     31.5490     17.2920      1.7700     78.3900
    135     27.7170     32.1190     18.0320      0.0100     78.3900
    136     26.0240     30.8700     18.0040      1.6800     78.3900
    137     24.8850     29.6830     19.4600      1.7700     78.3900
    138     23.9470     30.3030     18.6520      1.6800     78.3900
    139     24.6680     30.9970     17.8050      1.7700     78.3900
    140     24.2670     31.6260     17.0060      0.0100     78.3900
    141     25.8990     28.4290     21.1940      1.6800     78.3900
    142     27.0700     28.8120     20.6740      1.7700     78.3900
    143     27.9640     28.4540     21.2010      0.0100     78.3900
    144     27.3110     29.6360     19.6510      1.6800     78.3900
    145     26.1660     30.0270     19.0730      1.7700     78.3900
    146     24.7580     28.8430     20.5860      1.7700     78.3900
    147     23.5680     28.4450     21.0650      1.6800     78.3900
    148     22.7160     28.6750     20.5980      0.0100     78.3900
    149     23.5340     27.8150     21.8440      0.0100     78.3900
    150     28.0220     30.5960     16.5370      1.7700     78.3900
    151     27.9490     29.5490     16.9040      0.0100     78.3900
    152     29.3680     31.0360     16.6120      1.5900     78.3900
    153     29.8860     30.4410     16.0480      0.0100     78.3900
    154     27.4760     30.6980     15.1200      1.7700     78.3900
    155     26.5490     30.0820     15.0540      0.0100     78.3900
    156     28.4270     30.3900     14.0740      1.5900     78.3900
    157     28.6950     28.8730     13.7430      2.1000     78.3900
    158     27.4510     28.1080     13.9510      1.5900     78.3900
    159     29.3030     28.7830     12.3990      1.5900     78.3900
    160     29.7410     28.4220     14.8330      1.5900     78.3900
    161     29.8650     27.0220     15.1990      1.7700     78.3900
    162     30.6980     26.5600     14.6200      0.0100     78.3900
    163     28.9430     26.4270     14.9850      0.0100     78.3900
    164     30.1950     26.8940     16.6940      1.7700     78.3900
    165     31.0850     27.5140     16.9440      0.0100     78.3900
    166     29.0710     27.3240     17.5100      1.5900     78.3900
    167     28.4210     26.1910     18.0650      1.7700     78.3900
    168     28.6370     26.1990     19.1600      0.0100     78.3900
    169     26.9820     26.2570     17.8220      1.6800     78.3900
    170     24.8020     26.0990     17.9990      1.7700     78.3900
    171     25.0520     26.7070     16.7870      1.6800     78.3900
    172     26.3530     26.7830     16.7240      1.7700     78.3900
    173     26.9200     27.2470     15.9180      0.0100     78.3900
    174     23.7140     25.1760     19.8860      1.6800     78.3900
    175     24.9310     24.9850     20.3960      1.7700     78.3900
    176     24.9470     24.5070     21.3810      0.0100     78.3900
    177     26.1280     25.2140     19.8450      1.6800     78.3900
    178     25.9880     25.8030     18.6470      1.7700     78.3900
    179     23.6090     25.7710     18.6740      1.7700     78.3900
    180     22.3720     26.0340     18.2340      1.6800     78.3900
    181     22.2060     26.5870     17.4080      0.0100     78.3900
    182     21.5730     25.7340     18.7600      0.0100     78.3900
    183     29.0380     24.9600     17.4420      1.7700     78.3900
    184     28.5210     24.7220     16.4890      0.0100     78.3900
    185     29.0160     23.8510     18.3190      1.5900     78.3900
    186     29.2960     23.0500     17.8570      0.0100     78.3900
    187     30.4500     25.4390     17.1270      1.7700     78.3900
    188     30.8180     24.8640     16.2430      0.0100     78.3900
    189     31.3440     25.3680     18.2590      1.5900     78.3900
    190     32.8860     25.1680     18.0570      2.1000     78.3900
    191     33.4520     26.4200     17.5140      1.5900     78.3900
    192     33.4610     24.6750     19.3260      1.5900     78.3900
    193     33.0160     24.0280     16.9810      1.5900     78.3900
    194     34.1930     23.9870     16.1370      1.7700     78.3900
    195     35.1120     24.3390     16.6650      0.0100     78.3900
    196     34.0320     24.6440     15.2530      0.0100     78.3900
    197     34.4690     22.5760     15.6060      1.7700     78.3900
    198     35.3160     22.5780     14.8920      0.0100     78.3900
    199     34.8460     21.7070     16.7130      1.5900     78.3900
    200     34.2240     20.4410     16.5390      1.7700     78.3900
    201     35.0400     19.6830     16.5790      0.0100     78.3900
    202     33.2670     20.1640     17.6180      1.6800     78.3900
    203     32.7950     18.9270     17.9620      1.7700     78.3900
    204     32.6930     15.4970     17.4730      1.6800     78.3900
    205     32.2390     14.7000     17.8670      0.0100     78.3900
    206     33.2770     15.3820     16.6740      0.0100     78.3900
    207     33.1280     17.7630     17.3730      1.6800     78.3900
    208     32.4930     16.7240     17.9210      1.7700     78.3900
    209     31.6770     16.8340     19.0160      1.6800     78.3900
    210     31.2450     16.0030     19.3710      0.0100     78.3900
    211     31.3370     18.0220     19.6530      1.7700     78.3900
    212     30.5990     18.0450     20.6430      1.5900     78.3900
    213     31.9670     19.1390     19.0460      1.7700     78.3900
    214     31.9230     20.4880     19.3850      1.6800     78.3900
    215     32.7030     21.0620     18.5020      1.7700     78.3900
    216     32.9120     22.1310     18.4400      0.0100     78.3900
    217     33.5820     20.4130     15.1660      1.7700     78.3900
    218     32.6560     19.7980     15.1530      0.0100     78.3900
    219     34.5060     19.9260     14.2060      1.5900     78.3900
    220     34.1250     20.0670     13.3240      0.0100     78.3900
    221     33.2650     21.8870     14.9480      1.7700     78.3900
    222     32.3730     22.1650     15.5570      0.0100     78.3900
    223     33.1600     22.2930     13.5620      1.5900     78.3900
    224     31.7580     22.2520     12.8340      2.1000     78.3900
    225     31.3310     23.6460     12.5870      1.5900     78.3900
    226     31.8420     21.3880     11.6330      1.5900     78.3900
    227     30.7550     21.5910     13.8520      1.5900     78.3900
    228     29.3480     21.9130     13.7890      1.7700     78.3900
    229     28.8160     21.1830     13.1420      0.0100     78.3900
    230     29.1600     22.9300     13.3640      0.0100     78.3900
    231     28.7490     21.8490     15.1930      1.7700     78.3900
    232     29.5060     22.1000     15.9680      0.0100     78.3900
    233     27.6980     22.8450     15.2790      1.5900     78.3900
    234     26.6490     22.3740     16.1100      1.7700     78.3900
    235     26.5800     23.0990     16.9550      0.0100     78.3900
    236     25.3520     22.3230     15.3670      1.6800     78.3900
    237     25.3340     22.2100     13.9910      1.7700     78.3900
    238     26.3110     22.1460     13.5110      0.0100     78.3900
    239     24.1750     22.4450     16.0790      1.7700     78.3900
    240     24.1430     22.5570     17.2990      1.5900     78.3900
    241     23.0340     22.4250     15.3100      1.6800     78.3900
    242     22.1740     22.5860     15.8130      0.0100     78.3900
    243     22.9460     22.3510     13.9330      1.7700     78.3900
    244     21.8500     22.3890     13.3760      1.5900     78.3900
    245     24.2050     22.2250     13.2690      1.7700     78.3900
    246     24.2170     22.1770     12.1840      0.0100     78.3900
    247     27.0810     21.0160     16.6490      1.7700     78.3900
    248     26.2220     20.3190     16.7400      0.0100     78.3900
    249     27.7300     21.1380     17.9040      1.5900     78.3900
    250     27.9900     20.2360     18.1420      0.0100     78.3900
    251     28.0580     20.5350     15.5740      1.7700     78.3900
    252     27.5000     20.1960     14.6680      0.0100     78.3900
    253     29.0450     19.5640     16.0070      1.5900     78.3900
    254     28.5820     18.0750     16.2400      2.1000     78.3900
    255     27.5010     17.7790     15.2710      1.5900     78.3900
    256     29.7620     17.1910     16.1880      1.5900     78.3900
    257     27.9950     18.0300     17.7000      1.5900     78.3900
    258     27.0740     16.9600     18.0600      1.7700     78.3900
    259     27.6270     16.1310     18.5560      0.0100     78.3900
    260     26.5550     16.5190     17.1740      0.0100     78.3900
    261     25.9650     17.4500     19.0040      1.7700     78.3900
    262     26.3510     17.5660     20.0400      0.0100     78.3900
    263     25.4910     18.7590     18.5780      1.5900     78.3900
    264     24.0810     18.8040     18.6570      1.7700     78.3900
    265     23.8440     19.7290     19.2340      0.0100     78.3900
    266     23.4370     18.8830     17.3200      1.6800     78.3900
    267     24.1440     18.5460     16.1850      1.7700     78.3900
    268     25.1830     18.2330     16.3290      0.0100     78.3900
    269     23.5840     18.6190     14.9720      1.7700     78.3900
    270     24.1260     18.3600     14.0650      0.0100     78.3900
    271     22.1080     19.2880     17.2140      1.7700     78.3900
    272     21.4720     19.5660     18.2430      1.5900     78.3900
    273     21.5340     19.3810     15.9920      1.6800     78.3900
    274     22.2320     19.0540     14.8910      1.7700     78.3900
    275     21.6540     19.1520     13.6970      1.6800     78.3900
    276     20.7020     19.4620     13.6380      0.0100     78.3900
    277     22.1040     18.8450     12.8550      0.0100     78.3900
    278     23.6460     17.5910     19.4440      1.7700     78.3900
    279     22.6220     17.2530     19.1860      0.0100     78.3900
    280     23.7250     17.8700     20.8290      1.5900     78.3900
    281     23.5730     17.0390     21.2950      0.0100     78.3900
    282     24.6990     16.5740     19.0180      1.7700     78.3900
    283     24.5160     16.2500     17.9670      0.0100     78.3900
    284     24.8800     15.4660     19.9220      1.5900     78.3900
    285     24.1130     14.1130     19.6870      2.1000     78.3900
    286     24.2730     13.6940     18.2730      1.5900     78.3900
    287     24.5560     13.1530     20.7210      1.5900     78.3900
    288     22.6030     14.4860     19.9520      1.5900     78.3900
    289     22.1910     14.8230     21.3000      1.7700     78.3900
    290     22.8050     15.6480     21.7250      0.0100     78.3900
    291     22.3070     13.9450     21.9790      0.0100     78.3900
    292     20.7210     15.2550     21.3380      1.7700     78.3900
    293     20.3910     15.4700     22.3770      0.0100     78.3900
    294     20.5350     16.4720     20.5600      1.5900     78.3900
    295     19.2940     16.3920     19.8680      1.7700     78.3900
    296     18.7080     17.2930     20.1580      0.0100     78.3900
    297     19.4820     16.4000     18.4120      1.6800     78.3900
    298     18.5270     16.7280     17.4890      1.7700     78.3900
    299     15.2870     17.6830     16.7280      1.6800     78.3900
    300     14.8450     17.7090     17.6240      0.0100     78.3900
    301     14.7360     17.8720     15.9100      0.0100     78.3900
    302     17.2570     17.0800     17.7610      1.6800     78.3900
    303     16.5570     17.3380     16.6590      1.7700     78.3900
    304     17.0910     17.2680     15.3990      1.6800     78.3900
    305     16.4880     17.4670     14.6160      0.0100     78.3900
    306     18.3960     16.9070     15.0870      1.7700     78.3900
    307     18.7800     16.8710     13.9140      1.5900     78.3900
    308     19.1460     16.6130     16.2590      1.7700     78.3900
    309     20.4630     16.1830     16.4040      1.6800     78.3900
    310     20.6150     16.0680     17.7020      1.7700     78.3900
    311     21.5310     15.7550     18.2080      0.0100     78.3900
    312     18.5720     15.1460     20.3490      1.7700     78.3900
    313     17.9530     14.6840     19.5490      0.0100     78.3900
    314     17.7580     15.4610     21.4700      1.5900     78.3900
    315     17.4360     14.6330     21.8690      0.0100     78.3900
    316     19.7440     14.2470     20.7190      1.7700     78.3900
    317     20.2130     13.8260     19.8050      0.0100     78.3900
    318     19.4220     13.2080     21.6600      1.5900     78.3900
    319     18.8100     12.5740     21.2470      0.0100     78.3900

     ----------------------------
     INPUT FOR TESSERA DEFINITION
     ----------------------------
     NTSALL  =        60     MTHALL  =         4
     MTHAUT  =         0     AUTFRE  =    2.0000
     NTSFRZ  =        60     KEEPSM  =         0
     AREAKP  =   10.0000     BONDRY  =    1.0000
     AREATL  =    0.0100

     SPHERE     INITS       METHOD
          1        60       FIXPVA
          2        60       FIXPVA
          3        60       FIXPVA
          4        60       FIXPVA
          5        60       FIXPVA
          6        60       FIXPVA
          7        60       FIXPVA
          8        60       FIXPVA
          9        60       FIXPVA
         10        60       FIXPVA
         11        60       FIXPVA
         12        60       FIXPVA
         13        60       FIXPVA
         14        60       FIXPVA
         15        60       FIXPVA
         16        60       FIXPVA
         17        60       FIXPVA
         18        60       FIXPVA
         19        60       FIXPVA
         20        60       FIXPVA
         21        60       FIXPVA
         22        60       FIXPVA
         23        60       FIXPVA
         24        60       FIXPVA
         25        60       FIXPVA
         26        60       FIXPVA
         27        60       FIXPVA
         28        60       FIXPVA
         29        60       FIXPVA
         30        60       FIXPVA
         31        60       FIXPVA
         32        60       FIXPVA
         33        60       FIXPVA
         34        60       FIXPVA
         35        60       FIXPVA
         36        60       FIXPVA
         37        60       FIXPVA
         38        60       FIXPVA
         39        60       FIXPVA
         40        60       FIXPVA
         41        60       FIXPVA
         42        60       FIXPVA
         43        60       FIXPVA
         44        60       FIXPVA
         45        60       FIXPVA
         46        60       FIXPVA
         47        60       FIXPVA
         48        60       FIXPVA
         49        60       FIXPVA
         50        60       FIXPVA
         51        60       FIXPVA
         52        60       FIXPVA
         53        60       FIXPVA
         54        60       FIXPVA
         55        60       FIXPVA
         56        60       FIXPVA
         57        60       FIXPVA
         58        60       FIXPVA
         59        60       FIXPVA
         60        60       FIXPVA
         61        60       FIXPVA
         62        60       FIXPVA
         63        60       FIXPVA
         64        60       FIXPVA
         65        60       FIXPVA
         66        60       FIXPVA
         67        60       FIXPVA
         68        60       FIXPVA
         69        60       FIXPVA
         70        60       FIXPVA
         71        60       FIXPVA
         72        60       FIXPVA
         73        60       FIXPVA
         74        60       FIXPVA
         75        60       FIXPVA
         76        60       FIXPVA
         77        60       FIXPVA
         78        60       FIXPVA
         79        60       FIXPVA
         80        60       FIXPVA
         81        60       FIXPVA
         82        60       FIXPVA
         83        60       FIXPVA
         84        60       FIXPVA
         85        60       FIXPVA
         86        60       FIXPVA
         87        60       FIXPVA
         88        60       FIXPVA
         89        60       FIXPVA
         90        60       FIXPVA
         91        60       FIXPVA
         92        60       FIXPVA
         93        60       FIXPVA
         94        60       FIXPVA
         95        60       FIXPVA
         96        60       FIXPVA
         97        60       FIXPVA
         98        60       FIXPVA
         99        60       FIXPVA
        100        60       FIXPVA
        101        60       FIXPVA
        102        60       FIXPVA
        103        60       FIXPVA
        104        60       FIXPVA
        105        60       FIXPVA
        106        60       FIXPVA
        107        60       FIXPVA
        108        60       FIXPVA
        109        60       FIXPVA
        110        60       FIXPVA
        111        60       FIXPVA
        112        60       FIXPVA
        113        60       FIXPVA
        114        60       FIXPVA
        115        60       FIXPVA
        116        60       FIXPVA
        117        60       FIXPVA
        118        60       FIXPVA
        119        60       FIXPVA
        120        60       FIXPVA
        121        60       FIXPVA
        122        60       FIXPVA
        123        60       FIXPVA
        124        60       FIXPVA
        125        60       FIXPVA
        126        60       FIXPVA
        127        60       FIXPVA
        128        60       FIXPVA
        129        60       FIXPVA
        130        60       FIXPVA
        131        60       FIXPVA
        132        60       FIXPVA
        133        60       FIXPVA
        134        60       FIXPVA
        135        60       FIXPVA
        136        60       FIXPVA
        137        60       FIXPVA
        138        60       FIXPVA
        139        60       FIXPVA
        140        60       FIXPVA
        141        60       FIXPVA
        142        60       FIXPVA
        143        60       FIXPVA
        144        60       FIXPVA
        145        60       FIXPVA
        146        60       FIXPVA
        147        60       FIXPVA
        148        60       FIXPVA
        149        60       FIXPVA
        150        60       FIXPVA
        151        60       FIXPVA
        152        60       FIXPVA
        153        60       FIXPVA
        154        60       FIXPVA
        155        60       FIXPVA
        156        60       FIXPVA
        157        60       FIXPVA
        158        60       FIXPVA
        159        60       FIXPVA
        160        60       FIXPVA
        161        60       FIXPVA
        162        60       FIXPVA
        163        60       FIXPVA
        164        60       FIXPVA
        165        60       FIXPVA
        166        60       FIXPVA
        167        60       FIXPVA
        168        60       FIXPVA
        169        60       FIXPVA
        170        60       FIXPVA
        171        60       FIXPVA
        172        60       FIXPVA
        173        60       FIXPVA
        174        60       FIXPVA
        175        60       FIXPVA
        176        60       FIXPVA
        177        60       FIXPVA
        178        60       FIXPVA
        179        60       FIXPVA
        180        60       FIXPVA
        181        60       FIXPVA
        182        60       FIXPVA
        183        60       FIXPVA
        184        60       FIXPVA
        185        60       FIXPVA
        186        60       FIXPVA
        187        60       FIXPVA
        188        60       FIXPVA
        189        60       FIXPVA
        190        60       FIXPVA
        191        60       FIXPVA
        192        60       FIXPVA
        193        60       FIXPVA
        194        60       FIXPVA
        195        60       FIXPVA
        196        60       FIXPVA
        197        60       FIXPVA
        198        60       FIXPVA
        199        60       FIXPVA
        200        60       FIXPVA
        201        60       FIXPVA
        202        60       FIXPVA
        203        60       FIXPVA
        204        60       FIXPVA
        205        60       FIXPVA
        206        60       FIXPVA
        207        60       FIXPVA
        208        60       FIXPVA
        209        60       FIXPVA
        210        60       FIXPVA
        211        60       FIXPVA
        212        60       FIXPVA
        213        60       FIXPVA
        214        60       FIXPVA
        215        60       FIXPVA
        216        60       FIXPVA
        217        60       FIXPVA
        218        60       FIXPVA
        219        60       FIXPVA
        220        60       FIXPVA
        221        60       FIXPVA
        222        60       FIXPVA
        223        60       FIXPVA
        224        60       FIXPVA
        225        60       FIXPVA
        226        60       FIXPVA
        227        60       FIXPVA
        228        60       FIXPVA
        229        60       FIXPVA
        230        60       FIXPVA
        231        60       FIXPVA
        232        60       FIXPVA
        233        60       FIXPVA
        234        60       FIXPVA
        235        60       FIXPVA
        236        60       FIXPVA
        237        60       FIXPVA
        238        60       FIXPVA
        239        60       FIXPVA
        240        60       FIXPVA
        241        60       FIXPVA
        242        60       FIXPVA
        243        60       FIXPVA
        244        60       FIXPVA
        245        60       FIXPVA
        246        60       FIXPVA
        247        60       FIXPVA
        248        60       FIXPVA
        249        60       FIXPVA
        250        60       FIXPVA
        251        60       FIXPVA
        252        60       FIXPVA
        253        60       FIXPVA
        254        60       FIXPVA
        255        60       FIXPVA
        256        60       FIXPVA
        257        60       FIXPVA
        258        60       FIXPVA
        259        60       FIXPVA
        260        60       FIXPVA
        261        60       FIXPVA
        262        60       FIXPVA
        263        60       FIXPVA
        264        60       FIXPVA
        265        60       FIXPVA
        266        60       FIXPVA
        267        60       FIXPVA
        268        60       FIXPVA
        269        60       FIXPVA
        270        60       FIXPVA
        271        60       FIXPVA
        272        60       FIXPVA
        273        60       FIXPVA
        274        60       FIXPVA
        275        60       FIXPVA
        276        60       FIXPVA
        277        60       FIXPVA
        278        60       FIXPVA
        279        60       FIXPVA
        280        60       FIXPVA
        281        60       FIXPVA
        282        60       FIXPVA
        283        60       FIXPVA
        284        60       FIXPVA
        285        60       FIXPVA
        286        60       FIXPVA
        287        60       FIXPVA
        288        60       FIXPVA
        289        60       FIXPVA
        290        60       FIXPVA
        291        60       FIXPVA
        292        60       FIXPVA
        293        60       FIXPVA
        294        60       FIXPVA
        295        60       FIXPVA
        296        60       FIXPVA
        297        60       FIXPVA
        298        60       FIXPVA
        299        60       FIXPVA
        300        60       FIXPVA
        301        60       FIXPVA
        302        60       FIXPVA
        303        60       FIXPVA
        304        60       FIXPVA
        305        60       FIXPVA
        306        60       FIXPVA
        307        60       FIXPVA
        308        60       FIXPVA
        309        60       FIXPVA
        310        60       FIXPVA
        311        60       FIXPVA
        312        60       FIXPVA
        313        60       FIXPVA
        314        60       FIXPVA
        315        60       FIXPVA
        316        60       FIXPVA
        317        60       FIXPVA
        318        60       FIXPVA
        319        60       FIXPVA

     ------------------------------
      FIXPVA TESSELLATION FOR PCM
         PEIFENG SU AND HUI LI
     UNIVERSITY OF NEBRASKA-LINCOLN
     ------------------------------


 PCM DIMENSIONS: MXSP=   319, MXTS=     12760, MEMORY=        131112

     INPUT FOR CAVITY DEFINITION 
     ---------------------------
   ATOM               COORDINATES                RADIUS       EPS
      1     11.5810     20.1970      7.9560      0.0100     78.3900
      2     11.7190     20.0430      8.9100      1.5900     78.3900
      3     10.4180     20.0750      9.5170      1.7700     78.3900
      4      9.7980     19.2500      9.0960      0.0100     78.3900
      5      9.9280     21.0400      9.2610      0.0100     78.3900
      6     10.4510     19.9370     11.0440      1.7700     78.3900
      7      9.4260     20.0050     11.4670      0.0100     78.3900
      8     10.9820     18.6320     11.4200      1.5900     78.3900
      9     11.8090     18.7790     12.5670      1.7700     78.3900
     10     11.3990     18.0760     13.3300      0.0100     78.3900
     11     13.2360     18.4320     12.3050      1.6800     78.3900
     12     13.7140     18.3940     11.0140      1.7700     78.3900
     13     12.9960     18.6210     10.2250      0.0100     78.3900
     14     14.9820     18.0620     10.7470      1.7700     78.3900
     15     15.3620     18.0090      9.7270      0.0100     78.3900
     16     14.1020     18.1660     13.3630      1.7700     78.3900
     17     13.6740     18.2330     14.5260      1.5900     78.3900
     18     15.3850     17.8170     13.1130      1.6800     78.3900
     19     15.8310     17.7530     11.8460      1.7700     78.3900
     20     17.0880     17.3720     11.6200      1.6800     78.3900
     21     17.7010     17.1980     12.3960      0.0100     78.3900
     22     17.4520     17.2880     10.6900      0.0100     78.3900
     23     11.6350     20.1980     13.0680      1.7700     78.3900
     24     12.5410     20.5850     13.5730      0.0100     78.3900
     25     10.5330     20.2840     13.9490      1.5900     78.3900
     26     10.5130     21.2060     14.2320      0.0100     78.3900
     27     11.3500     20.9460     11.7720      1.7700     78.3900
     28     12.2830     21.0430     11.1670      0.0100     78.3900
     29     10.6470     22.1980     11.9280      1.5900     78.3900
     30     11.4670     23.5320     12.0870      2.1000     78.3900
     31     12.5320     23.5630     11.0650      1.5900     78.3900
     32     10.5110     24.6600     12.0870      1.5900     78.3900
     33     12.1240     23.3970     13.5140      1.5900     78.3900
     34     11.2970     23.4890     14.6990      1.7700     78.3900
     35     10.4360     22.7830     14.6600      0.0100     78.3900
     36     10.8750     24.5170     14.7990      0.0100     78.3900
     37     12.1070     23.1850     15.9650      1.7700     78.3900
     38     11.4620     23.2140     16.8680      0.0100     78.3900
     39     12.6820     21.8490     15.8810      1.5900     78.3900
     40     13.9740     21.8580     16.4680      1.7700     78.3900
     41     13.9660     21.0830     17.2640      0.0100     78.3900
     42     15.0260     21.5210     15.4990      1.6800     78.3900
     43     16.2960     21.0940     15.7910      1.7700     78.3900
     44     18.7750     20.3810     18.1090      1.6800     78.3900
     45     18.3260     20.5730     18.9790      0.0100     78.3900
     46     19.7350     20.0860     18.1100      0.0100     78.3900
     47     16.8150     20.9320     17.0230      1.6800     78.3900
     48     18.0870     20.5450     16.9930      1.7700     78.3900
     49     18.7590     20.2760     15.8280      1.6800     78.3900
     50     19.7190     19.9720     15.8920      0.0100     78.3900
     51     18.2400     20.3990     14.5440      1.7700     78.3900
     52     18.9260     20.1320     13.5530      1.5900     78.3900
     53     16.9010     20.8730     14.5690      1.7700     78.3900
     54     16.0370     21.1880     13.5270      1.6800     78.3900
     55     14.9380     21.5720     14.1270      1.7700     78.3900
     56     14.0270     21.9090     13.6290      0.0100     78.3900
     57     14.1780     23.2190     17.0890      1.7700     78.3900
     58     15.2390     23.5370     17.0730      0.0100     78.3900
     59     13.6970     23.2050     18.4190      1.5900     78.3900
     60     13.6480     24.1250     18.7090      0.0100     78.3900
     61     13.3160     24.1050     16.2020      1.7700     78.3900
     62     13.7970     24.2630     15.2100      0.0100     78.3900
     63     12.8910     25.3370     16.8220      1.5900     78.3900
     64     13.7400     26.6560     16.6570      2.1000     78.3900
     65     13.9060     26.9260     15.2130      1.5900     78.3900
     66     13.0820     27.7090     17.4660      1.5900     78.3900
     67     15.1520     26.3260     17.2560      1.5900     78.3900
     68     15.4010     26.1560     18.6650      1.7700     78.3900
     69     14.7150     25.4080     19.1140      0.0100     78.3900
     70     15.2340     27.1110     19.2130      0.0100     78.3900
     71     16.8550     25.7130     18.9260      1.7700     78.3900
     72     17.0400     25.6150     20.0190      0.0100     78.3900
     73     17.1170     24.4060     18.3270      1.5900     78.3900
     74     18.4370     24.3730     17.7940      1.7700     78.3900
     75     18.9380     23.5150     18.2960      0.0100     78.3900
     76     18.4340     24.1780     16.3090      1.6800     78.3900
     77     17.3330     24.5170     15.5560      1.7700     78.3900
     78     16.5020     24.9390     16.1140      0.0100     78.3900
     79     19.5420     23.6220     15.7120      1.7700     78.3900
     80     20.5340     23.2730     16.3450      1.5900     78.3900
     81     19.4530     23.4580     14.3510      1.6800     78.3900
     82     20.2590     23.0470     13.8990      0.0100     78.3900
     83     18.3660     23.7200     13.5470      1.7700     78.3900
     84     18.4060     23.4700     12.3450      1.5900     78.3900
     85     17.2550     24.3010     14.2360      1.7700     78.3900
     86     16.3610     24.5440     13.6650      0.0100     78.3900
     87     19.1120     25.6690     18.2070      1.7700     78.3900
     88     19.8250     26.0300     17.4380      0.0100     78.3900
     89     19.7730     25.5090     19.4510      1.5900     78.3900
     90     19.8410     26.3950     19.8430      0.0100     78.3900
     91     17.9330     26.6270     18.3320      1.7700     78.3900
     92     17.5770     26.9410     17.3240      0.0100     78.3900
     93     18.1610     27.7430     19.2110      1.5900     78.3900
     94     18.7950     29.0820     18.6830      2.1000     78.3900
     95     17.9650     29.5850     17.5670      1.5900     78.3900
     96     18.9730     29.9780     19.8450      1.5900     78.3900
     97     20.2110     28.6670     18.1330      1.5900     78.3900
     98     20.8950     29.4720     17.1360      1.7700     78.3900
     99     21.4370     30.3100     17.6290      0.0100     78.3900
    100     20.1730     29.9210     16.4130      0.0100     78.3900
    101     21.9130     28.6520     16.3090      1.7700     78.3900
    102     22.8290     28.4420     16.9020      0.0100     78.3900
    103     21.3260     27.3700     15.9420      1.5900     78.3900
    104     21.6120     27.0470     14.5960      1.7700     78.3900
    105     22.0990     26.0420     14.6300      0.0100     78.3900
    106     20.3760     26.9850     13.7730      1.6800     78.3900
    107     19.1660     27.4460     14.2530      1.7700     78.3900
    108     19.1750     27.8520     15.2690      0.0100     78.3900
    109     20.4700     26.4240     12.5170      1.7700     78.3900
    110     21.5150     25.9600     12.0740      1.5900     78.3900
    111     19.3040     26.4140     11.8020      1.6800     78.3900
    112     19.3520     25.9830     10.8880      0.0100     78.3900
    113     18.0650     26.8550     12.2100      1.7700     78.3900
    114     17.0980     26.7600     11.4600      1.5900     78.3900
    115     18.0360     27.3930     13.5350      1.7700     78.3900
    116     17.0850     27.7410     13.9300      0.0100     78.3900
    117     22.5960     28.0800     14.0770      1.7700     78.3900
    118     22.4260     28.3290     13.0080      0.0100     78.3900
    119     23.9170     27.6130     14.2270      1.5900     78.3900
    120     24.4540     28.3420     14.5610      0.0100     78.3900
    121     22.3040     29.2810     14.9670      1.7700     78.3900
    122     21.3800     29.7880     14.5990      0.0100     78.3900
    123     23.4220     30.1880     15.1350      1.5900     78.3900
    124     23.5660     31.3380     14.0690      2.1000     78.3900
    125     22.8540     30.9420     12.8350      1.5900     78.3900
    126     23.1480     32.6100     14.6910      1.5900     78.3900
    127     25.1070     31.3790     13.7480      1.5900     78.3900
    128     25.9420     32.5260     14.0370      1.7700     78.3900
    129     25.3780     33.4100     14.4190      0.0100     78.3900
    130     26.4260     32.8530     13.0890      0.0100     78.3900
    131     27.0600     32.1780     15.0330      1.7700     78.3900
    132     27.9610     32.7990     14.8440      0.0100     78.3900
    133     26.6040     32.5020     16.3730      1.5900     78.3900
    134     27.1100     31.5490     17.2920      1.7700     78.3900
    135     27.7170     32.1190     18.0320      0.0100     78.3900
    136     26.0240     30.8700     18.0040      1.6800     78.3900
    137     24.8850     29.6830     19.4600      1.7700     78.3900
    138     23.9470     30.3030     18.6520      1.6800     78.3900
    139     24.6680     30.9970     17.8050      1.7700     78.3900
    140     24.2670     31.6260     17.0060      0.0100     78.3900
    141     25.8990     28.4290     21.1940      1.6800     78.3900
    142     27.0700     28.8120     20.6740      1.7700     78.3900
    143     27.9640     28.4540     21.2010      0.0100     78.3900
    144     27.3110     29.6360     19.6510      1.6800     78.3900
    145     26.1660     30.0270     19.0730      1.7700     78.3900
    146     24.7580     28.8430     20.5860      1.7700     78.3900
    147     23.5680     28.4450     21.0650      1.6800     78.3900
    148     22.7160     28.6750     20.5980      0.0100     78.3900
    149     23.5340     27.8150     21.8440      0.0100     78.3900
    150     28.0220     30.5960     16.5370      1.7700     78.3900
    151     27.9490     29.5490     16.9040      0.0100     78.3900
    152     29.3680     31.0360     16.6120      1.5900     78.3900
    153     29.8860     30.4410     16.0480      0.0100     78.3900
    154     27.4760     30.6980     15.1200      1.7700     78.3900
    155     26.5490     30.0820     15.0540      0.0100     78.3900
    156     28.4270     30.3900     14.0740      1.5900     78.3900
    157     28.6950     28.8730     13.7430      2.1000     78.3900
    158     27.4510     28.1080     13.9510      1.5900     78.3900
    159     29.3030     28.7830     12.3990      1.5900     78.3900
    160     29.7410     28.4220     14.8330      1.5900     78.3900
    161     29.8650     27.0220     15.1990      1.7700     78.3900
    162     30.6980     26.5600     14.6200      0.0100     78.3900
    163     28.9430     26.4270     14.9850      0.0100     78.3900
    164     30.1950     26.8940     16.6940      1.7700     78.3900
    165     31.0850     27.5140     16.9440      0.0100     78.3900
    166     29.0710     27.3240     17.5100      1.5900     78.3900
    167     28.4210     26.1910     18.0650      1.7700     78.3900
    168     28.6370     26.1990     19.1600      0.0100     78.3900
    169     26.9820     26.2570     17.8220      1.6800     78.3900
    170     24.8020     26.0990     17.9990      1.7700     78.3900
    171     25.0520     26.7070     16.7870      1.6800     78.3900
    172     26.3530     26.7830     16.7240      1.7700     78.3900
    173     26.9200     27.2470     15.9180      0.0100     78.3900
    174     23.7140     25.1760     19.8860      1.6800     78.3900
    175     24.9310     24.9850     20.3960      1.7700     78.3900
    176     24.9470     24.5070     21.3810      0.0100     78.3900
    177     26.1280     25.2140     19.8450      1.6800     78.3900
    178     25.9880     25.8030     18.6470      1.7700     78.3900
    179     23.6090     25.7710     18.6740      1.7700     78.3900
    180     22.3720     26.0340     18.2340      1.6800     78.3900
    181     22.2060     26.5870     17.4080      0.0100     78.3900
    182     21.5730     25.7340     18.7600      0.0100     78.3900
    183     29.0380     24.9600     17.4420      1.7700     78.3900
    184     28.5210     24.7220     16.4890      0.0100     78.3900
    185     29.0160     23.8510     18.3190      1.5900     78.3900
    186     29.2960     23.0500     17.8570      0.0100     78.3900
    187     30.4500     25.4390     17.1270      1.7700     78.3900
    188     30.8180     24.8640     16.2430      0.0100     78.3900
    189     31.3440     25.3680     18.2590      1.5900     78.3900
    190     32.8860     25.1680     18.0570      2.1000     78.3900
    191     33.4520     26.4200     17.5140      1.5900     78.3900
    192     33.4610     24.6750     19.3260      1.5900     78.3900
    193     33.0160     24.0280     16.9810      1.5900     78.3900
    194     34.1930     23.9870     16.1370      1.7700     78.3900
    195     35.1120     24.3390     16.6650      0.0100     78.3900
    196     34.0320     24.6440     15.2530      0.0100     78.3900
    197     34.4690     22.5760     15.6060      1.7700     78.3900
    198     35.3160     22.5780     14.8920      0.0100     78.3900
    199     34.8460     21.7070     16.7130      1.5900     78.3900
    200     34.2240     20.4410     16.5390      1.7700     78.3900
    201     35.0400     19.6830     16.5790      0.0100     78.3900
    202     33.2670     20.1640     17.6180      1.6800     78.3900
    203     32.7950     18.9270     17.9620      1.7700     78.3900
    204     32.6930     15.4970     17.4730      1.6800     78.3900
    205     32.2390     14.7000     17.8670      0.0100     78.3900
    206     33.2770     15.3820     16.6740      0.0100     78.3900
    207     33.1280     17.7630     17.3730      1.6800     78.3900
    208     32.4930     16.7240     17.9210      1.7700     78.3900
    209     31.6770     16.8340     19.0160      1.6800     78.3900
    210     31.2450     16.0030     19.3710      0.0100     78.3900
    211     31.3370     18.0220     19.6530      1.7700     78.3900
    212     30.5990     18.0450     20.6430      1.5900     78.3900
    213     31.9670     19.1390     19.0460      1.7700     78.3900
    214     31.9230     20.4880     19.3850      1.6800     78.3900
    215     32.7030     21.0620     18.5020      1.7700     78.3900
    216     32.9120     22.1310     18.4400      0.0100     78.3900
    217     33.5820     20.4130     15.1660      1.7700     78.3900
    218     32.6560     19.7980     15.1530      0.0100     78.3900
    219     34.5060     19.9260     14.2060      1.5900     78.3900
    220     34.1250     20.0670     13.3240      0.0100     78.3900
    221     33.2650     21.8870     14.9480      1.7700     78.3900
    222     32.3730     22.1650     15.5570      0.0100     78.3900
    223     33.1600     22.2930     13.5620      1.5900     78.3900
    224     31.7580     22.2520     12.8340      2.1000     78.3900
    225     31.3310     23.6460     12.5870      1.5900     78.3900
    226     31.8420     21.3880     11.6330      1.5900     78.3900
    227     30.7550     21.5910     13.8520      1.5900     78.3900
    228     29.3480     21.9130     13.7890      1.7700     78.3900
    229     28.8160     21.1830     13.1420      0.0100     78.3900
    230     29.1600     22.9300     13.3640      0.0100     78.3900
    231     28.7490     21.8490     15.1930      1.7700     78.3900
    232     29.5060     22.1000     15.9680      0.0100     78.3900
    233     27.6980     22.8450     15.2790      1.5900     78.3900
    234     26.6490     22.3740     16.1100      1.7700     78.3900
    235     26.5800     23.0990     16.9550      0.0100     78.3900
    236     25.3520     22.3230     15.3670      1.6800     78.3900
    237     25.3340     22.2100     13.9910      1.7700     78.3900
    238     26.3110     22.1460     13.5110      0.0100     78.3900
    239     24.1750     22.4450     16.0790      1.7700     78.3900
    240     24.1430     22.5570     17.2990      1.5900     78.3900
    241     23.0340     22.4250     15.3100      1.6800     78.3900
    242     22.1740     22.5860     15.8130      0.0100     78.3900
    243     22.9460     22.3510     13.9330      1.7700     78.3900
    244     21.8500     22.3890     13.3760      1.5900     78.3900
    245     24.2050     22.2250     13.2690      1.7700     78.3900
    246     24.2170     22.1770     12.1840      0.0100     78.3900
    247     27.0810     21.0160     16.6490      1.7700     78.3900
    248     26.2220     20.3190     16.7400      0.0100     78.3900
    249     27.7300     21.1380     17.9040      1.5900     78.3900
    250     27.9900     20.2360     18.1420      0.0100     78.3900
    251     28.0580     20.5350     15.5740      1.7700     78.3900
    252     27.5000     20.1960     14.6680      0.0100     78.3900
    253     29.0450     19.5640     16.0070      1.5900     78.3900
    254     28.5820     18.0750     16.2400      2.1000     78.3900
    255     27.5010     17.7790     15.2710      1.5900     78.3900
    256     29.7620     17.1910     16.1880      1.5900     78.3900
    257     27.9950     18.0300     17.7000      1.5900     78.3900
    258     27.0740     16.9600     18.0600      1.7700     78.3900
    259     27.6270     16.1310     18.5560      0.0100     78.3900
    260     26.5550     16.5190     17.1740      0.0100     78.3900
    261     25.9650     17.4500     19.0040      1.7700     78.3900
    262     26.3510     17.5660     20.0400      0.0100     78.3900
    263     25.4910     18.7590     18.5780      1.5900     78.3900
    264     24.0810     18.8040     18.6570      1.7700     78.3900
    265     23.8440     19.7290     19.2340      0.0100     78.3900
    266     23.4370     18.8830     17.3200      1.6800     78.3900
    267     24.1440     18.5460     16.1850      1.7700     78.3900
    268     25.1830     18.2330     16.3290      0.0100     78.3900
    269     23.5840     18.6190     14.9720      1.7700     78.3900
    270     24.1260     18.3600     14.0650      0.0100     78.3900
    271     22.1080     19.2880     17.2140      1.7700     78.3900
    272     21.4720     19.5660     18.2430      1.5900     78.3900
    273     21.5340     19.3810     15.9920      1.6800     78.3900
    274     22.2320     19.0540     14.8910      1.7700     78.3900
    275     21.6540     19.1520     13.6970      1.6800     78.3900
    276     20.7020     19.4620     13.6380      0.0100     78.3900
    277     22.1040     18.8450     12.8550      0.0100     78.3900
    278     23.6460     17.5910     19.4440      1.7700     78.3900
    279     22.6220     17.2530     19.1860      0.0100     78.3900
    280     23.7250     17.8700     20.8290      1.5900     78.3900
    281     23.5730     17.0390     21.2950      0.0100     78.3900
    282     24.6990     16.5740     19.0180      1.7700     78.3900
    283     24.5160     16.2500     17.9670      0.0100     78.3900
    284     24.8800     15.4660     19.9220      1.5900     78.3900
    285     24.1130     14.1130     19.6870      2.1000     78.3900
    286     24.2730     13.6940     18.2730      1.5900     78.3900
    287     24.5560     13.1530     20.7210      1.5900     78.3900
    288     22.6030     14.4860     19.9520      1.5900     78.3900
    289     22.1910     14.8230     21.3000      1.7700     78.3900
    290     22.8050     15.6480     21.7250      0.0100     78.3900
    291     22.3070     13.9450     21.9790      0.0100     78.3900
    292     20.7210     15.2550     21.3380      1.7700     78.3900
    293     20.3910     15.4700     22.3770      0.0100     78.3900
    294     20.5350     16.4720     20.5600      1.5900     78.3900
    295     19.2940     16.3920     19.8680      1.7700     78.3900
    296     18.7080     17.2930     20.1580      0.0100     78.3900
    297     19.4820     16.4000     18.4120      1.6800     78.3900
    298     18.5270     16.7280     17.4890      1.7700     78.3900
    299     15.2870     17.6830     16.7280      1.6800     78.3900
    300     14.8450     17.7090     17.6240      0.0100     78.3900
    301     14.7360     17.8720     15.9100      0.0100     78.3900
    302     17.2570     17.0800     17.7610      1.6800     78.3900
    303     16.5570     17.3380     16.6590      1.7700     78.3900
    304     17.0910     17.2680     15.3990      1.6800     78.3900
    305     16.4880     17.4670     14.6160      0.0100     78.3900
    306     18.3960     16.9070     15.0870      1.7700     78.3900
    307     18.7800     16.8710     13.9140      1.5900     78.3900
    308     19.1460     16.6130     16.2590      1.7700     78.3900
    309     20.4630     16.1830     16.4040      1.6800     78.3900
    310     20.6150     16.0680     17.7020      1.7700     78.3900
    311     21.5310     15.7550     18.2080      0.0100     78.3900
    312     18.5720     15.1460     20.3490      1.7700     78.3900
    313     17.9530     14.6840     19.5490      0.0100     78.3900
    314     17.7580     15.4610     21.4700      1.5900     78.3900
    315     17.4360     14.6330     21.8690      0.0100     78.3900
    316     19.7440     14.2470     20.7190      1.7700     78.3900
    317     20.2130     13.8260     19.8050      0.0100     78.3900
    318     19.4220     13.2080     21.6600      1.5900     78.3900
    319     18.8100     12.5740     21.2470      0.0100     78.3900

 CREATION OF A NEW CAVITY WITH THE ORIGINAL SPHERE
 SIZES FOR THE COMPUTATION OF THE CAVITATION ENERGY.

     INPUT FOR CAVITY DEFINITION 
     ---------------------------
   ATOM               COORDINATES                RADIUS       EPS
      1     11.5810     20.1970      7.9560      0.0100     78.3900
      2     11.7190     20.0430      8.9100      1.5900     78.3900
      3     10.4180     20.0750      9.5170      1.7700     78.3900
      4      9.7980     19.2500      9.0960      0.0100     78.3900
      5      9.9280     21.0400      9.2610      0.0100     78.3900
      6     10.4510     19.9370     11.0440      1.7700     78.3900
      7      9.4260     20.0050     11.4670      0.0100     78.3900
      8     10.9820     18.6320     11.4200      1.5900     78.3900
      9     11.8090     18.7790     12.5670      1.7700     78.3900
     10     11.3990     18.0760     13.3300      0.0100     78.3900
     11     13.2360     18.4320     12.3050      1.6800     78.3900
     12     13.7140     18.3940     11.0140      1.7700     78.3900
     13     12.9960     18.6210     10.2250      0.0100     78.3900
     14     14.9820     18.0620     10.7470      1.7700     78.3900
     15     15.3620     18.0090      9.7270      0.0100     78.3900
     16     14.1020     18.1660     13.3630      1.7700     78.3900
     17     13.6740     18.2330     14.5260      1.5900     78.3900
     18     15.3850     17.8170     13.1130      1.6800     78.3900
     19     15.8310     17.7530     11.8460      1.7700     78.3900
     20     17.0880     17.3720     11.6200      1.6800     78.3900
     21     17.7010     17.1980     12.3960      0.0100     78.3900
     22     17.4520     17.2880     10.6900      0.0100     78.3900
     23     11.6350     20.1980     13.0680      1.7700     78.3900
     24     12.5410     20.5850     13.5730      0.0100     78.3900
     25     10.5330     20.2840     13.9490      1.5900     78.3900
     26     10.5130     21.2060     14.2320      0.0100     78.3900
     27     11.3500     20.9460     11.7720      1.7700     78.3900
     28     12.2830     21.0430     11.1670      0.0100     78.3900
     29     10.6470     22.1980     11.9280      1.5900     78.3900
     30     11.4670     23.5320     12.0870      2.1000     78.3900
     31     12.5320     23.5630     11.0650      1.5900     78.3900
     32     10.5110     24.6600     12.0870      1.5900     78.3900
     33     12.1240     23.3970     13.5140      1.5900     78.3900
     34     11.2970     23.4890     14.6990      1.7700     78.3900
     35     10.4360     22.7830     14.6600      0.0100     78.3900
     36     10.8750     24.5170     14.7990      0.0100     78.3900
     37     12.1070     23.1850     15.9650      1.7700     78.3900
     38     11.4620     23.2140     16.8680      0.0100     78.3900
     39     12.6820     21.8490     15.8810      1.5900     78.3900
     40     13.9740     21.8580     16.4680      1.7700     78.3900
     41     13.9660     21.0830     17.2640      0.0100     78.3900
     42     15.0260     21.5210     15.4990      1.6800     78.3900
     43     16.2960     21.0940     15.7910      1.7700     78.3900
     44     18.7750     20.3810     18.1090      1.6800     78.3900
     45     18.3260     20.5730     18.9790      0.0100     78.3900
     46     19.7350     20.0860     18.1100      0.0100     78.3900
     47     16.8150     20.9320     17.0230      1.6800     78.3900
     48     18.0870     20.5450     16.9930      1.7700     78.3900
     49     18.7590     20.2760     15.8280      1.6800     78.3900
     50     19.7190     19.9720     15.8920      0.0100     78.3900
     51     18.2400     20.3990     14.5440      1.7700     78.3900
     52     18.9260     20.1320     13.5530      1.5900     78.3900
     53     16.9010     20.8730     14.5690      1.7700     78.3900
     54     16.0370     21.1880     13.5270      1.6800     78.3900
     55     14.9380     21.5720     14.1270      1.7700     78.3900
     56     14.0270     21.9090     13.6290      0.0100     78.3900
     57     14.1780     23.2190     17.0890      1.7700     78.3900
     58     15.2390     23.5370     17.0730      0.0100     78.3900
     59     13.6970     23.2050     18.4190      1.5900     78.3900
     60     13.6480     24.1250     18.7090      0.0100     78.3900
     61     13.3160     24.1050     16.2020      1.7700     78.3900
[...]
   267    9   6.0   2.59    4.6   -0.016204    0.166754    0.158532
   268    9   1.0   0.00    0.0    0.000000    0.321303    0.330332
   269    9   6.0  11.15   19.7   -0.048162   -0.408482   -0.417050
   270    9   1.0   0.00    0.0    0.000000    0.271163    0.278034
   271    9   6.0   0.00    0.0    0.000000    1.071846    1.090080
   272    9   8.0   6.27   13.7    0.112922   -0.792359   -0.769379
   273    9   7.0   0.00    0.0    0.000000   -0.860705   -0.863764
   274    9   6.0   0.90    1.6    0.008006    0.738525    0.752222
   275    9   7.0  12.56   24.6   -0.099519   -0.947640   -1.004187
   276    9   1.0   0.00    0.0    0.000000    0.467457    0.507305
   277    9   1.0   0.00    0.0    0.000000    0.446584    0.446171
   278    9   6.0   0.00    0.0    0.000002    0.135481    0.107726
   279    9   1.0   0.00    0.0    0.000000    0.213519    0.243258
   280    9   8.0  16.28   35.6    0.102305   -0.827605   -0.845602
   281    9   1.0   0.00    0.0    0.000000    0.495414    0.524532
   282    9   6.0   0.95    1.7   -0.023456    0.136303    0.094674
   283    9   1.0   0.00    0.0    0.000000    0.232950    0.233191
   284    9   8.0   5.07   11.1    0.057899   -0.790630   -0.792759
   285    9  15.0  10.00   12.5    0.139462    1.604237    1.660110
   286    9   8.0  15.27   33.4    0.323026   -0.897306   -0.896150
   287    9   8.0  18.13   39.6    0.355249   -0.896301   -0.888451
   288    9   8.0   1.56    3.4    0.023816   -0.970661   -0.787829
   289   10   6.0  11.37   20.1   -0.085456    0.214025   -0.028122
   290   10   1.0   0.00    0.0    0.000000    0.138666    0.163451
   291   10   1.0   0.00    0.0    0.000000    0.245424    0.228190
   292   10   6.0   6.13   10.8   -0.042778    0.094570    0.156667
   293   10   1.0   0.00    0.0    0.000000    0.251576    0.223610
   294   10   8.0   3.40    7.4    0.049360   -0.723755   -0.731867
   295   10   6.0   4.62    8.1   -0.039594    0.422023    0.421958
   296   10   1.0   0.00    0.0    0.000000    0.248986    0.244956
   297   10   7.0   0.00    0.0   -0.000008   -0.792681   -0.802626
   298   10   6.0   1.89    3.3    0.003759    0.711697    0.713212
   299   10   7.0  15.01   29.4   -0.082346   -0.969546   -1.052725
   300   10   1.0   0.00    0.0    0.000000    0.443580    0.439943
   301   10   1.0   0.00    0.0    0.000000    0.474355    0.525479
   302   10   7.0   7.09   13.9    0.110352   -0.757551   -0.757346
   303   10   6.0   1.93    3.4   -0.003195    0.976726    0.971193
   304   10   7.0   2.52    4.9    0.005310   -0.936669   -1.026454
   305   10   1.0   0.00    0.0    0.000000    0.484773    0.544244
   306   10   6.0   2.83    5.0    0.001624    0.873485    0.868777
   307   10   8.0  10.63   23.2    0.157492   -0.758461   -0.741594
   308   10   6.0   2.66    4.7    0.014846   -0.047263   -0.041856
   309   10   7.0   8.14   15.9    0.136843   -0.597363   -0.600754
   310   10   6.0   2.84    5.0    0.012884    0.278438    0.271306
   311   10   1.0   0.00    0.0    0.000000    0.266715    0.282784
   312   10   6.0   6.43   11.3   -0.056790    0.113929    0.114385
   313   10   1.0   0.00    0.0    0.000000    0.223901    0.224155
   314   10   8.0  20.30   44.4    0.048198   -0.839234   -0.840717
   315   10   1.0   0.00    0.0    0.000000    0.501090    0.501922
   316   10   6.0   7.40   13.0   -0.060332    0.161503    0.146027
   317   10   1.0   0.00    0.0    0.000000    0.223244    0.225997
   318   10   8.0  22.34   48.8   -0.017850   -0.850804   -0.854402
   319   10   1.0   0.00    0.0    0.000000    0.508135    0.508249

 Done with FMO properties.
 CPU     0: STEP CPU TIME=     0.00 TOTAL CPU TIME=      18106.0 (    301.8 MIN)
 TOTAL WALL CLOCK TIME=      39086.8 SECONDS, CPU UTILIZATION IS    46.32%
 CPU     0: STEP CPU TIME=     0.00 TOTAL CPU TIME=      18106.0 (    301.8 MIN)
 TOTAL WALL CLOCK TIME=      39086.9 SECONDS, CPU UTILIZATION IS    46.32%

 Total timing statistics in pairs (CPU,wall) for each rank, sec

    Rank   total     SCF    corr     DFT    CPHF     EFP    solv     ESP    geom
 -------------------------------------------------------------------------------
       1   18106.0   4919.7   6921.6      0.0    0.0   0.0  136.8  5846.5    0.0
       1   39087.0  10323.7  16064.1      0.0    0.0   0.0  347.9 11729.0    0.0
       2   18135.1   4886.7   7003.1      0.0    0.0   0.0  136.7  5832.4    0.0
       2   39087.0  10294.7  16064.3      0.0    0.0   0.0  347.4 11728.2    0.0
       3   18057.9   4906.3   6896.2      0.0    0.0   0.0  137.5  5840.6    0.0
       3   39087.0  10294.8  16064.2      0.0    0.0   0.0  347.8 11727.9    0.0
       4   18090.5   4887.0   6965.1      0.0    0.0   0.0  136.2  5827.9    0.0
       4   39087.0  10295.0  16064.2      0.0    0.0   0.0  347.0 11727.6    0.0
       5   18153.6   4903.3   6982.5      0.0    0.0   0.0  137.0  5853.1    0.0
       5   39087.0  10294.7  16064.2      0.0    0.0   0.0  347.7 11728.7    0.0
       6   18081.9   4879.9   6954.2      0.0    0.0   0.0  136.6  5836.1    0.0
       6   39087.0  10295.4  16064.2      0.0    0.0   0.0  346.2 11728.6    0.0
       7   18110.4   4892.1   6971.3      0.0    0.0   0.0  136.4  5835.1    0.0
       7   39087.0  10295.0  16064.2      0.0    0.0   0.0  347.2 11728.7    0.0
       8   18082.1   4866.4   6983.0      0.0    0.0   0.0  135.7  5822.6    0.0
       8   39087.0  10295.0  16064.2      0.0    0.0   0.0  345.9 11728.6    0.0
       9   18137.9   4898.1   6975.2      0.0    0.0   0.0  134.8  5852.7    0.0
       9   39087.0  10294.6  16064.2      0.0    0.0   0.0  347.3 11728.8    0.0
      10   18001.9   4876.5   6880.0      0.0    0.0   0.0  135.5  5834.3    0.0
      10   39087.0  10295.0  16064.2      0.0    0.0   0.0  346.3 11728.8    0.0
      11   18112.1   4880.4   6992.5      0.0    0.0   0.0  135.5  5829.4    0.0
      11   39087.0  10295.7  16064.2      0.0    0.0   0.0  346.3 11728.7    0.0
      12   18142.9   4872.6   7029.5      0.0    0.0   0.0  135.0  5833.1    0.0
      12   39087.0  10295.3  16064.2      0.0    0.0   0.0  345.5 11728.7    0.0
      13   18063.7   4886.5   6943.6      0.0    0.0   0.0  134.6  5824.1    0.0
      13   39087.0  10296.2  16064.2      0.0    0.0   0.0  346.1 11728.7    0.0
      14   18043.3   4863.9   6949.0      0.0    0.0   0.0  135.3  5820.8    0.0
      14   39087.0  10295.7  16064.2      0.0    0.0   0.0  345.5 11728.7    0.0
      15   18082.8   4878.0   6980.9      0.0    0.0   0.0  134.1  5816.3    0.0
      15   39087.0  10295.6  16064.2      0.0    0.0   0.0  345.6 11728.6    0.0
      16   18085.2   4864.7   6997.4      0.0    0.0   0.0  134.0  5817.9    0.0
      16   39087.0  10295.6  16064.2      0.0    0.0   0.0  344.7 11728.6    0.0
averaged   18093.0   4885.1   6964.1      0.0    0.0   0.0  135.7  5832.7    0.0
averaged   39087.0  10297.0  16064.2      0.0    0.0   0.0  346.5 11728.6    0.0

  FMO  timing statistics in pairs (CPU,wall) for each rank, sec

    Rank  FMOini FMOscf1  FMOdm1 FMOsyn1 FMOscf2  FMOes2 FMOsyn2 FMOscf3 FMOsyn3
 -------------------------------------------------------------------------------
       1    1.9    6726.8    0.3    0.0   11180.8     196.2    0.0    0.0    0.0
       1    4.3   13981.3    6.1    0.1   24699.9     394.9    0.0    0.0    0.0
       2    1.5    6695.6    0.1    0.0   11242.9     195.1    0.0    0.0    0.0
       2    4.3   13981.3    6.1    0.1   24699.9     394.9    0.0    0.0    0.0
       3    1.6    6717.2    0.1    0.0   11143.3     195.6    0.0    0.0    0.0
       3    4.3   13981.3    6.1    0.0   24701.3     393.5    0.0    0.0    0.0
       4    1.5    6705.2    0.1    0.0   11189.6     194.1    0.0    0.0    0.0
       4    4.3   13981.3    6.1    0.1   24700.8     394.0    0.0    0.0    0.0
       5    1.7    6719.3    0.2    0.0   11236.7     195.7    0.0    0.0    0.0
       5    4.3   13981.3    6.1    0.1   24701.5     393.3    0.0    0.0    0.0
       6    1.5    6694.6    0.1    0.0   11190.9     194.8    0.0    0.0    0.0
       6    4.3   13981.3    6.1    0.1   24700.7     394.1    0.0    0.0    0.0
       7    1.6    6705.6    0.1    0.0   11207.9     195.2    0.0    0.0    0.0
       7    4.3   13981.3    6.1    0.1   24701.3     393.5    0.0    0.0    0.0
       8    1.4    6681.9    0.1    0.0   11203.4     195.3    0.0    0.0    0.0
       8    4.3   13981.3    6.1    0.1   24701.3     393.5    0.0    0.0    0.0
       9    1.7    6709.7    0.2    0.0   11230.3     196.1    0.0    0.0    0.0
       9    4.3   13981.3    6.1    0.1   24701.0     393.8    0.0    0.0    0.0
      10    1.4    6686.8    0.1    0.0   11117.6     196.0    0.0    0.0    0.0
      10    4.3   13981.3    6.1    0.1   24701.3     393.6    0.0    0.0    0.0
      11    1.5    6687.4    0.1    0.0   11228.4     194.6    0.0    0.0    0.0
      11    4.3   13981.3    6.1    0.1   24700.9     393.9    0.0    0.0    0.0
      12    1.3    6685.3    0.1    0.0   11261.5     194.7    0.0    0.0    0.0
      12    4.3   13981.3    6.1    0.1   24700.9     393.9    0.0    0.0    0.0
      13    1.6    6691.3    0.2    0.0   11176.0     194.7    0.0    0.0    0.0
      13    4.3   13981.3    6.1    0.1   24700.8     394.0    0.0    0.0    0.0
      14    1.3    6672.9    0.0    0.0   11174.0     195.0    0.0    0.0    0.0
      14    4.3   13981.3    6.1    0.1   24700.7     394.1    0.0    0.0    0.0
      15    1.4    6682.5    0.1    0.0   11204.2     194.5    0.0    0.0    0.0
      15    4.3   13981.3    6.1    0.1   24700.7     394.1    0.0    0.0    0.0
      16    1.4    6676.2    0.1    0.0   11213.7     193.9    0.0    0.0    0.0
      16    4.3   13981.3    6.1    0.1   24700.9     393.9    0.0    0.0    0.0
averaged    1.5    6696.2    0.1    0.0   11200.1     195.1    0.0    0.0    0.0
averaged    4.3   13981.3    6.1    0.1   24700.9     393.9    0.0    0.0    0.0
             62762296  WORDS OF DYNAMIC MEMORY USED
 EXECUTION OF GAMESS TERMINATED NORMALLY Sun Dec  8 19:22:35 2019
 DDI: 263640 bytes (0.3 MB / 0 MWords) used by master data server.

 ----------------------------------------
 CPU timing information for all processes
 ========================================
 0: 17700.907 + 405.95 = 18106.02
 1: 17761.643 + 373.518 = 18135.161
 2: 17675.717 + 382.197 = 18057.915
 3: 17719.927 + 370.612 = 18090.540
 4: 17752.996 + 400.658 = 18153.655
 5: 17681.588 + 400.377 = 18081.965
 6: 17714.591 + 395.821 = 18110.412
 7: 17709.864 + 372.221 = 18082.85
 8: 17739.354 + 398.563 = 18137.918
 9: 17621.328 + 380.594 = 18001.923
 10: 17730.557 + 381.557 = 18112.115
 11: 17773.255 + 369.645 = 18142.900
 12: 17662.932 + 400.791 = 18063.724
 13: 17668.171 + 375.152 = 18043.324
 14: 17697.134 + 385.646 = 18082.780
 15: 17710.639 + 374.622 = 18085.261
 ----------------------------------------
 ddikick.x: exited gracefully.
----- accounting info -----
Files used on the master node gollum090.lsa.umich.edu were:
-rw-r--r-- 1 hazwong frank    16542 Dec  8 08:31 /scratch/hazwong/827096/1HS2_2/usrc/1HS2_2_fmo_input.F05
-rw-r--r-- 1 hazwong frank      634 Dec  8 19:22 /scratch/hazwong/827096/1HS2_2/usrc/1HS2_2_fmo_input.F06.001
-rw-r--r-- 1 hazwong frank      634 Dec  8 19:22 /scratch/hazwong/827096/1HS2_2/usrc/1HS2_2_fmo_input.F06.002
-rw-r--r-- 1 hazwong frank      634 Dec  8 19:22 /scratch/hazwong/827096/1HS2_2/usrc/1HS2_2_fmo_input.F06.003
-rw-r--r-- 1 hazwong frank      634 Dec  8 19:22 /scratch/hazwong/827096/1HS2_2/usrc/1HS2_2_fmo_input.F06.004
-rw-r--r-- 1 hazwong frank      634 Dec  8 19:22 /scratch/hazwong/827096/1HS2_2/usrc/1HS2_2_fmo_input.F06.005
-rw-r--r-- 1 hazwong frank      634 Dec  8 19:22 /scratch/hazwong/827096/1HS2_2/usrc/1HS2_2_fmo_input.F06.006
-rw-r--r-- 1 hazwong frank      634 Dec  8 19:22 /scratch/hazwong/827096/1HS2_2/usrc/1HS2_2_fmo_input.F06.007
-rw-r--r-- 1 hazwong frank      634 Dec  8 19:22 /scratch/hazwong/827096/1HS2_2/usrc/1HS2_2_fmo_input.F06.008
-rw-r--r-- 1 hazwong frank      634 Dec  8 19:22 /scratch/hazwong/827096/1HS2_2/usrc/1HS2_2_fmo_input.F06.009
-rw-r--r-- 1 hazwong frank      634 Dec  8 19:22 /scratch/hazwong/827096/1HS2_2/usrc/1HS2_2_fmo_input.F06.010
-rw-r--r-- 1 hazwong frank      634 Dec  8 19:22 /scratch/hazwong/827096/1HS2_2/usrc/1HS2_2_fmo_input.F06.011
-rw-r--r-- 1 hazwong frank      634 Dec  8 19:22 /scratch/hazwong/827096/1HS2_2/usrc/1HS2_2_fmo_input.F06.012
-rw-r--r-- 1 hazwong frank      634 Dec  8 19:22 /scratch/hazwong/827096/1HS2_2/usrc/1HS2_2_fmo_input.F06.013
-rw-r--r-- 1 hazwong frank      634 Dec  8 19:22 /scratch/hazwong/827096/1HS2_2/usrc/1HS2_2_fmo_input.F06.014
-rw-r--r-- 1 hazwong frank      634 Dec  8 19:22 /scratch/hazwong/827096/1HS2_2/usrc/1HS2_2_fmo_input.F06.015
-rw-r--r-- 1 hazwong frank     9128 Dec  8 19:22 /scratch/hazwong/827096/1HS2_2/usrc/1HS2_2_fmo_input.F07
-rw-r--r-- 1 hazwong frank        0 Dec  8 08:31 /scratch/hazwong/827096/1HS2_2/usrc/1HS2_2_fmo_input.F07.001
-rw-r--r-- 1 hazwong frank        0 Dec  8 08:31 /scratch/hazwong/827096/1HS2_2/usrc/1HS2_2_fmo_input.F07.002
-rw-r--r-- 1 hazwong frank        0 Dec  8 08:31 /scratch/hazwong/827096/1HS2_2/usrc/1HS2_2_fmo_input.F07.003
-rw-r--r-- 1 hazwong frank        0 Dec  8 08:31 /scratch/hazwong/827096/1HS2_2/usrc/1HS2_2_fmo_input.F07.004
-rw-r--r-- 1 hazwong frank        0 Dec  8 08:31 /scratch/hazwong/827096/1HS2_2/usrc/1HS2_2_fmo_input.F07.005
-rw-r--r-- 1 hazwong frank        0 Dec  8 08:31 /scratch/hazwong/827096/1HS2_2/usrc/1HS2_2_fmo_input.F07.006
-rw-r--r-- 1 hazwong frank        0 Dec  8 08:31 /scratch/hazwong/827096/1HS2_2/usrc/1HS2_2_fmo_input.F07.007
-rw-r--r-- 1 hazwong frank        0 Dec  8 08:31 /scratch/hazwong/827096/1HS2_2/usrc/1HS2_2_fmo_input.F07.008
-rw-r--r-- 1 hazwong frank        0 Dec  8 08:31 /scratch/hazwong/827096/1HS2_2/usrc/1HS2_2_fmo_input.F07.009
-rw-r--r-- 1 hazwong frank        0 Dec  8 08:31 /scratch/hazwong/827096/1HS2_2/usrc/1HS2_2_fmo_input.F07.010
-rw-r--r-- 1 hazwong frank        0 Dec  8 08:31 /scratch/hazwong/827096/1HS2_2/usrc/1HS2_2_fmo_input.F07.011
-rw-r--r-- 1 hazwong frank        0 Dec  8 08:31 /scratch/hazwong/827096/1HS2_2/usrc/1HS2_2_fmo_input.F07.012
-rw-r--r-- 1 hazwong frank        0 Dec  8 08:31 /scratch/hazwong/827096/1HS2_2/usrc/1HS2_2_fmo_input.F07.013
-rw-r--r-- 1 hazwong frank        0 Dec  8 08:31 /scratch/hazwong/827096/1HS2_2/usrc/1HS2_2_fmo_input.F07.014
-rw-r--r-- 1 hazwong frank        0 Dec  8 08:31 /scratch/hazwong/827096/1HS2_2/usrc/1HS2_2_fmo_input.F07.015
-rw-r--r-- 1 hazwong frank    65440 Dec  8 19:22 /scratch/hazwong/827096/1HS2_2/usrc/1HS2_2_fmo_input.F10.000
-rw-r--r-- 1 hazwong frank        0 Dec  8 08:31 /scratch/hazwong/827096/1HS2_2/usrc/1HS2_2_fmo_input.F26.000
-rw-r--r-- 1 hazwong frank        0 Dec  8 08:31 /scratch/hazwong/827096/1HS2_2/usrc/1HS2_2_fmo_input.F26.001
-rw-r--r-- 1 hazwong frank        0 Dec  8 08:31 /scratch/hazwong/827096/1HS2_2/usrc/1HS2_2_fmo_input.F26.002
-rw-r--r-- 1 hazwong frank        0 Dec  8 08:31 /scratch/hazwong/827096/1HS2_2/usrc/1HS2_2_fmo_input.F26.003
-rw-r--r-- 1 hazwong frank        0 Dec  8 08:31 /scratch/hazwong/827096/1HS2_2/usrc/1HS2_2_fmo_input.F26.004
-rw-r--r-- 1 hazwong frank        0 Dec  8 08:31 /scratch/hazwong/827096/1HS2_2/usrc/1HS2_2_fmo_input.F26.005
-rw-r--r-- 1 hazwong frank        0 Dec  8 08:31 /scratch/hazwong/827096/1HS2_2/usrc/1HS2_2_fmo_input.F26.006
-rw-r--r-- 1 hazwong frank        0 Dec  8 08:31 /scratch/hazwong/827096/1HS2_2/usrc/1HS2_2_fmo_input.F26.007
-rw-r--r-- 1 hazwong frank        0 Dec  8 08:31 /scratch/hazwong/827096/1HS2_2/usrc/1HS2_2_fmo_input.F26.008
-rw-r--r-- 1 hazwong frank        0 Dec  8 08:31 /scratch/hazwong/827096/1HS2_2/usrc/1HS2_2_fmo_input.F26.009
-rw-r--r-- 1 hazwong frank        0 Dec  8 08:31 /scratch/hazwong/827096/1HS2_2/usrc/1HS2_2_fmo_input.F26.010
-rw-r--r-- 1 hazwong frank        0 Dec  8 08:31 /scratch/hazwong/827096/1HS2_2/usrc/1HS2_2_fmo_input.F26.011
-rw-r--r-- 1 hazwong frank        0 Dec  8 08:31 /scratch/hazwong/827096/1HS2_2/usrc/1HS2_2_fmo_input.F26.012
-rw-r--r-- 1 hazwong frank        0 Dec  8 08:31 /scratch/hazwong/827096/1HS2_2/usrc/1HS2_2_fmo_input.F26.013
-rw-r--r-- 1 hazwong frank        0 Dec  8 08:31 /scratch/hazwong/827096/1HS2_2/usrc/1HS2_2_fmo_input.F26.014
-rw-r--r-- 1 hazwong frank        0 Dec  8 08:31 /scratch/hazwong/827096/1HS2_2/usrc/1HS2_2_fmo_input.F26.015
-rw-r--r-- 1 hazwong frank        0 Dec  8 08:31 /scratch/hazwong/827096/1HS2_2/usrc/1HS2_2_fmo_input.F27.000
-rw-r--r-- 1 hazwong frank        0 Dec  8 08:31 /scratch/hazwong/827096/1HS2_2/usrc/1HS2_2_fmo_input.F27.001
-rw-r--r-- 1 hazwong frank        0 Dec  8 08:31 /scratch/hazwong/827096/1HS2_2/usrc/1HS2_2_fmo_input.F27.002
-rw-r--r-- 1 hazwong frank        0 Dec  8 08:31 /scratch/hazwong/827096/1HS2_2/usrc/1HS2_2_fmo_input.F27.003
-rw-r--r-- 1 hazwong frank        0 Dec  8 08:31 /scratch/hazwong/827096/1HS2_2/usrc/1HS2_2_fmo_input.F27.004
-rw-r--r-- 1 hazwong frank        0 Dec  8 08:31 /scratch/hazwong/827096/1HS2_2/usrc/1HS2_2_fmo_input.F27.005
-rw-r--r-- 1 hazwong frank        0 Dec  8 08:31 /scratch/hazwong/827096/1HS2_2/usrc/1HS2_2_fmo_input.F27.006
-rw-r--r-- 1 hazwong frank        0 Dec  8 08:31 /scratch/hazwong/827096/1HS2_2/usrc/1HS2_2_fmo_input.F27.007
-rw-r--r-- 1 hazwong frank        0 Dec  8 08:31 /scratch/hazwong/827096/1HS2_2/usrc/1HS2_2_fmo_input.F27.008
-rw-r--r-- 1 hazwong frank        0 Dec  8 08:31 /scratch/hazwong/827096/1HS2_2/usrc/1HS2_2_fmo_input.F27.009
-rw-r--r-- 1 hazwong frank        0 Dec  8 08:31 /scratch/hazwong/827096/1HS2_2/usrc/1HS2_2_fmo_input.F27.010
-rw-r--r-- 1 hazwong frank        0 Dec  8 08:31 /scratch/hazwong/827096/1HS2_2/usrc/1HS2_2_fmo_input.F27.011
-rw-r--r-- 1 hazwong frank        0 Dec  8 08:31 /scratch/hazwong/827096/1HS2_2/usrc/1HS2_2_fmo_input.F27.012
-rw-r--r-- 1 hazwong frank        0 Dec  8 08:31 /scratch/hazwong/827096/1HS2_2/usrc/1HS2_2_fmo_input.F27.013
-rw-r--r-- 1 hazwong frank        0 Dec  8 08:31 /scratch/hazwong/827096/1HS2_2/usrc/1HS2_2_fmo_input.F27.014
-rw-r--r-- 1 hazwong frank        0 Dec  8 08:31 /scratch/hazwong/827096/1HS2_2/usrc/1HS2_2_fmo_input.F27.015
-rw-r--r-- 1 hazwong frank 20332544 Dec  8 12:24 /scratch/hazwong/827096/1HS2_2/usrc/1HS2_2_fmo_input.F40.000
-rw-r--r-- 1 hazwong frank 20332544 Dec  8 12:24 /scratch/hazwong/827096/1HS2_2/usrc/1HS2_2_fmo_input.F40.001
-rw-r--r-- 1 hazwong frank 20332544 Dec  8 12:24 /scratch/hazwong/827096/1HS2_2/usrc/1HS2_2_fmo_input.F40.002
-rw-r--r-- 1 hazwong frank 20332544 Dec  8 12:24 /scratch/hazwong/827096/1HS2_2/usrc/1HS2_2_fmo_input.F40.003
-rw-r--r-- 1 hazwong frank 20332544 Dec  8 12:24 /scratch/hazwong/827096/1HS2_2/usrc/1HS2_2_fmo_input.F40.004
-rw-r--r-- 1 hazwong frank 20332544 Dec  8 12:24 /scratch/hazwong/827096/1HS2_2/usrc/1HS2_2_fmo_input.F40.005
-rw-r--r-- 1 hazwong frank 20332544 Dec  8 12:24 /scratch/hazwong/827096/1HS2_2/usrc/1HS2_2_fmo_input.F40.006
-rw-r--r-- 1 hazwong frank 20332544 Dec  8 12:24 /scratch/hazwong/827096/1HS2_2/usrc/1HS2_2_fmo_input.F40.007
-rw-r--r-- 1 hazwong frank 20332544 Dec  8 12:24 /scratch/hazwong/827096/1HS2_2/usrc/1HS2_2_fmo_input.F40.008
-rw-r--r-- 1 hazwong frank 20332544 Dec  8 12:24 /scratch/hazwong/827096/1HS2_2/usrc/1HS2_2_fmo_input.F40.009
-rw-r--r-- 1 hazwong frank 20332544 Dec  8 12:24 /scratch/hazwong/827096/1HS2_2/usrc/1HS2_2_fmo_input.F40.010
-rw-r--r-- 1 hazwong frank 20332544 Dec  8 12:24 /scratch/hazwong/827096/1HS2_2/usrc/1HS2_2_fmo_input.F40.011
-rw-r--r-- 1 hazwong frank 20332544 Dec  8 12:24 /scratch/hazwong/827096/1HS2_2/usrc/1HS2_2_fmo_input.F40.012
-rw-r--r-- 1 hazwong frank 20332544 Dec  8 12:24 /scratch/hazwong/827096/1HS2_2/usrc/1HS2_2_fmo_input.F40.013
-rw-r--r-- 1 hazwong frank 20332544 Dec  8 12:24 /scratch/hazwong/827096/1HS2_2/usrc/1HS2_2_fmo_input.F40.014
-rw-r--r-- 1 hazwong frank 20332544 Dec  8 12:24 /scratch/hazwong/827096/1HS2_2/usrc/1HS2_2_fmo_input.F40.015
Sun Dec  8 19:22:38 EST 2019
0.187u 0.084s 10:51:30.43 0.0%	0+0k 1328+136io 26pf+0w
