----- GAMESS execution script 'rungms' -----
This job is running on host gollum064.lsa.umich.edu
under operating system Linux at Sun Dec 8 08:35:55 EST 2019
Available scratch disk space (Kbyte units) at beginning of the job is
Filesystem     1K-blocks     Used Available Use% Mounted on
/dev/sda4      426933580 23007872 403925708   6% /scratch
GAMESS temporary binary files will be written to /scratch/hazwong/827099/1HS2_3/usrc
GAMESS supplementary output files will be written to /scratch/hazwong/827099/1HS2_3/src
Copying input file 1HS2_3_fmo_input.inp to your run's scratch directory...
This is a GDDI run, keeping various output files on local disks
 
Assuming a single but multicore node.
 

 Distributed Data Interface kickoff program.
 Initiating 16 compute processes on 1 nodes to run the following command:
 /export/apps/CentOS7/gamess/src/build//gamess.R3.x 1HS2_3_fmo_input 

          ******************************************************
          *         GAMESS VERSION = 30 SEP 2018 (R3)         *
          *             FROM IOWA STATE UNIVERSITY             *
          * M.W.SCHMIDT, K.K.BALDRIDGE, J.A.BOATZ, S.T.ELBERT, *
          *   M.S.GORDON, J.H.JENSEN, S.KOSEKI, N.MATSUNAGA,   *
          *          K.A.NGUYEN, S.J.SU, T.L.WINDUS,           *
          *       TOGETHER WITH M.DUPUIS, J.A.MONTGOMERY       *
          *         J.COMPUT.CHEM.  14, 1347-1363(1993)        *
          **************** 64 BIT LINUX VERSION ****************

  SINCE 1993, STUDENTS AND POSTDOCS WORKING AT IOWA STATE UNIVERSITY
  AND ALSO IN THEIR VARIOUS JOBS AFTER LEAVING ISU HAVE MADE IMPORTANT
  CONTRIBUTIONS TO THE CODE:
     IVANA ADAMOVIC, CHRISTINE AIKENS, YURI ALEXEEV, POOJA ARORA,
     ANDREY ASADCHEV, ROB BELL, PRADIPTA BANDYOPADHYAY, JONATHAN BENTZ,
     BRETT BODE, KURT BRORSEN, CALEB CARLIN, GALINA CHABAN, WEI CHEN,
     CHEOL HO CHOI, PAUL DAY, ALBERT DEFUSCO, NUWAN DESILVA, TIM DUDLEY,
     DMITRI FEDOROV, ALEX FINDLATER, GRAHAM FLETCHER, MARK FREITAG,
     KURT GLAESEMANN, ANASTASIA GUNINA,
     DAN KEMP, GRANT MERRILL, NORIYUKI MINEZAWA, JONATHAN MULLIN,
     TAKESHI NAGATA, SEAN NEDD, HEATHER NETZLOFF, BOSILJKA NJEGIC, RYAN OLSON,
     MIKE PAK, BUU PHAM,
     SPENCER PRUITT, LUKE ROSKOP, JIM SHOEMAKER, LYUDMILA SLIPCHENKO,
     TONY SMITH, SAROM SOK LEANG, JIE SONG, TETSUYA TAKETSUGU, SIMON WEBB,
     PENG XU, SOOHAENG YOO, FEDERICO ZAHARIEV

  ADDITIONAL CODE HAS BEEN PROVIDED BY COLLABORATORS IN OTHER GROUPS:
     IOWA STATE UNIVERSITY:
          JOE IVANIC, AARON WEST, LAIMUTIS BYTAUTAS, KLAUS RUEDENBERG
     UNIVERSITY OF TOKYO: KIMIHIKO HIRAO, TAKAHITO NAKAJIMA,
          TAKAO TSUNEDA, MUNEAKI KAMIYA, SUSUMU YANAGISAWA,
          KIYOSHI YAGI, MAHITO CHIBA, SEIKEN TOKURA, NAOAKI KAWAKAMI
     UNIVERSITY OF AARHUS: FRANK JENSEN
     UNIVERSITY OF IOWA: VISVALDAS KAIRYS, HUI LI
     NATIONAL INST. OF STANDARDS AND TECHNOLOGY: WALT STEVENS, DAVID GARMER
     UNIVERSITY OF PISA: BENEDETTA MENNUCCI, JACOPO TOMASI
     UNIVERSITY OF MEMPHIS: HENRY KURTZ, PRAKASHAN KORAMBATH
     UNIVERSITY OF ALBERTA: TOBY ZENG, MARIUSZ KLOBUKOWSKI
     UNIVERSITY OF NEW ENGLAND: MARK SPACKMAN
     MIE UNIVERSITY: HIROAKI UMEDA
     NAT. INST. OF ADVANCED INDUSTRIAL SCIENCE AND TECHNOLOGY: KAZUO KITAURA
     MICHIGAN STATE UNIVERSITY:
          KAROL KOWALSKI, MARTA WLOCH, JEFFREY GOUR, JESSE LUTZ,
          WEI LI, JUN SHEN, J. EMILIANO DEUSTUA, PIOTR PIECUCH
     UNIVERSITY OF MINNESOTA:
          YINAN SHU
     UNIVERSITY OF SILESIA: MONIKA MUSIAL, STANISLAW KUCHARSKI
     FACULTES UNIVERSITAIRES NOTRE-DAME DE LA PAIX:
          OLIVIER QUINET, BENOIT CHAMPAGNE
     UNIVERSITY OF CALIFORNIA - SANTA BARBARA: BERNARD KIRTMAN
     INSTITUTE FOR MOLECULAR SCIENCE:
          KAZUYA ISHIMURA, MICHIO KATOUDA, AND SHIGERU NAGASE
     UNIVERSITY OF NOTRE DAME: ANNA POMOGAEVA, DAN CHIPMAN
     KYUSHU UNIVERSITY:
          HARUYUKI NAKANO,
          FENG LONG GU, JACEK KORCHOWIEC, MARCIN MAKOWSKI, AND YURIKO AOKI,
          HIROTOSHI MORI AND EISAKU MIYOSHI
     PENNSYLVANIA STATE UNIVERSITY:
          TZVETELIN IORDANOV, CHET SWALINA, JONATHAN SKONE,
          SHARON HAMMES-SCHIFFER
     WASEDA UNIVERSITY:
          MASATO KOBAYASHI, TOMOKO AKAMA, TSUGUKI TOUMA,
          TAKESHI YOSHIKAWA, YASUHIRO IKABATA, JUNJI SEINO,
          YUYA NAKAJIMA, HIROMI NAKAI
     NANJING UNIVERSITY: SHUHUA LI
     UNIVERSITY OF NEBRASKA:
          PEIFENG SU, DEJUN SI, NANDUN THELLAMUREGE, YALI WANG, HUI LI
     UNIVERSITY OF ZURICH: ROBERTO PEVERATI, KIM BALDRIDGE
     N. COPERNICUS UNIVERSITY AND JACKSON STATE UNIVERSITY:
          MARIA BARYSZ
     UNIVERSITY OF COPENHAGEN: Jimmy Kromann, CASPER STEINMANN
     TOKYO INSTITUTE OF TECHNOLOGY: HIROYA NAKATA
     NAGOYA UNIVERSITY: YOSHIO NISHIMOTO, STEPHAN IRLE
     MOSCOW STATE UNIVERSITY: VLADIMIR MIRONOV


 PARALLEL VERSION RUNNING ON       16 PROCESSORS IN        1 NODES.

 EXECUTION OF GAMESS BEGUN Sun Dec  8 08:35:55 2019

            ECHO OF THE FIRST FEW INPUT CARDS -
 INPUT CARD>!*** FMO 5.3 (Gamess) INPUT generated by Facio 22.1.1.32 ***                    
 INPUT CARD> $CONTRL RUNTYP=ENERGY NPRINT=-5 ISPHER=1 MAXIT=200 $END                        
 INPUT CARD> $SYSTEM MWORDS=63 MEMDDI=63 $END                                               
 INPUT CARD> $GDDI NGROUP=1 $END                                                            
 INPUT CARD> $SCF DIRSCF=.TRUE. NPUNCH=0 $END                                               
 INPUT CARD>!*** NumCPU : 2  MemPerNode : 512MB                                             
 INPUT CARD> $PCM SOLVNT=WATER IEF=-10 ICOMP=2 ICAV=1 IDISP=1 IFMO=-1 $END                  
 INPUT CARD> $PCMCAV RADII=SUAHF $END                                                       
 INPUT CARD> $TESCAV NTSALL=60 $END                                                         
 INPUT CARD> $FMOPRP                                                                        
 INPUT CARD>    NAODIR=200                                                                  
 INPUT CARD>    NGRFMO(1)=1, 1, 0, 0, 0,   0, 0, 0, 0, 0                                    
 INPUT CARD>    IPIEDA=1                                                                    
 INPUT CARD>    NPRINT=9                                                                    
 INPUT CARD> $END                                                                           
 INPUT CARD> $FMO                                                                           
 INPUT CARD>      SCFTYP(1)=RHF                                                             
 INPUT CARD>      MODGRD=10                                                                 
 INPUT CARD>      MODMUL=0                                                                  
 INPUT CARD>      MAXCAO=5                                                                  
 INPUT CARD>      MAXBND=12                                                                 
 INPUT CARD>      NLAYER=1                                                                  
 INPUT CARD>      MPLEVL(1)=2                                                               
 INPUT CARD>      NFRAG=10                                                                  
 INPUT CARD>      ICHARG(1)=-1, -1, -1, -1, -1, -1, -1, -1, -1, 0                           
 INPUT CARD>      FRGNAM(1)=F1, F2, F3, F4, F5, F6, F7, F8, F9, F10                         
 INPUT CARD>      indat(1)=0                                                                
 INPUT CARD>               1   -33   0                                                      
 INPUT CARD>               34   -67   0                                                     
 INPUT CARD>               68   -97   0                                                     
 INPUT CARD>               98   -127   0                                                    
 INPUT CARD>               128   -160   0                                                   
 INPUT CARD>               161   -193   0                                                   
 INPUT CARD>               194   -227   0                                                   
 INPUT CARD>               228   -257   0                                                   
 INPUT CARD>               258   -288   0                                                   
 INPUT CARD>               289   -319   0                                                   
 INPUT CARD> $END                                                                           
 INPUT CARD>                                                                                
 INPUT CARD> $FMOBND                                                                        
 INPUT CARD>   -34   33       6-31G*    MINI                                                
 INPUT CARD>   -68   67       6-31G*    MINI                                                
 INPUT CARD>   -98   97       6-31G*    MINI                                                
 INPUT CARD>   -128   127       6-31G*    MINI                                              
 INPUT CARD>   -161   160       6-31G*    MINI                                              
 INPUT CARD>   -194   193       6-31G*    MINI                                              
 INPUT CARD>   -228   227       6-31G*    MINI                                              
 INPUT CARD>   -258   257       6-31G*    MINI                                              
 INPUT CARD>   -289   288       6-31G*    MINI                                              
 INPUT CARD> $END                                                                           


 -------------------------------------------------------------
 GROUP DDI, PROGRAMMED BY: RYAN M. OLSON AND DMITRI G. FEDOROV
        FEDOROV ET AL., J. COMPUT. CHEM., 25 (2004) 872.
 -------------------------------------------------------------

 -------------------------------------------------------
 GDDI: INITIALIZATION COMPLETED FOR GROUP     1 OF     1
 WITH    16 PROCESSES BALTYP=DLB   global rank=        0
 -------------------------------------------------------

   63000000 WORDS OF MEMORY AVAILABLE


     RUN TITLE
     ---------
  FMO calculation                                                                

 THE POINT GROUP OF THE MOLECULE IS C1      
 THE ORDER OF THE PRINCIPAL AXIS IS     0

 ATOM   ATOMIC CHARGE
 H.1-1       1.0
 O.1-1       8.0
 C.1-1       6.0
 N.1-1       7.0
 P.1-1      15.0

     ATOMIC BASIS SET LIBRARY
     ----------------
 THE CONTRACTED PRIMITIVE FUNCTIONS HAVE BEEN UNNORMALIZED
 THE CONTRACTED BASIS FUNCTIONS ARE NOW NORMALIZED TO UNITY

  SHELL TYPE  PRIMITIVE        EXPONENT          CONTRACTION COEFFICIENT(S)

 H.1-1     

      1   S       1            18.7311370    0.033494604338
      1   S       2             2.8253944    0.234726953484
      1   S       3             0.6401217    0.813757326146

      2   S       4             0.1612778    1.000000000000

 O.1-1     

      3   S       5          5484.6716600    0.001831074430
      3   S       6           825.2349460    0.013950172200
      3   S       7           188.0469580    0.068445078098
      3   S       8            52.9645000    0.232714335992
      3   S       9            16.8975704    0.470192897984
      3   S      10             5.7996353    0.358520852987

      4   L      11            15.5396162   -0.110777549525    0.070874268231
      4   L      12             3.5999336   -0.148026262701    0.339752839147
      4   L      13             1.0137618    1.130767015354    0.727158577316

      5   L      14             0.2700058    1.000000000000    1.000000000000

      6   D      15             0.8000000    1.000000000000

 C.1-1     

      7   S      16          3047.5248800    0.001834737132
      7   S      17           457.3695180    0.014037322813
      7   S      18           103.9486850    0.068842622264
      7   S      19            29.2101553    0.232184443216
      7   S      20             9.2866630    0.467941348435
      7   S      21             3.1639270    0.362311985337

      8   L      22             7.8682723   -0.119332419775    0.068999066591
      8   L      23             1.8812885   -0.160854151696    0.316423960957
      8   L      24             0.5442493    1.143456437840    0.744308290898

      9   L      25             0.1687145    1.000000000000    1.000000000000

     10   D      26             0.8000000    1.000000000000

 N.1-1     

     11   S      27          4173.5114600    0.001834772160
     11   S      28           627.4579110    0.013994627002
     11   S      29           142.9020930    0.068586551812
     11   S      30            40.2343293    0.232240873040
     11   S      31            12.8202129    0.469069948082
     11   S      32             4.3904370    0.360455199063

     12   L      33            11.6263619   -0.114961181702    0.067579743878
     12   L      34             2.7162798   -0.169117478561    0.323907295893
     12   L      35             0.7722184    1.145851947027    0.740895139755

     13   L      36             0.2120315    1.000000000000    1.000000000000

     14   D      37             0.8000000    1.000000000000

 P.1-1     

     15   S      38         19413.3000000    0.001851598923
     15   S      39          2909.4200000    0.014206191735
     15   S      40           661.3640000    0.069999459277
     15   S      41           185.7590000    0.240078860331
     15   S      42            59.1943000    0.484761717984
     15   S      43            20.0310000    0.335199804993

     16   L      44           339.4780000   -0.002782170105    0.004564616191
     16   L      45            81.0101000   -0.036049901354    0.033693571881
     16   L      46            25.8780000   -0.116631004382    0.139754883368
     16   L      47             9.4522100    0.096832803638    0.339361716786
     16   L      48             3.6656600    0.614418023082    0.450920623685
     16   L      49             1.4674600    0.403798015170    0.238585800889

     17   L      50             2.1562300   -0.252924113863   -0.017765312733
     17   L      51             0.7489970    0.032851844678    0.274058196433
     17   L      52             0.2831450    1.081254761783    0.785421562957

     18   L      53             0.0998317    1.000000000000    1.000000000000

     19   D      54             0.5500000    1.000000000000

 TOTAL NUMBER OF BASIS SET SHELLS             =   19
 NUMBER OF CARTESIAN GAUSSIAN BASIS FUNCTIONS =   66

     $CONTRL OPTIONS
     ---------------
 SCFTYP=RHF          RUNTYP=ENERGY       EXETYP=RUN     
 MPLEVL=       0     CITYP =NONE         CCTYP =NONE         VBTYP =NONE    
 DFTTYP=NONE         TDDFT =NONE    
 MULT  =       1     ICHARG=       0     NZVAR =       0     COORD =UNIQUE  
 PP    =NONE         RELWFN=NONE         LOCAL =NONE         NUMGRD=       F
 ISPHER=       1     NOSYM =       0     MAXIT =     200     UNITS =ANGS    
 PLTORB=       F     MOLPLT=       F     AIMPAC=       F     FRIEND=        
 NPRINT=      -5     IREST =       0     GEOM  =INPUT   
 NORMF =       0     NORMP =       0     ITOL  =      24     ICUT  =      12
 INTTYP=BEST         GRDTYP=BEST         QMTTOL= 1.0E-06

     $SYSTEM OPTIONS
     ---------------
  REPLICATED MEMORY=    63000000 WORDS (ON EVERY NODE).
 DISTRIBUTED MEMDDI=          63 MILLION WORDS IN AGGREGATE,
 MEMDDI DISTRIBUTED OVER  16 PROCESSORS IS     3937500 WORDS/PROCESSOR.
 TOTAL MEMORY REQUESTED ON EACH PROCESSOR=    66937500 WORDS.
 TIMLIM=      525600.00 MINUTES, OR     365.0 DAYS.
 PARALL= T  BALTYP=  DLB     KDIAG=    0  COREFL= F
 MXSEQ2=     300 MXSEQ3=     150  mem10=         0

 ** LOOKING UP INTERNALLY STORED DATA FOR SOLVENT=WATER    **
 OPTICAL AND PHYSICAL CONSTANTS:
 EPS= 78.390; EPSINF=  1.776; RSOLV=  1.385 A; VMOL=  18.070 ML/MOL;
 TCE= .25700E-03 1/K; STEN= 71.810 DYN/CM;  DSTEN=  0.6500; CMF=  1.2770


     -----------------------------------
     INPUT FOR PCM SOLVATION CALCULATION 
     -----------------------------------
     IEF   =     -10
     ICOMP =       2     IFIELD=       0     ICAV  =       1
     IDISP =       1     IREP  =       0     IDP   =       0

     SOLVNT=WATER        EPS   = 78.3900     EPSINF=  1.7760
     VMOL  = 18.0700     TCE   =  0.00025700 STEN  = 71.8100
     DSTEN =  0.6500     CMF   =  1.2770     RSOLV =  1.3850

     NESFP =       0
     OMEGA = 40.0000     RET   =100.0000     FRO   =  0.7000

     TABS  =298.0000     IPRINT=       0

     --------------------------------
     INPUT FOR ITERATIVE C-PCM METHOD 
     --------------------------------
     IPCMIT  =         1     MXDIIS  =        50
     MXITR1  =       200     MXITR2  =       200
     THRES   = 0.100E-09     IMUL    =         3
     RCUT(1) =   20.0000     RCUT(2) =   50.0000

     IDIRCT  =         1
     IMGABI  =         0     RABI    =    4.0000
     IMGASC  =         0     RASC    =   20.0000
     THRSLS  = 0.500E-03     DENSLS  =    0.0100
     IEFPOL  =         1     REFPOL  =    0.0000

     INPUT FOR ISOTROPIC DIELECTRICS
     -------------------------------
     EPS=    78.39

          ----------------
          PROPERTIES INPUT
          ----------------

     MOMENTS            FIELD           POTENTIAL          DENSITY
 IEMOM =       1   IEFLD =       0   IEPOT =       0   IEDEN =       0
 WHERE =COMASS     WHERE =NUCLEI     WHERE =NUCLEI     WHERE =NUCLEI  
 OUTPUT=BOTH       OUTPUT=BOTH       OUTPUT=NONE       OUTPUT=BOTH    
 IEMINT=       0   IEFINT=       0                     IEDINT=       0
                                                       MORB  =       0
          EXTRAPOLATION IN EFFECT
          SOSCF IN EFFECT
 ORBITAL PRINTING OPTION: NPREO=     1 32767     2     1

     -------------------------------
     INTEGRAL TRANSFORMATION OPTIONS
     -------------------------------
     NWORD  =            0
     CUTOFF = 1.0E-10     MPTRAN =       0
     DIRTRF =       T     AOINTS =DUP     

          ----------------------
          INTEGRAL INPUT OPTIONS
          ----------------------
 NOPK  =       1 NORDER=       0 SCHWRZ=       T

 ..... DONE SETTING UP THE RUN .....
 CPU     0: STEP CPU TIME=     0.04 TOTAL CPU TIME=          0.0 (      0.0 MIN)
 TOTAL WALL CLOCK TIME=          0.1 SECONDS, CPU UTILIZATION IS    57.14%
 CPU     0: STEP CPU TIME=     0.00 TOTAL CPU TIME=          0.0 (      0.0 MIN)
 TOTAL WALL CLOCK TIME=          0.1 SECONDS, CPU UTILIZATION IS    50.00%

                    ----------------------
                    AO INTEGRAL TECHNOLOGY
                    ----------------------
     S,P,L SHELL ROTATED AXIS INTEGRALS, REPROGRAMMED BY
        KAZUYA ISHIMURA (IMS) AND JOSE SIERRA (SYNSTAR).
     S,P,D,L SHELL ROTATED AXIS INTEGRALS PROGRAMMED BY
        KAZUYA ISHIMURA (INSTITUTE FOR MOLECULAR SCIENCE).
     S,P,D,F,G SHELL TO TOTAL QUARTET ANGULAR MOMENTUM SUM 5,
        ERIC PROGRAM BY GRAHAM FLETCHER (ELORET AND NASA ADVANCED
        SUPERCOMPUTING DIVISION, AMES RESEARCH CENTER).
     S,P,D,F,G,L SHELL GENERAL RYS QUADRATURE PROGRAMMED BY
        MICHEL DUPUIS (PACIFIC NORTHWEST NATIONAL LABORATORY).
 Setting modorb=1 flag...
 Setting modorb=1 flag...

          -----------------------
          MP2 CONTROL INFORMATION
          -----------------------
          NACORE =        8  NBCORE =        8
          LMOMP2 =        F  AOINTS = DUP     
          METHOD =        2  NWORD  =               0
          MP2PRP =        F  OSPT   = NONE    
          CUTOFF = 1.00E-12  CPHFBS = BASISAO 
          CODE   = IMS     

          NUMBER OF CORE -A-  ORBITALS =     8
          NUMBER OF CORE -B-  ORBITALS =     8
          NUMBER OF OCC. -A-  ORBITALS =    18
          NUMBER OF OCC. -B-  ORBITALS =    18
          NUMBER OF MOLECULAR ORBITALS =    66
          NUMBER OF   BASIS  FUNCTIONS =    66

 CPU     0: STEP CPU TIME=     0.02 TOTAL CPU TIME=          0.1 (      0.0 MIN)
 TOTAL WALL CLOCK TIME=          0.1 SECONDS, CPU UTILIZATION IS    54.55%
 CPU     0: STEP CPU TIME=     0.00 TOTAL CPU TIME=          0.1 (      0.0 MIN)
 TOTAL WALL CLOCK TIME=          0.1 SECONDS, CPU UTILIZATION IS    54.55%

     INPUT FOR CAVITY DEFINITION 
     ---------------------------
   ATOM               COORDINATES                RADIUS       EPS
      1     14.6940     22.4610      5.9900      0.0100     78.3900
      2     14.5060     22.1430      6.8930      1.5900     78.3900
      3     13.0840     21.9960      7.0050      1.7700     78.3900
      4     12.7270     21.2970      6.2150      0.0100     78.3900
      5     12.6100     22.9860      6.8330      0.0100     78.3900
      6     12.6360     21.4740      8.3750      1.7700     78.3900
      7     11.5300     21.4480      8.4470      0.0100     78.3900
      8     13.1110     20.1070      8.5590      1.5900     78.3900
      9     13.5230     19.9360      9.9090      1.7700     78.3900
     10     12.9470     19.0580     10.2880      0.0100     78.3900
     11     14.9770     19.6430     10.0400      1.6800     78.3900
     12     15.8400     19.9460      9.0120      1.7700     78.3900
     13     15.3970     20.3960      8.1240      0.0100     78.3900
     14     17.1480     19.6730      9.0950      1.7700     78.3900
     15     17.8370     19.8800      8.2800      0.0100     78.3900
     16     15.4740     19.0800     11.2130      1.7700     78.3900
     17     14.6940     18.8460     12.1480      1.5900     78.3900
     18     16.7890     18.7800     11.3080      1.6800     78.3900
     19     17.6220     19.0620     10.2900      1.7700     78.3900
     20     18.9100     18.7460     10.4010      1.6800     78.3900
     21     19.2530     18.3580     11.2590      0.0100     78.3900
     22     19.5600     18.9240      9.6640      0.0100     78.3900
     23     13.1000     21.1720     10.6720      1.7700     78.3900
     24     13.7730     21.3990     11.5200      0.0100     78.3900
     25     11.7760     21.0160     11.1420      1.5900     78.3900
     26     11.5580     21.8260     11.6200      0.0100     78.3900
     27     13.1890     22.2420      9.5890      1.7700     78.3900
     28     14.2580     22.4780      9.3690      0.0100     78.3900
     29     12.3870     23.4210      9.8240      1.5900     78.3900
     30     13.0260     24.6740     10.5330      2.1000     78.3900
     31     14.3590     24.9360      9.9480      1.5900     78.3900
     32     12.0440     25.7810     10.4880      1.5900     78.3900
     33     13.2140     24.1970     12.0220      1.5900     78.3900
     34     12.0580     23.9440     12.8560      1.7700     78.3900
     35     11.3420     23.2530     12.3610      0.0100     78.3900
     36     11.5160     24.8930     13.0600      0.0100     78.3900
     37     12.4630     23.3080     14.1940      1.7700     78.3900
     38     11.5740     23.0830     14.8200      0.0100     78.3900
     39     13.1310     22.0390     13.9490      1.5900     78.3900
     40     14.1820     21.8720     14.8910      1.7700     78.3900
     41     13.9810     20.9140     15.4230      0.0100     78.3900
     42     15.4900     21.7790     14.2350      1.6800     78.3900
     43     16.6340     21.2770     14.7920      1.7700     78.3900
     44     18.3420     19.9840     17.5150      1.6800     78.3900
     45     17.6540     19.9830     18.2420      0.0100     78.3900
     46     19.2720     19.6730     17.7300      0.0100     78.3900
     47     16.7580     20.8060     16.0460      1.6800     78.3900
     48     18.0060     20.4240     16.3160      1.7700     78.3900
     49     19.0140     20.4440     15.3880      1.6800     78.3900
     50     19.9290     20.1300     15.6770      0.0100     78.3900
     51     18.9040     20.8890     14.0750      1.7700     78.3900
     52     19.8670     20.8770     13.3010      1.5900     78.3900
     53     17.5920     21.3560     13.8000      1.7700     78.3900
     54     17.0660     21.9270     12.6490      1.6800     78.3900
     55     15.8160     22.1690     12.9560      1.7700     78.3900
     56     15.0810     22.6370     12.3010      0.0100     78.3900
     57     14.1100     23.0170     15.8750      1.7700     78.3900
     58     15.1110     23.3420     16.2270      0.0100     78.3900
     59     13.2980     22.6570     16.9770      1.5900     78.3900
     60     13.0830     23.4770     17.4430      0.0100     78.3900
     61     13.4620     24.1120     15.0400      1.7700     78.3900
     62     14.2020     24.5410     14.3260      0.0100     78.3900
     63     12.7720     25.1190     15.8190      1.5900     78.3900
     64     13.5550     26.4260     16.2320      2.1000     78.3900
     65     13.9560     27.1210     14.9930      1.5900     78.3900
     66     12.6970     27.1940     17.1620      1.5900     78.3900
     67     14.8520     25.9030     16.9540      1.5900     78.3900
     68     14.8450     25.4860     18.3360      1.7700     78.3900
     69     14.1610     24.6210     18.4870      0.0100     78.3900
     70     14.5030     26.3190     18.9900      0.0100     78.3900
     71     16.2460     25.0620     18.8090      1.7700     78.3900
     72     16.2140     24.7010     19.8570      0.0100     78.3900
     73     16.7500     23.9600     18.0010      1.5900     78.3900
     74     18.1560     24.0850     17.8440      1.7700     78.3900
     75     18.5870     23.1570     18.2890      0.0100     78.3900
     76     18.5460     24.1920     16.4100      1.6800     78.3900
     77     17.6890     24.7470     15.4890      1.7700     78.3900
     78     16.7290     25.0740     15.8900      0.0100     78.3900
     79     19.7800     23.7180     16.0250      1.7700     78.3900
     80     20.5690     23.2060     16.8150      1.5900     78.3900
     81     20.0660     23.8480     14.6910      1.6800     78.3900
     82     20.9660     23.5090     14.3810      0.0100     78.3900
     83     19.2500     24.3610     13.7090      1.7700     78.3900
     84     19.6290     24.3780     12.5390      1.5900     78.3900
     85     17.9820     24.8360     14.1840      1.7700     78.3900
     86     17.2770     25.2440     13.4640      0.0100     78.3900
     87     18.6020     25.2890     18.6670      1.7700     78.3900
     88     19.4280     25.8530     18.1800      0.0100     78.3900
     89     18.9890     24.8750     19.9670      1.5900     78.3900
     90     19.0440     25.6680     20.5230      0.0100     78.3900
     91     17.3350     26.1360     18.7120      1.7700     78.3900
     92     17.1850     26.6420     17.7300      0.0100     78.3900
     93     17.2680     27.0350     19.8430      1.5900     78.3900
     94     17.2250     28.5920     19.6230      2.1000     78.3900
     95     16.0120     28.9430     18.8590      1.5900     78.3900
     96     17.3800     29.2450     20.9390      1.5900     78.3900
     97     18.4770     28.9090     18.7300      1.5900     78.3900
     98     19.6000     29.7050     19.1780      1.7700     78.3900
     99     20.5050     29.0620     19.3000      0.0100     78.3900
    100     19.4110     30.2010     20.1630      0.0100     78.3900
    101     19.9130     30.8020     18.1530      1.7700     78.3900
    102     18.9780     31.2780     17.7850      0.0100     78.3900
    103     20.6930     31.8450     18.8100      1.5900     78.3900
    104     21.6350     32.3920     17.8870      1.7700     78.3900
    105     21.4060     33.4810     17.8300      0.0100     78.3900
    106     23.0490     32.2060     18.3320      1.6800     78.3900
    107     23.3520     31.4620     19.4520      1.7700     78.3900
    108     22.5060     30.9740     19.9380      0.0100     78.3900
    109     24.0420     32.8780     17.6490      1.7700     78.3900
    110     23.8100     33.6010     16.6870      1.5900     78.3900
    111     25.3120     32.6950     18.1350      1.6800     78.3900
    112     26.0370     33.2170     17.6690      0.0100     78.3900
    113     25.6790     31.9960     19.2660      1.7700     78.3900
    114     26.8580     31.9530     19.6110      1.5900     78.3900
    115     24.5960     31.3430     19.9350      1.7700     78.3900
    116     24.8100     30.7510     20.8210      0.0100     78.3900
    117     21.3590     31.7530     16.5380      1.7700     78.3900
    118     22.2810     31.6090     15.9400      0.0100     78.3900
    119     20.4320     32.5380     15.8040      1.5900     78.3900
    120     20.1140     32.0020     15.0610      0.0100     78.3900
    121     20.7730     30.4110     16.9450      1.7700     78.3900
    122     21.5700     29.7420     17.3450      0.0100     78.3900
    123     19.9770     29.8070     15.9070      1.5900     78.3900
    124     20.4890     28.5280     15.1510      2.1000     78.3900
    125     20.5530     27.3990     16.0960      1.5900     78.3900
    126     19.6490     28.3640     13.9500      1.5900     78.3900
    127     21.9610     28.9050     14.7220      1.5900     78.3900
    128     22.2260     29.8110     13.6260      1.7700     78.3900
    129     21.7150     30.7920     13.7790      0.0100     78.3900
    130     21.8720     29.3690     12.6630      0.0100     78.3900
    131     23.7350     30.0780     13.4740      1.7700     78.3900
    132     23.9310     30.7520     12.6120      0.0100     78.3900
    133     24.2420     30.7470     14.6670      1.5900     78.3900
    134     25.5140     30.2180     15.0070      1.7700     78.3900
    135     26.2100     31.0880     15.0580      0.0100     78.3900
    136     25.4810     29.5590     16.3100      1.6800     78.3900
    137     26.0260     28.7420     18.2740      1.7700     78.3900
    138     24.6570     28.5660     18.1500      1.6800     78.3900
    139     24.3860     29.0760     16.9750      1.7700     78.3900
    140     23.3950     29.1070     16.5220      0.0100     78.3900
    141     28.2290     28.7930     19.1330      1.6800     78.3900
    142     28.5840     29.3600     17.9760      1.7700     78.3900
    143     29.6470     29.6000     17.8760      0.0100     78.3900
    144     27.8230     29.6740     16.9190      1.6800     78.3900
    145     26.5440     29.3480     17.1440      1.7700     78.3900
    146     26.9260     28.4720     19.3250      1.7700     78.3900
    147     26.5460     27.9370     20.4990      1.6800     78.3900
    148     25.6230     27.5710     20.6400      0.0100     78.3900
    149     27.2460     27.6700     21.1610      0.0100     78.3900
    150     25.9500     29.2950     13.8910      1.7700     78.3900
    151     26.5550     28.4340     14.2490      0.0100     78.3900
    152     26.6840     30.0260     12.9260      1.5900     78.3900
    153     26.7430     29.4730     12.1340      0.0100     78.3900
    154     24.6160     28.8260     13.3320      1.7700     78.3900
    155     24.1760     28.0490     14.0010      0.0100     78.3900
    156     24.6790     28.4200     11.9510      1.5900     78.3900
    157     24.7080     26.9020     11.5630      2.1000     78.3900
    158     23.5960     26.2190     12.2500      1.5900     78.3900
    159     24.7310     26.8230     10.0810      1.5900     78.3900
    160     26.0740     26.3710     12.1350      1.5900     78.3900
    161     27.3380     26.7020     11.5260      1.7700     78.3900
    162     27.4540     27.8060     11.4140      0.0100     78.3900
    163     27.4090     26.2380     10.5150      0.0100     78.3900
    164     28.5160     26.1970     12.3660      1.7700     78.3900
    165     29.4850     26.4480     11.8790      0.0100     78.3900
    166     28.4970     26.8560     13.6660      1.5900     78.3900
    167     28.9120     25.9330     14.6540      1.7700     78.3900
    168     29.7680     26.4000     15.1860      0.0100     78.3900
    169     27.8400     25.6840     15.6150      1.6800     78.3900
    170     26.7290     25.3190     17.4700      1.7700     78.3900
    171     25.7750     25.4650     16.4690      1.6800     78.3900
    172     26.4820     25.6800     15.3900      1.7700     78.3900
    173     26.0730     25.8300     14.3900      0.0100     78.3900
    174     27.7710     24.9720     19.5680      1.6800     78.3900
    175     28.9300     25.0880     18.9140      1.7700     78.3900
    176     29.8260     24.9870     19.5370      0.0100     78.3900
    177     29.1660     25.3790     17.6290      1.6800     78.3900
    178     28.0070     25.4500     16.9540      1.7700     78.3900
    179     26.6210     25.0890     18.8570      1.7700     78.3900
    180     25.4440     24.9730     19.4960      1.6800     78.3900
    181     24.5670     25.0290     19.0170      0.0100     78.3900
    182     25.4330     24.7470     20.4710      0.0100     78.3900
    183     29.3800     24.6810     13.9460      1.7700     78.3900
    184     29.2170     23.7550     14.5400      0.0100     78.3900
    185     30.7480     24.8300     13.6120      1.5900     78.3900
    186     31.0490     24.0180     13.1880      0.0100     78.3900
    187     28.5050     24.7010     12.7040      1.7700     78.3900
    188     27.4570     24.4630     13.0030      0.0100     78.3900
    189     29.0170     23.9040     11.6020      1.5900     78.3900
    190     28.0330     22.9070     10.8630      2.1000     78.3900
    191     26.7750     22.7860     11.6230      1.5900     78.3900
    192     27.9250     23.2960      9.4420      1.5900     78.3900
    193     28.7840     21.5260     10.9690      1.5900     78.3900
    194     28.6090     20.7020     12.1520      1.7700     78.3900
    195     27.8900     19.8820     11.9260      0.0100     78.3900
    196     28.1880     21.2700     13.0180      0.0100     78.3900
    197     29.9260     20.0770     12.6380      1.7700     78.3900
    198     29.7450     19.4820     13.5580      0.0100     78.3900
    199     30.4850     19.1810     11.6470      1.5900     78.3900
    200     31.6940     19.7240     11.1470      1.7700     78.3900
    201     32.5100     19.1580     11.6550      0.0100     78.3900
    202     31.7640     19.5470      9.6970      1.6800     78.3900
    203     32.5140     18.6040      9.0480      1.7700     78.3900
    204     34.8120     16.0140      9.1350      1.6800     78.3900
    205     35.2910     15.4130      8.4920      0.0100     78.3900
    206     34.9930     15.9310     10.1130      0.0100     78.3900
    207     33.3370     17.7120      9.6320      1.6800     78.3900
    208     33.9470     16.9310      8.7400      1.7700     78.3900
    209     33.7190     17.0080      7.3900      1.6800     78.3900
    210     34.2230     16.3720      6.7890      0.0100     78.3900
    211     32.8650     17.9110      6.7650      1.7700     78.3900
    212     32.7130     17.9210      5.5380      1.5900     78.3900
    213     32.2360     18.7730      7.7050      1.7700     78.3900
    214     31.3250     19.8090      7.5120      1.6800     78.3900
    215     31.0710     20.2390      8.7290      1.7700     78.3900
    216     30.3710     21.0400      8.9820      0.0100     78.3900
    217     31.7670     21.1700     11.5720      1.7700     78.3900
    218     31.2170     21.8320     10.8690      0.0100     78.3900
    219     33.0980     21.6180     11.7150      1.5900     78.3900
    220     33.4630     21.1800     12.5010      0.0100     78.3900
    221     31.0310     21.1160     12.9070      1.7700     78.3900
    222     30.5280     22.1000     13.0680      0.0100     78.3900
    223     31.8680     20.7260     14.0190      1.5900     78.3900
    224     31.8200     21.5510     15.3700      2.1000     78.3900
    225     32.4550     20.7680     16.4540      1.5900     78.3900
    226     32.4100     22.8790     15.1130      1.5900     78.3900
    227     30.2870     21.7180     15.6920      1.5900     78.3900
    228     29.4250     20.5900     15.9680      1.7700     78.3900
    229     29.9710     19.6170     16.0140      0.0100     78.3900
    230     28.6780     20.5180     15.1480      0.0100     78.3900
    231     28.6310     20.7490     17.2700      1.7700     78.3900
    232     29.3020     20.7450     18.1530      0.0100     78.3900
    233     27.9080     22.0200     17.2740      1.5900     78.3900
    234     26.6030     21.8250     17.7980      1.7700     78.3900
    235     26.4950     22.5480     18.6370      0.0100     78.3900
    236     25.5480     22.0650     16.7680      1.6800     78.3900
    237     25.8520     22.1210     15.4240      1.7700     78.3900
    238     26.9020     21.9580     15.1720      0.0100     78.3900
    239     24.2620     22.2940     17.2080      1.7700     78.3900
    240     23.9560     22.2690     18.3930      1.5900     78.3900
    241     23.3480     22.5590     16.2250      1.6800     78.3900
    242     22.4040     22.7200     16.5400      0.0100     78.3900
    243     23.5810     22.6480     14.8710      1.7700     78.3900
    244     22.6490     22.9020     14.1130      1.5900     78.3900
    245     24.9390     22.3990     14.4830      1.7700     78.3900
    246     25.2030     22.4500     13.4300      0.0100     78.3900
    247     26.5560     20.4320     18.3800      1.7700     78.3900
    248     25.5410     19.9940     18.3330      0.0100     78.3900
    249     27.0150     20.4280     19.7200      1.5900     78.3900
    250     27.0600     19.4990     19.9860      0.0100     78.3900
    251     27.5190     19.7030     17.4680      1.7700     78.3900
    252     27.0410     19.5740     16.4680      0.0100     78.3900
    253     28.0400     18.4850     18.0410      1.5900     78.3900
    254     27.8110     17.1090     17.3260      2.1000     78.3900
    255     27.5110     17.3570     15.9020      1.5900     78.3900
    256     28.9710     16.2380     17.6240      1.5900     78.3900
    257     26.5160     16.5310     18.0060      1.5900     78.3900
    258     26.4040     16.3300     19.4310      1.7700     78.3900
    259     27.0990     16.9800     20.0160      0.0100     78.3900
    260     26.6490     15.2680     19.6660      0.0100     78.3900
    261     24.9860     16.6260     19.9440      1.7700     78.3900
    262     24.9390     16.4940     21.0470      0.0100     78.3900
    263     24.6310     18.0070     19.6520      1.5900     78.3900
    264     23.2550     18.0790     19.2900      1.7700     78.3900
    265     22.8030     18.8280     19.9830      0.0100     78.3900
    266     23.0380     18.5330     17.8840      1.6800     78.3900
    267     24.0510     18.4370     16.9590      1.7700     78.3900
    268     24.9980     18.0540     17.3310      0.0100     78.3900
    269     23.8920     18.8440     15.6950      1.7700     78.3900
    270     24.7010     18.8160     14.9690      0.0100     78.3900
    271     21.7930     19.0170     17.4880      1.7700     78.3900
    272     20.8690     19.0610     18.3150      1.5900     78.3900
    273     21.6140     19.4450     16.2170      1.6800     78.3900
    274     22.6150     19.3540     15.3260      1.7700     78.3900
    275     22.4120     19.7760     14.0810      1.6800     78.3900
    276     21.5120     20.1320     13.8170      0.0100     78.3900
    277     23.1310     19.7500     13.3860      0.0100     78.3900
    278     22.6510     16.7190     19.5580      1.7700     78.3900
    279     21.8200     16.4800     18.8670      0.0100     78.3900
    280     22.1890     16.6460     20.8990      1.5900     78.3900
    281     21.8520     15.7520     21.0260      0.0100     78.3900
    282     23.8540     15.8070     19.3100      1.7700     78.3900
    283     24.0880     15.7410     18.2190      0.0100     78.3900
    284     23.7760     14.5190     19.9490      1.5900     78.3900
    285     23.2210     13.2890     19.1490      2.1000     78.3900
    286     23.8460     13.2530     17.8110      1.5900     78.3900
    287     23.3740     12.0780     19.9800      1.5900     78.3900
    288     21.6900     13.6200     18.9990      1.5900     78.3900
    289     20.8480     13.5620     20.1770      1.7700     78.3900
    290     21.2320     14.2220     20.9870      0.0100     78.3900
    291     20.8080     12.5220     20.5820      0.0100     78.3900
    292     19.4180     13.9950     19.8510      1.7700     78.3900
    293     18.7650     13.9270     20.7470      0.0100     78.3900
    294     19.4000     15.3810     19.4010      1.5900     78.3900
    295     18.4390     15.5210     18.3630      1.7700     78.3900
    296     17.7280     16.3140     18.6880      0.0100     78.3900
    297     19.0680     15.9310     17.0990      1.6800     78.3900
    298     18.4390     16.5130     16.0310      1.7700     78.3900
    299     15.5550     17.6810     14.5150      1.6800     78.3900
    300     14.8580     17.4790     15.2000      0.0100     78.3900
    301     15.2810     18.1090     13.6490      0.0100     78.3900
    302     17.1270     16.7990     15.9440      1.6800     78.3900
    303     16.8050     17.3530     14.7780      1.7700     78.3900
    304     17.7220     17.6070     13.7900      1.6800     78.3900
    305     17.3930     18.0250     12.9340      0.0100     78.3900
    306     19.0840     17.3300     13.8540      1.7700     78.3900
    307     19.8420     17.5930     12.9160      1.5900     78.3900
    308     19.4300     16.7210     15.0880      1.7700     78.3900
    309     20.6560     16.2550     15.5460      1.6800     78.3900
    310     20.3920     15.7960     16.7440      1.7700     78.3900
    311     21.1170     15.3300     17.4130      0.0100     78.3900
    312     17.7020     14.1980     18.2330      1.7700     78.3900
    313     17.4090     13.9860     17.1830      0.0100     78.3900
    314     16.5540     14.2040     19.0670      1.5900     78.3900
    315     16.1900     13.3020     19.1040      0.0100     78.3900
    316     18.7590     13.2130     18.7120      1.7700     78.3900
    317     19.5200     13.0400     17.9170      0.0100     78.3900
    318     18.2330     11.9630     19.1900      1.5900     78.3900
    319     17.8250     11.4720     18.4560      0.0100     78.3900

     ----------------------------
     INPUT FOR TESSERA DEFINITION
     ----------------------------
     NTSALL  =        60     MTHALL  =         4
     MTHAUT  =         0     AUTFRE  =    2.0000
     NTSFRZ  =        60     KEEPSM  =         0
     AREAKP  =   10.0000     BONDRY  =    1.0000
     AREATL  =    0.0100

     SPHERE     INITS       METHOD
          1        60       FIXPVA
          2        60       FIXPVA
          3        60       FIXPVA
          4        60       FIXPVA
          5        60       FIXPVA
          6        60       FIXPVA
          7        60       FIXPVA
          8        60       FIXPVA
          9        60       FIXPVA
         10        60       FIXPVA
         11        60       FIXPVA
         12        60       FIXPVA
         13        60       FIXPVA
         14        60       FIXPVA
         15        60       FIXPVA
         16        60       FIXPVA
         17        60       FIXPVA
         18        60       FIXPVA
         19        60       FIXPVA
         20        60       FIXPVA
         21        60       FIXPVA
         22        60       FIXPVA
         23        60       FIXPVA
         24        60       FIXPVA
         25        60       FIXPVA
         26        60       FIXPVA
         27        60       FIXPVA
         28        60       FIXPVA
         29        60       FIXPVA
         30        60       FIXPVA
         31        60       FIXPVA
         32        60       FIXPVA
         33        60       FIXPVA
         34        60       FIXPVA
         35        60       FIXPVA
         36        60       FIXPVA
         37        60       FIXPVA
         38        60       FIXPVA
         39        60       FIXPVA
         40        60       FIXPVA
         41        60       FIXPVA
         42        60       FIXPVA
         43        60       FIXPVA
         44        60       FIXPVA
         45        60       FIXPVA
         46        60       FIXPVA
         47        60       FIXPVA
         48        60       FIXPVA
         49        60       FIXPVA
         50        60       FIXPVA
         51        60       FIXPVA
         52        60       FIXPVA
         53        60       FIXPVA
         54        60       FIXPVA
         55        60       FIXPVA
         56        60       FIXPVA
         57        60       FIXPVA
         58        60       FIXPVA
         59        60       FIXPVA
         60        60       FIXPVA
         61        60       FIXPVA
         62        60       FIXPVA
         63        60       FIXPVA
         64        60       FIXPVA
         65        60       FIXPVA
         66        60       FIXPVA
         67        60       FIXPVA
         68        60       FIXPVA
         69        60       FIXPVA
         70        60       FIXPVA
         71        60       FIXPVA
         72        60       FIXPVA
         73        60       FIXPVA
         74        60       FIXPVA
         75        60       FIXPVA
         76        60       FIXPVA
         77        60       FIXPVA
         78        60       FIXPVA
         79        60       FIXPVA
         80        60       FIXPVA
         81        60       FIXPVA
         82        60       FIXPVA
         83        60       FIXPVA
         84        60       FIXPVA
         85        60       FIXPVA
         86        60       FIXPVA
         87        60       FIXPVA
         88        60       FIXPVA
         89        60       FIXPVA
         90        60       FIXPVA
         91        60       FIXPVA
         92        60       FIXPVA
         93        60       FIXPVA
         94        60       FIXPVA
         95        60       FIXPVA
         96        60       FIXPVA
         97        60       FIXPVA
         98        60       FIXPVA
         99        60       FIXPVA
        100        60       FIXPVA
        101        60       FIXPVA
        102        60       FIXPVA
        103        60       FIXPVA
        104        60       FIXPVA
        105        60       FIXPVA
        106        60       FIXPVA
        107        60       FIXPVA
        108        60       FIXPVA
        109        60       FIXPVA
        110        60       FIXPVA
        111        60       FIXPVA
        112        60       FIXPVA
        113        60       FIXPVA
        114        60       FIXPVA
        115        60       FIXPVA
        116        60       FIXPVA
        117        60       FIXPVA
        118        60       FIXPVA
        119        60       FIXPVA
        120        60       FIXPVA
        121        60       FIXPVA
        122        60       FIXPVA
        123        60       FIXPVA
        124        60       FIXPVA
        125        60       FIXPVA
        126        60       FIXPVA
        127        60       FIXPVA
        128        60       FIXPVA
        129        60       FIXPVA
        130        60       FIXPVA
        131        60       FIXPVA
        132        60       FIXPVA
        133        60       FIXPVA
        134        60       FIXPVA
        135        60       FIXPVA
        136        60       FIXPVA
        137        60       FIXPVA
        138        60       FIXPVA
        139        60       FIXPVA
        140        60       FIXPVA
        141        60       FIXPVA
        142        60       FIXPVA
        143        60       FIXPVA
        144        60       FIXPVA
        145        60       FIXPVA
        146        60       FIXPVA
        147        60       FIXPVA
        148        60       FIXPVA
        149        60       FIXPVA
        150        60       FIXPVA
        151        60       FIXPVA
        152        60       FIXPVA
        153        60       FIXPVA
        154        60       FIXPVA
        155        60       FIXPVA
        156        60       FIXPVA
        157        60       FIXPVA
        158        60       FIXPVA
        159        60       FIXPVA
        160        60       FIXPVA
        161        60       FIXPVA
        162        60       FIXPVA
        163        60       FIXPVA
        164        60       FIXPVA
        165        60       FIXPVA
        166        60       FIXPVA
        167        60       FIXPVA
        168        60       FIXPVA
        169        60       FIXPVA
        170        60       FIXPVA
        171        60       FIXPVA
        172        60       FIXPVA
        173        60       FIXPVA
        174        60       FIXPVA
        175        60       FIXPVA
        176        60       FIXPVA
        177        60       FIXPVA
        178        60       FIXPVA
        179        60       FIXPVA
        180        60       FIXPVA
        181        60       FIXPVA
        182        60       FIXPVA
        183        60       FIXPVA
        184        60       FIXPVA
        185        60       FIXPVA
        186        60       FIXPVA
        187        60       FIXPVA
        188        60       FIXPVA
        189        60       FIXPVA
        190        60       FIXPVA
        191        60       FIXPVA
        192        60       FIXPVA
        193        60       FIXPVA
        194        60       FIXPVA
        195        60       FIXPVA
        196        60       FIXPVA
        197        60       FIXPVA
        198        60       FIXPVA
        199        60       FIXPVA
        200        60       FIXPVA
        201        60       FIXPVA
        202        60       FIXPVA
        203        60       FIXPVA
        204        60       FIXPVA
        205        60       FIXPVA
        206        60       FIXPVA
        207        60       FIXPVA
        208        60       FIXPVA
        209        60       FIXPVA
        210        60       FIXPVA
        211        60       FIXPVA
        212        60       FIXPVA
        213        60       FIXPVA
        214        60       FIXPVA
        215        60       FIXPVA
        216        60       FIXPVA
        217        60       FIXPVA
        218        60       FIXPVA
        219        60       FIXPVA
        220        60       FIXPVA
        221        60       FIXPVA
        222        60       FIXPVA
        223        60       FIXPVA
        224        60       FIXPVA
        225        60       FIXPVA
        226        60       FIXPVA
        227        60       FIXPVA
        228        60       FIXPVA
        229        60       FIXPVA
        230        60       FIXPVA
        231        60       FIXPVA
        232        60       FIXPVA
        233        60       FIXPVA
        234        60       FIXPVA
        235        60       FIXPVA
        236        60       FIXPVA
        237        60       FIXPVA
        238        60       FIXPVA
        239        60       FIXPVA
        240        60       FIXPVA
        241        60       FIXPVA
        242        60       FIXPVA
        243        60       FIXPVA
        244        60       FIXPVA
        245        60       FIXPVA
        246        60       FIXPVA
        247        60       FIXPVA
        248        60       FIXPVA
        249        60       FIXPVA
        250        60       FIXPVA
        251        60       FIXPVA
        252        60       FIXPVA
        253        60       FIXPVA
        254        60       FIXPVA
        255        60       FIXPVA
        256        60       FIXPVA
        257        60       FIXPVA
        258        60       FIXPVA
        259        60       FIXPVA
        260        60       FIXPVA
        261        60       FIXPVA
        262        60       FIXPVA
        263        60       FIXPVA
        264        60       FIXPVA
        265        60       FIXPVA
        266        60       FIXPVA
        267        60       FIXPVA
        268        60       FIXPVA
        269        60       FIXPVA
        270        60       FIXPVA
        271        60       FIXPVA
        272        60       FIXPVA
        273        60       FIXPVA
        274        60       FIXPVA
        275        60       FIXPVA
        276        60       FIXPVA
        277        60       FIXPVA
        278        60       FIXPVA
        279        60       FIXPVA
        280        60       FIXPVA
        281        60       FIXPVA
        282        60       FIXPVA
        283        60       FIXPVA
        284        60       FIXPVA
        285        60       FIXPVA
        286        60       FIXPVA
        287        60       FIXPVA
        288        60       FIXPVA
        289        60       FIXPVA
        290        60       FIXPVA
        291        60       FIXPVA
        292        60       FIXPVA
        293        60       FIXPVA
        294        60       FIXPVA
        295        60       FIXPVA
        296        60       FIXPVA
        297        60       FIXPVA
        298        60       FIXPVA
        299        60       FIXPVA
        300        60       FIXPVA
        301        60       FIXPVA
        302        60       FIXPVA
        303        60       FIXPVA
        304        60       FIXPVA
        305        60       FIXPVA
        306        60       FIXPVA
        307        60       FIXPVA
        308        60       FIXPVA
        309        60       FIXPVA
        310        60       FIXPVA
        311        60       FIXPVA
        312        60       FIXPVA
        313        60       FIXPVA
        314        60       FIXPVA
        315        60       FIXPVA
        316        60       FIXPVA
        317        60       FIXPVA
        318        60       FIXPVA
        319        60       FIXPVA

     ------------------------------
      FIXPVA TESSELLATION FOR PCM
         PEIFENG SU AND HUI LI
     UNIVERSITY OF NEBRASKA-LINCOLN
     ------------------------------


 PCM DIMENSIONS: MXSP=   319, MXTS=     12760, MEMORY=        131112

     INPUT FOR CAVITY DEFINITION 
     ---------------------------
   ATOM               COORDINATES                RADIUS       EPS
      1     14.6940     22.4610      5.9900      0.0100     78.3900
      2     14.5060     22.1430      6.8930      1.5900     78.3900
      3     13.0840     21.9960      7.0050      1.7700     78.3900
      4     12.7270     21.2970      6.2150      0.0100     78.3900
      5     12.6100     22.9860      6.8330      0.0100     78.3900
      6     12.6360     21.4740      8.3750      1.7700     78.3900
      7     11.5300     21.4480      8.4470      0.0100     78.3900
      8     13.1110     20.1070      8.5590      1.5900     78.3900
      9     13.5230     19.9360      9.9090      1.7700     78.3900
     10     12.9470     19.0580     10.2880      0.0100     78.3900
     11     14.9770     19.6430     10.0400      1.6800     78.3900
     12     15.8400     19.9460      9.0120      1.7700     78.3900
     13     15.3970     20.3960      8.1240      0.0100     78.3900
     14     17.1480     19.6730      9.0950      1.7700     78.3900
     15     17.8370     19.8800      8.2800      0.0100     78.3900
     16     15.4740     19.0800     11.2130      1.7700     78.3900
     17     14.6940     18.8460     12.1480      1.5900     78.3900
     18     16.7890     18.7800     11.3080      1.6800     78.3900
     19     17.6220     19.0620     10.2900      1.7700     78.3900
     20     18.9100     18.7460     10.4010      1.6800     78.3900
     21     19.2530     18.3580     11.2590      0.0100     78.3900
     22     19.5600     18.9240      9.6640      0.0100     78.3900
     23     13.1000     21.1720     10.6720      1.7700     78.3900
     24     13.7730     21.3990     11.5200      0.0100     78.3900
     25     11.7760     21.0160     11.1420      1.5900     78.3900
     26     11.5580     21.8260     11.6200      0.0100     78.3900
     27     13.1890     22.2420      9.5890      1.7700     78.3900
     28     14.2580     22.4780      9.3690      0.0100     78.3900
     29     12.3870     23.4210      9.8240      1.5900     78.3900
     30     13.0260     24.6740     10.5330      2.1000     78.3900
     31     14.3590     24.9360      9.9480      1.5900     78.3900
     32     12.0440     25.7810     10.4880      1.5900     78.3900
     33     13.2140     24.1970     12.0220      1.5900     78.3900
     34     12.0580     23.9440     12.8560      1.7700     78.3900
     35     11.3420     23.2530     12.3610      0.0100     78.3900
     36     11.5160     24.8930     13.0600      0.0100     78.3900
     37     12.4630     23.3080     14.1940      1.7700     78.3900
     38     11.5740     23.0830     14.8200      0.0100     78.3900
     39     13.1310     22.0390     13.9490      1.5900     78.3900
     40     14.1820     21.8720     14.8910      1.7700     78.3900
     41     13.9810     20.9140     15.4230      0.0100     78.3900
     42     15.4900     21.7790     14.2350      1.6800     78.3900
     43     16.6340     21.2770     14.7920      1.7700     78.3900
     44     18.3420     19.9840     17.5150      1.6800     78.3900
     45     17.6540     19.9830     18.2420      0.0100     78.3900
     46     19.2720     19.6730     17.7300      0.0100     78.3900
     47     16.7580     20.8060     16.0460      1.6800     78.3900
     48     18.0060     20.4240     16.3160      1.7700     78.3900
     49     19.0140     20.4440     15.3880      1.6800     78.3900
     50     19.9290     20.1300     15.6770      0.0100     78.3900
     51     18.9040     20.8890     14.0750      1.7700     78.3900
     52     19.8670     20.8770     13.3010      1.5900     78.3900
     53     17.5920     21.3560     13.8000      1.7700     78.3900
     54     17.0660     21.9270     12.6490      1.6800     78.3900
     55     15.8160     22.1690     12.9560      1.7700     78.3900
     56     15.0810     22.6370     12.3010      0.0100     78.3900
     57     14.1100     23.0170     15.8750      1.7700     78.3900
     58     15.1110     23.3420     16.2270      0.0100     78.3900
     59     13.2980     22.6570     16.9770      1.5900     78.3900
     60     13.0830     23.4770     17.4430      0.0100     78.3900
     61     13.4620     24.1120     15.0400      1.7700     78.3900
     62     14.2020     24.5410     14.3260      0.0100     78.3900
     63     12.7720     25.1190     15.8190      1.5900     78.3900
     64     13.5550     26.4260     16.2320      2.1000     78.3900
     65     13.9560     27.1210     14.9930      1.5900     78.3900
     66     12.6970     27.1940     17.1620      1.5900     78.3900
     67     14.8520     25.9030     16.9540      1.5900     78.3900
     68     14.8450     25.4860     18.3360      1.7700     78.3900
     69     14.1610     24.6210     18.4870      0.0100     78.3900
     70     14.5030     26.3190     18.9900      0.0100     78.3900
     71     16.2460     25.0620     18.8090      1.7700     78.3900
     72     16.2140     24.7010     19.8570      0.0100     78.3900
     73     16.7500     23.9600     18.0010      1.5900     78.3900
     74     18.1560     24.0850     17.8440      1.7700     78.3900
     75     18.5870     23.1570     18.2890      0.0100     78.3900
     76     18.5460     24.1920     16.4100      1.6800     78.3900
     77     17.6890     24.7470     15.4890      1.7700     78.3900
     78     16.7290     25.0740     15.8900      0.0100     78.3900
     79     19.7800     23.7180     16.0250      1.7700     78.3900
     80     20.5690     23.2060     16.8150      1.5900     78.3900
     81     20.0660     23.8480     14.6910      1.6800     78.3900
     82     20.9660     23.5090     14.3810      0.0100     78.3900
     83     19.2500     24.3610     13.7090      1.7700     78.3900
     84     19.6290     24.3780     12.5390      1.5900     78.3900
     85     17.9820     24.8360     14.1840      1.7700     78.3900
     86     17.2770     25.2440     13.4640      0.0100     78.3900
     87     18.6020     25.2890     18.6670      1.7700     78.3900
     88     19.4280     25.8530     18.1800      0.0100     78.3900
     89     18.9890     24.8750     19.9670      1.5900     78.3900
     90     19.0440     25.6680     20.5230      0.0100     78.3900
     91     17.3350     26.1360     18.7120      1.7700     78.3900
     92     17.1850     26.6420     17.7300      0.0100     78.3900
     93     17.2680     27.0350     19.8430      1.5900     78.3900
     94     17.2250     28.5920     19.6230      2.1000     78.3900
     95     16.0120     28.9430     18.8590      1.5900     78.3900
     96     17.3800     29.2450     20.9390      1.5900     78.3900
     97     18.4770     28.9090     18.7300      1.5900     78.3900
     98     19.6000     29.7050     19.1780      1.7700     78.3900
     99     20.5050     29.0620     19.3000      0.0100     78.3900
    100     19.4110     30.2010     20.1630      0.0100     78.3900
    101     19.9130     30.8020     18.1530      1.7700     78.3900
    102     18.9780     31.2780     17.7850      0.0100     78.3900
    103     20.6930     31.8450     18.8100      1.5900     78.3900
    104     21.6350     32.3920     17.8870      1.7700     78.3900
    105     21.4060     33.4810     17.8300      0.0100     78.3900
    106     23.0490     32.2060     18.3320      1.6800     78.3900
    107     23.3520     31.4620     19.4520      1.7700     78.3900
    108     22.5060     30.9740     19.9380      0.0100     78.3900
    109     24.0420     32.8780     17.6490      1.7700     78.3900
    110     23.8100     33.6010     16.6870      1.5900     78.3900
    111     25.3120     32.6950     18.1350      1.6800     78.3900
    112     26.0370     33.2170     17.6690      0.0100     78.3900
    113     25.6790     31.9960     19.2660      1.7700     78.3900
    114     26.8580     31.9530     19.6110      1.5900     78.3900
    115     24.5960     31.3430     19.9350      1.7700     78.3900
    116     24.8100     30.7510     20.8210      0.0100     78.3900
    117     21.3590     31.7530     16.5380      1.7700     78.3900
    118     22.2810     31.6090     15.9400      0.0100     78.3900
    119     20.4320     32.5380     15.8040      1.5900     78.3900
    120     20.1140     32.0020     15.0610      0.0100     78.3900
    121     20.7730     30.4110     16.9450      1.7700     78.3900
    122     21.5700     29.7420     17.3450      0.0100     78.3900
    123     19.9770     29.8070     15.9070      1.5900     78.3900
    124     20.4890     28.5280     15.1510      2.1000     78.3900
    125     20.5530     27.3990     16.0960      1.5900     78.3900
    126     19.6490     28.3640     13.9500      1.5900     78.3900
    127     21.9610     28.9050     14.7220      1.5900     78.3900
    128     22.2260     29.8110     13.6260      1.7700     78.3900
    129     21.7150     30.7920     13.7790      0.0100     78.3900
    130     21.8720     29.3690     12.6630      0.0100     78.3900
    131     23.7350     30.0780     13.4740      1.7700     78.3900
    132     23.9310     30.7520     12.6120      0.0100     78.3900
    133     24.2420     30.7470     14.6670      1.5900     78.3900
    134     25.5140     30.2180     15.0070      1.7700     78.3900
    135     26.2100     31.0880     15.0580      0.0100     78.3900
    136     25.4810     29.5590     16.3100      1.6800     78.3900
    137     26.0260     28.7420     18.2740      1.7700     78.3900
    138     24.6570     28.5660     18.1500      1.6800     78.3900
    139     24.3860     29.0760     16.9750      1.7700     78.3900
    140     23.3950     29.1070     16.5220      0.0100     78.3900
    141     28.2290     28.7930     19.1330      1.6800     78.3900
    142     28.5840     29.3600     17.9760      1.7700     78.3900
    143     29.6470     29.6000     17.8760      0.0100     78.3900
    144     27.8230     29.6740     16.9190      1.6800     78.3900
    145     26.5440     29.3480     17.1440      1.7700     78.3900
    146     26.9260     28.4720     19.3250      1.7700     78.3900
    147     26.5460     27.9370     20.4990      1.6800     78.3900
    148     25.6230     27.5710     20.6400      0.0100     78.3900
    149     27.2460     27.6700     21.1610      0.0100     78.3900
    150     25.9500     29.2950     13.8910      1.7700     78.3900
    151     26.5550     28.4340     14.2490      0.0100     78.3900
    152     26.6840     30.0260     12.9260      1.5900     78.3900
    153     26.7430     29.4730     12.1340      0.0100     78.3900
    154     24.6160     28.8260     13.3320      1.7700     78.3900
    155     24.1760     28.0490     14.0010      0.0100     78.3900
    156     24.6790     28.4200     11.9510      1.5900     78.3900
    157     24.7080     26.9020     11.5630      2.1000     78.3900
    158     23.5960     26.2190     12.2500      1.5900     78.3900
    159     24.7310     26.8230     10.0810      1.5900     78.3900
    160     26.0740     26.3710     12.1350      1.5900     78.3900
    161     27.3380     26.7020     11.5260      1.7700     78.3900
    162     27.4540     27.8060     11.4140      0.0100     78.3900
    163     27.4090     26.2380     10.5150      0.0100     78.3900
    164     28.5160     26.1970     12.3660      1.7700     78.3900
    165     29.4850     26.4480     11.8790      0.0100     78.3900
    166     28.4970     26.8560     13.6660      1.5900     78.3900
    167     28.9120     25.9330     14.6540      1.7700     78.3900
    168     29.7680     26.4000     15.1860      0.0100     78.3900
    169     27.8400     25.6840     15.6150      1.6800     78.3900
    170     26.7290     25.3190     17.4700      1.7700     78.3900
    171     25.7750     25.4650     16.4690      1.6800     78.3900
    172     26.4820     25.6800     15.3900      1.7700     78.3900
    173     26.0730     25.8300     14.3900      0.0100     78.3900
    174     27.7710     24.9720     19.5680      1.6800     78.3900
    175     28.9300     25.0880     18.9140      1.7700     78.3900
    176     29.8260     24.9870     19.5370      0.0100     78.3900
    177     29.1660     25.3790     17.6290      1.6800     78.3900
    178     28.0070     25.4500     16.9540      1.7700     78.3900
    179     26.6210     25.0890     18.8570      1.7700     78.3900
    180     25.4440     24.9730     19.4960      1.6800     78.3900
    181     24.5670     25.0290     19.0170      0.0100     78.3900
    182     25.4330     24.7470     20.4710      0.0100     78.3900
    183     29.3800     24.6810     13.9460      1.7700     78.3900
    184     29.2170     23.7550     14.5400      0.0100     78.3900
    185     30.7480     24.8300     13.6120      1.5900     78.3900
    186     31.0490     24.0180     13.1880      0.0100     78.3900
    187     28.5050     24.7010     12.7040      1.7700     78.3900
    188     27.4570     24.4630     13.0030      0.0100     78.3900
    189     29.0170     23.9040     11.6020      1.5900     78.3900
    190     28.0330     22.9070     10.8630      2.1000     78.3900
    191     26.7750     22.7860     11.6230      1.5900     78.3900
    192     27.9250     23.2960      9.4420      1.5900     78.3900
    193     28.7840     21.5260     10.9690      1.5900     78.3900
    194     28.6090     20.7020     12.1520      1.7700     78.3900
    195     27.8900     19.8820     11.9260      0.0100     78.3900
    196     28.1880     21.2700     13.0180      0.0100     78.3900
    197     29.9260     20.0770     12.6380      1.7700     78.3900
    198     29.7450     19.4820     13.5580      0.0100     78.3900
    199     30.4850     19.1810     11.6470      1.5900     78.3900
    200     31.6940     19.7240     11.1470      1.7700     78.3900
    201     32.5100     19.1580     11.6550      0.0100     78.3900
    202     31.7640     19.5470      9.6970      1.6800     78.3900
    203     32.5140     18.6040      9.0480      1.7700     78.3900
    204     34.8120     16.0140      9.1350      1.6800     78.3900
    205     35.2910     15.4130      8.4920      0.0100     78.3900
    206     34.9930     15.9310     10.1130      0.0100     78.3900
    207     33.3370     17.7120      9.6320      1.6800     78.3900
    208     33.9470     16.9310      8.7400      1.7700     78.3900
    209     33.7190     17.0080      7.3900      1.6800     78.3900
    210     34.2230     16.3720      6.7890      0.0100     78.3900
    211     32.8650     17.9110      6.7650      1.7700     78.3900
    212     32.7130     17.9210      5.5380      1.5900     78.3900
    213     32.2360     18.7730      7.7050      1.7700     78.3900
    214     31.3250     19.8090      7.5120      1.6800     78.3900
    215     31.0710     20.2390      8.7290      1.7700     78.3900
    216     30.3710     21.0400      8.9820      0.0100     78.3900
    217     31.7670     21.1700     11.5720      1.7700     78.3900
    218     31.2170     21.8320     10.8690      0.0100     78.3900
    219     33.0980     21.6180     11.7150      1.5900     78.3900
    220     33.4630     21.1800     12.5010      0.0100     78.3900
    221     31.0310     21.1160     12.9070      1.7700     78.3900
    222     30.5280     22.1000     13.0680      0.0100     78.3900
    223     31.8680     20.7260     14.0190      1.5900     78.3900
    224     31.8200     21.5510     15.3700      2.1000     78.3900
    225     32.4550     20.7680     16.4540      1.5900     78.3900
    226     32.4100     22.8790     15.1130      1.5900     78.3900
    227     30.2870     21.7180     15.6920      1.5900     78.3900
    228     29.4250     20.5900     15.9680      1.7700     78.3900
    229     29.9710     19.6170     16.0140      0.0100     78.3900
    230     28.6780     20.5180     15.1480      0.0100     78.3900
    231     28.6310     20.7490     17.2700      1.7700     78.3900
    232     29.3020     20.7450     18.1530      0.0100     78.3900
    233     27.9080     22.0200     17.2740      1.5900     78.3900
    234     26.6030     21.8250     17.7980      1.7700     78.3900
    235     26.4950     22.5480     18.6370      0.0100     78.3900
    236     25.5480     22.0650     16.7680      1.6800     78.3900
    237     25.8520     22.1210     15.4240      1.7700     78.3900
    238     26.9020     21.9580     15.1720      0.0100     78.3900
    239     24.2620     22.2940     17.2080      1.7700     78.3900
    240     23.9560     22.2690     18.3930      1.5900     78.3900
    241     23.3480     22.5590     16.2250      1.6800     78.3900
    242     22.4040     22.7200     16.5400      0.0100     78.3900
    243     23.5810     22.6480     14.8710      1.7700     78.3900
    244     22.6490     22.9020     14.1130      1.5900     78.3900
    245     24.9390     22.3990     14.4830      1.7700     78.3900
    246     25.2030     22.4500     13.4300      0.0100     78.3900
    247     26.5560     20.4320     18.3800      1.7700     78.3900
    248     25.5410     19.9940     18.3330      0.0100     78.3900
    249     27.0150     20.4280     19.7200      1.5900     78.3900
    250     27.0600     19.4990     19.9860      0.0100     78.3900
    251     27.5190     19.7030     17.4680      1.7700     78.3900
    252     27.0410     19.5740     16.4680      0.0100     78.3900
    253     28.0400     18.4850     18.0410      1.5900     78.3900
    254     27.8110     17.1090     17.3260      2.1000     78.3900
    255     27.5110     17.3570     15.9020      1.5900     78.3900
    256     28.9710     16.2380     17.6240      1.5900     78.3900
    257     26.5160     16.5310     18.0060      1.5900     78.3900
    258     26.4040     16.3300     19.4310      1.7700     78.3900
    259     27.0990     16.9800     20.0160      0.0100     78.3900
    260     26.6490     15.2680     19.6660      0.0100     78.3900
    261     24.9860     16.6260     19.9440      1.7700     78.3900
    262     24.9390     16.4940     21.0470      0.0100     78.3900
    263     24.6310     18.0070     19.6520      1.5900     78.3900
    264     23.2550     18.0790     19.2900      1.7700     78.3900
    265     22.8030     18.8280     19.9830      0.0100     78.3900
    266     23.0380     18.5330     17.8840      1.6800     78.3900
    267     24.0510     18.4370     16.9590      1.7700     78.3900
    268     24.9980     18.0540     17.3310      0.0100     78.3900
    269     23.8920     18.8440     15.6950      1.7700     78.3900
    270     24.7010     18.8160     14.9690      0.0100     78.3900
    271     21.7930     19.0170     17.4880      1.7700     78.3900
    272     20.8690     19.0610     18.3150      1.5900     78.3900
    273     21.6140     19.4450     16.2170      1.6800     78.3900
    274     22.6150     19.3540     15.3260      1.7700     78.3900
    275     22.4120     19.7760     14.0810      1.6800     78.3900
    276     21.5120     20.1320     13.8170      0.0100     78.3900
    277     23.1310     19.7500     13.3860      0.0100     78.3900
    278     22.6510     16.7190     19.5580      1.7700     78.3900
    279     21.8200     16.4800     18.8670      0.0100     78.3900
    280     22.1890     16.6460     20.8990      1.5900     78.3900
    281     21.8520     15.7520     21.0260      0.0100     78.3900
    282     23.8540     15.8070     19.3100      1.7700     78.3900
    283     24.0880     15.7410     18.2190      0.0100     78.3900
    284     23.7760     14.5190     19.9490      1.5900     78.3900
    285     23.2210     13.2890     19.1490      2.1000     78.3900
    286     23.8460     13.2530     17.8110      1.5900     78.3900
    287     23.3740     12.0780     19.9800      1.5900     78.3900
    288     21.6900     13.6200     18.9990      1.5900     78.3900
    289     20.8480     13.5620     20.1770      1.7700     78.3900
    290     21.2320     14.2220     20.9870      0.0100     78.3900
    291     20.8080     12.5220     20.5820      0.0100     78.3900
    292     19.4180     13.9950     19.8510      1.7700     78.3900
    293     18.7650     13.9270     20.7470      0.0100     78.3900
    294     19.4000     15.3810     19.4010      1.5900     78.3900
    295     18.4390     15.5210     18.3630      1.7700     78.3900
    296     17.7280     16.3140     18.6880      0.0100     78.3900
    297     19.0680     15.9310     17.0990      1.6800     78.3900
    298     18.4390     16.5130     16.0310      1.7700     78.3900
    299     15.5550     17.6810     14.5150      1.6800     78.3900
    300     14.8580     17.4790     15.2000      0.0100     78.3900
    301     15.2810     18.1090     13.6490      0.0100     78.3900
    302     17.1270     16.7990     15.9440      1.6800     78.3900
    303     16.8050     17.3530     14.7780      1.7700     78.3900
    304     17.7220     17.6070     13.7900      1.6800     78.3900
    305     17.3930     18.0250     12.9340      0.0100     78.3900
    306     19.0840     17.3300     13.8540      1.7700     78.3900
    307     19.8420     17.5930     12.9160      1.5900     78.3900
    308     19.4300     16.7210     15.0880      1.7700     78.3900
    309     20.6560     16.2550     15.5460      1.6800     78.3900
    310     20.3920     15.7960     16.7440      1.7700     78.3900
    311     21.1170     15.3300     17.4130      0.0100     78.3900
    312     17.7020     14.1980     18.2330      1.7700     78.3900
    313     17.4090     13.9860     17.1830      0.0100     78.3900
    314     16.5540     14.2040     19.0670      1.5900     78.3900
    315     16.1900     13.3020     19.1040      0.0100     78.3900
    316     18.7590     13.2130     18.7120      1.7700     78.3900
    317     19.5200     13.0400     17.9170      0.0100     78.3900
    318     18.2330     11.9630     19.1900      1.5900     78.3900
    319     17.8250     11.4720     18.4560      0.0100     78.3900

 CREATION OF A NEW CAVITY WITH THE ORIGINAL SPHERE
 SIZES FOR THE COMPUTATION OF THE CAVITATION ENERGY.

     INPUT FOR CAVITY DEFINITION 
     ---------------------------
   ATOM               COORDINATES                RADIUS       EPS
      1     14.6940     22.4610      5.9900      0.0100     78.3900
      2     14.5060     22.1430      6.8930      1.5900     78.3900
      3     13.0840     21.9960      7.0050      1.7700     78.3900
      4     12.7270     21.2970      6.2150      0.0100     78.3900
      5     12.6100     22.9860      6.8330      0.0100     78.3900
      6     12.6360     21.4740      8.3750      1.7700     78.3900
      7     11.5300     21.4480      8.4470      0.0100     78.3900
      8     13.1110     20.1070      8.5590      1.5900     78.3900
      9     13.5230     19.9360      9.9090      1.7700     78.3900
     10     12.9470     19.0580     10.2880      0.0100     78.3900
     11     14.9770     19.6430     10.0400      1.6800     78.3900
     12     15.8400     19.9460      9.0120      1.7700     78.3900
     13     15.3970     20.3960      8.1240      0.0100     78.3900
     14     17.1480     19.6730      9.0950      1.7700     78.3900
     15     17.8370     19.8800      8.2800      0.0100     78.3900
     16     15.4740     19.0800     11.2130      1.7700     78.3900
     17     14.6940     18.8460     12.1480      1.5900     78.3900
     18     16.7890     18.7800     11.3080      1.6800     78.3900
     19     17.6220     19.0620     10.2900      1.7700     78.3900
     20     18.9100     18.7460     10.4010      1.6800     78.3900
     21     19.2530     18.3580     11.2590      0.0100     78.3900
     22     19.5600     18.9240      9.6640      0.0100     78.3900
     23     13.1000     21.1720     10.6720      1.7700     78.3900
     24     13.7730     21.3990     11.5200      0.0100     78.3900
     25     11.7760     21.0160     11.1420      1.5900     78.3900
     26     11.5580     21.8260     11.6200      0.0100     78.3900
     27     13.1890     22.2420      9.5890      1.7700     78.3900
     28     14.2580     22.4780      9.3690      0.0100     78.3900
     29     12.3870     23.4210      9.8240      1.5900     78.3900
     30     13.0260     24.6740     10.5330      2.1000     78.3900
     31     14.3590     24.9360      9.9480      1.5900     78.3900
     32     12.0440     25.7810     10.4880      1.5900     78.3900
     33     13.2140     24.1970     12.0220      1.5900     78.3900
     34     12.0580     23.9440     12.8560      1.7700     78.3900
     35     11.3420     23.2530     12.3610      0.0100     78.3900
     36     11.5160     24.8930     13.0600      0.0100     78.3900
     37     12.4630     23.3080     14.1940      1.7700     78.3900
     38     11.5740     23.0830     14.8200      0.0100     78.3900
     39     13.1310     22.0390     13.9490      1.5900     78.3900
     40     14.1820     21.8720     14.8910      1.7700     78.3900
     41     13.9810     20.9140     15.4230      0.0100     78.3900
     42     15.4900     21.7790     14.2350      1.6800     78.3900
     43     16.6340     21.2770     14.7920      1.7700     78.3900
     44     18.3420     19.9840     17.5150      1.6800     78.3900
     45     17.6540     19.9830     18.2420      0.0100     78.3900
     46     19.2720     19.6730     17.7300      0.0100     78.3900
     47     16.7580     20.8060     16.0460      1.6800     78.3900
     48     18.0060     20.4240     16.3160      1.7700     78.3900
     49     19.0140     20.4440     15.3880      1.6800     78.3900
     50     19.9290     20.1300     15.6770      0.0100     78.3900
     51     18.9040     20.8890     14.0750      1.7700     78.3900
     52     19.8670     20.8770     13.3010      1.5900     78.3900
     53     17.5920     21.3560     13.8000      1.7700     78.3900
     54     17.0660     21.9270     12.6490      1.6800     78.3900
     55     15.8160     22.1690     12.9560      1.7700     78.3900
     56     15.0810     22.6370     12.3010      0.0100     78.3900
     57     14.1100     23.0170     15.8750      1.7700     78.3900
     58     15.1110     23.3420     16.2270      0.0100     78.3900
     59     13.2980     22.6570     16.9770      1.5900     78.3900
     60     13.0830     23.4770     17.4430      0.0100     78.3900
     61     13.4620     24.1120     15.0400      1.7700     78.3900
[...]
   267    9   6.0   1.96    3.5    0.002553    0.173883    0.148125
   268    9   1.0   0.00    0.0    0.000000    0.306834    0.333332
   269    9   6.0   8.34   14.7   -0.041371   -0.405448   -0.417810
   270    9   1.0   0.00    0.0    0.000000    0.276184    0.275444
   271    9   6.0   0.46    0.8    0.004705    1.069499    1.093223
   272    9   8.0   7.44   16.3    0.126312   -0.794060   -0.767676
   273    9   7.0   0.00    0.0    0.000000   -0.863780   -0.863280
   274    9   6.0   0.44    0.8    0.002359    0.739118    0.750885
   275    9   7.0  10.81   21.2   -0.085778   -0.943568   -1.005263
   276    9   1.0   0.00    0.0    0.000000    0.468618    0.515980
   277    9   1.0   0.00    0.0    0.000000    0.445579    0.442473
   278    9   6.0   0.05    0.1    0.004821    0.141037    0.108070
   279    9   1.0   0.00    0.0    0.000000    0.201979    0.234275
   280    9   8.0  16.61   36.3    0.092434   -0.827662   -0.846370
   281    9   1.0   0.00    0.0    0.000000    0.500651    0.525770
   282    9   6.0   1.19    2.1   -0.017062    0.138801    0.106302
   283    9   1.0   0.00    0.0    0.000000    0.237997    0.239258
   284    9   8.0   6.07   13.3    0.068803   -0.787978   -0.795432
   285    9  15.0   9.13   11.4    0.134278    1.596755    1.654097
   286    9   8.0  15.75   34.4    0.334802   -0.894463   -0.893955
   287    9   8.0  17.59   38.5    0.348284   -0.892612   -0.887488
   288    9   8.0   0.49    1.1    0.016997   -0.968729   -0.785353
   289   10   6.0  11.43   20.2   -0.079644    0.206301   -0.034512
   290   10   1.0   0.00    0.0    0.000000    0.140137    0.165404
   291   10   1.0   0.00    0.0    0.000000    0.251986    0.233475
   292   10   6.0   7.25   12.8   -0.055863    0.097303    0.160702
   293   10   1.0   0.00    0.0    0.000000    0.249931    0.220923
   294   10   8.0   4.23    9.3    0.050151   -0.726791   -0.734485
   295   10   6.0   4.75    8.4   -0.044850    0.422306    0.422921
   296   10   1.0   0.00    0.0    0.000000    0.252398    0.248988
   297   10   7.0   0.00    0.0    0.000000   -0.795247   -0.806028
   298   10   6.0   1.35    2.4    0.000190    0.713078    0.714838
   299   10   7.0  14.30   28.0   -0.092699   -0.966440   -1.052019
   300   10   1.0   0.00    0.0    0.000000    0.444164    0.439550
   301   10   1.0   0.00    0.0    0.000000    0.475156    0.526391
   302   10   7.0   7.58   14.8    0.111074   -0.756078   -0.756488
   303   10   6.0   3.41    6.0   -0.002391    0.975873    0.970700
   304   10   7.0   2.46    4.8    0.005280   -0.940123   -1.031440
   305   10   1.0   0.00    0.0    0.000000    0.485611    0.543963
   306   10   6.0   2.32    4.1    0.005913    0.872759    0.870435
   307   10   8.0   9.67   21.1    0.150934   -0.754128   -0.738701
   308   10   6.0   1.89    3.3    0.014302   -0.047117   -0.041176
   309   10   7.0   8.05   15.8    0.137102   -0.598262   -0.598339
   310   10   6.0   3.06    5.4    0.011628    0.276517    0.269167
   311   10   1.0   0.00    0.0    0.000000    0.261296    0.282039
   312   10   6.0   7.87   13.9   -0.057476    0.109880    0.110346
   313   10   1.0   0.00    0.0    0.000000    0.229113    0.228296
   314   10   8.0  20.27   44.3    0.050454   -0.836943   -0.838566
   315   10   1.0   0.00    0.0    0.000000    0.500061    0.499917
   316   10   6.0   5.76   10.2   -0.042666    0.165192    0.149279
   317   10   1.0   0.00    0.0    0.000000    0.217083    0.220514
   318   10   8.0  22.54   49.3   -0.014219   -0.849406   -0.853734
   319   10   1.0   0.00    0.0    0.000000    0.507525    0.506878

 Done with FMO properties.
 CPU     0: STEP CPU TIME=     0.00 TOTAL CPU TIME=      17595.9 (    293.3 MIN)
 TOTAL WALL CLOCK TIME=      36269.4 SECONDS, CPU UTILIZATION IS    48.51%
 CPU     0: STEP CPU TIME=     0.00 TOTAL CPU TIME=      17595.9 (    293.3 MIN)
 TOTAL WALL CLOCK TIME=      36269.5 SECONDS, CPU UTILIZATION IS    48.51%

 Total timing statistics in pairs (CPU,wall) for each rank, sec

    Rank   total     SCF    corr     DFT    CPHF     EFP    solv     ESP    geom
 -------------------------------------------------------------------------------
       1   17595.9   4827.8   6802.8      0.0    0.0   0.0  139.9  5513.2    0.0
       1   36269.6  10422.4  14119.9      0.0    0.0   0.0  391.6 10693.3    0.0
       2   15605.4   4722.9   5080.8      0.0    0.0   0.0  141.6  5392.8    0.0
       2   36269.6  10387.9  14119.9      0.0    0.0   0.0  391.5 10692.5    0.0
       3   17211.4   4733.9   6652.0      0.0    0.0   0.0  141.2  5401.7    0.0
       3   36269.6  10387.7  14119.8      0.0    0.0   0.0  391.6 10692.8    0.0
       4   17373.6   4703.1   6878.5      0.0    0.0   0.0  141.0  5345.0    0.0
       4   36269.6  10387.9  14119.8      0.0    0.0   0.0  390.9 10692.6    0.0
       5   17739.8   4775.4   7088.3      0.0    0.0   0.0  140.0  5448.5    0.0
       5   36269.6  10388.7  14119.9      0.0    0.0   0.0  391.2 10692.6    0.0
       6   18044.2   4762.6   7387.1      0.0    0.0   0.0  139.6  5467.4    0.0
       6   36269.6  10388.7  14119.8      0.0    0.0   0.0  390.6 10692.4    0.0
       7   16329.6   4746.4   5938.2      0.0    0.0   0.0  139.5  5204.1    0.0
       7   36269.6  10389.1  14119.8      0.0    0.0   0.0  390.3 10692.4    0.0
       8   16517.8   4743.9   6133.9      0.0    0.0   0.0  139.8  5240.7    0.0
       8   36269.6  10389.3  14119.8      0.0    0.0   0.0  389.5 10692.3    0.0
       9   18793.2   4847.4   7969.3      0.0    0.0   0.0  137.5  5559.4    0.0
       9   36269.6  10389.2  14119.8      0.0    0.0   0.0  390.3 10692.9    0.0
      10   14143.8   4593.4   4178.1      0.0    0.0   0.0  138.1  4969.3    0.0
      10   36269.6  10389.0  14119.8      0.0    0.0   0.0  389.9 10692.9    0.0
      11   14464.1   4642.5   4251.1      0.0    0.0   0.0  137.9  5158.3    0.0
      11   36269.6  10389.4  14119.8      0.0    0.0   0.0  389.7 10692.7    0.0
      12   15008.3   4632.8   4829.6      0.0    0.0   0.0  137.6  5150.4    0.0
      12   36269.6  10389.6  14119.8      0.0    0.0   0.0  389.0 10692.6    0.0
      13   17205.8   4856.5   6691.6      0.0    0.0   0.0  137.4  5266.4    0.0
      13   36269.6  10390.2  14119.8      0.0    0.0   0.0  389.5 10692.7    0.0
      14   15974.2   4728.9   5687.1      0.0    0.0   0.0  137.4  5163.0    0.0
      14   36269.6  10389.7  14119.8      0.0    0.0   0.0  389.2 10692.5    0.0
      15   17729.9   4741.5   7350.3      0.0    0.0   0.0  137.6  5219.4    0.0
      15   36269.6  10389.4  14119.7      0.0    0.0   0.0  389.1 10692.4    0.0
      16   18369.7   4776.3   7811.2      0.0    0.0   0.0  137.8  5382.4    0.0
      16   36269.6  10389.8  14119.7      0.0    0.0   0.0  388.4 10692.4    0.0
averaged   16756.7   4739.7   6295.6      0.0    0.0   0.0  139.0  5305.1    0.0
averaged   36269.6  10391.1  14119.8      0.0    0.0   0.0  390.2 10692.6    0.0

  FMO  timing statistics in pairs (CPU,wall) for each rank, sec

    Rank  FMOini FMOscf1  FMOdm1 FMOsyn1 FMOscf2  FMOes2 FMOsyn2 FMOscf3 FMOsyn3
 -------------------------------------------------------------------------------
       1    2.0    6564.2    0.3    0.0   10804.8     224.6    0.0    0.0    0.0
       1    5.1   13985.1    0.6    0.0   21883.7     394.7    0.0    0.0    0.0
       2    1.5    6586.1    0.1    0.0    8835.0     182.7    0.0    0.0    0.0
       2    5.1   13985.1    0.6    0.1   21883.5     394.9    0.0    0.0    0.0
       3    1.7    6538.2    0.1    0.0   10473.6     197.8    0.0    0.0    0.0
       3    5.1   13985.1    0.6    0.0   21883.3     395.0    0.0    0.0    0.0
       4    1.5    6530.8    0.1    0.0   10618.3     222.9    0.0    0.0    0.0
       4    5.1   13985.1    0.6    0.0   21883.2     395.2    0.0    0.0    0.0
       5    1.8    6623.7    0.2    0.0   10910.9     203.2    0.0    0.0    0.0
       5    5.1   13985.1    0.6    0.0   21883.0     395.4    0.0    0.0    0.0
       6    1.5    6562.1    0.1    0.0   11275.4     205.2    0.0    0.0    0.0
       6    5.1   13985.1    0.6    0.0   21883.4     395.0    0.0    0.0    0.0
       7    1.7    6555.6    0.1    0.0    9554.3     217.9    0.0    0.0    0.0
       7    5.1   13985.1    0.6    0.0   21883.2     395.2    0.0    0.0    0.0
       8    1.4    6497.2    0.1    0.0    9841.5     177.6    0.0    0.0    0.0
       8    5.1   13985.1    0.6    0.0   21883.2     395.2    0.0    0.0    0.0
       9    1.8    6506.8    0.3    0.0   12087.7     196.7    0.0    0.0    0.0
       9    5.1   13985.1    0.6    0.0   21883.7     394.7    0.0    0.0    0.0
      10    1.4    6470.0    0.0    0.0    7488.2     184.2    0.0    0.0    0.0
      10    5.1   13985.1    0.6    0.0   21882.9     395.5    0.0    0.0    0.0
      11    1.5    6481.7    0.1    0.0    7788.1     192.7    0.0    0.0    0.0
      11    5.1   13985.1    0.6    0.1   21883.1     395.3    0.0    0.0    0.0
      12    1.3    6509.9    0.1    0.0    8319.1     177.9    0.0    0.0    0.0
      12    5.1   13985.1    0.6    0.0   21883.4     395.0    0.0    0.0    0.0
      13    1.6    6519.3    0.2    0.0   10513.3     171.4    0.0    0.0    0.0
      13    5.1   13985.1    0.6    0.0   21883.1     395.3    0.0    0.0    0.0
      14    1.3    6523.2    0.1    0.0    9271.4     178.2    0.0    0.0    0.0
      14    5.1   13985.1    0.6    0.0   21883.8     394.6    0.0    0.0    0.0
      15    1.5    6392.9    0.1    0.0   11134.3     201.0    0.0    0.0    0.0
      15    5.1   13985.1    0.6    0.0   21884.1     394.3    0.0    0.0    0.0
      16    1.4    6521.0    0.0    0.0   11665.0     182.4    0.0    0.0    0.0
      16    5.1   13985.1    0.6    0.0   21884.9     393.5    0.0    0.0    0.0
averaged    1.6    6523.9    0.1    0.0   10036.3     194.8    0.0    0.0    0.0
averaged    5.1   13985.1    0.6    0.0   21883.5     394.9    0.0    0.0    0.0
             62732487  WORDS OF DYNAMIC MEMORY USED
 EXECUTION OF GAMESS TERMINATED NORMALLY Sun Dec  8 18:40:25 2019
 DDI: 263640 bytes (0.3 MB / 0 MWords) used by master data server.

 ----------------------------------------
 CPU timing information for all processes
 ========================================
 0: 17187.16 + 408.944 = 17595.961
 1: 15308.969 + 296.440 = 15605.410
 2: 16823.739 + 387.700 = 17211.439
 3: 17000.239 + 373.387 = 17373.626
 4: 17334.136 + 405.731 = 17739.868
 5: 17643.793 + 400.458 = 18044.251
 6: 15986.563 + 343.53 = 16329.616
 7: 16172.197 + 345.651 = 16517.848
 8: 18323.340 + 469.918 = 18793.258
 9: 13896.548 + 247.324 = 14143.873
 10: 14191.115 + 273.49 = 14464.165
 11: 14718.102 + 290.253 = 15008.355
 12: 16808.340 + 397.498 = 17205.839
 13: 15656.775 + 317.493 = 15974.269
 14: 17335.710 + 394.183 = 17729.893
 15: 17957.401 + 412.355 = 18369.756
 ----------------------------------------
 ddikick.x: exited gracefully.
----- accounting info -----
Files used on the master node gollum064.lsa.umich.edu were:
-rw-r--r-- 1 hazwong frank    16518 Dec  8 08:35 /scratch/hazwong/827099/1HS2_3/usrc/1HS2_3_fmo_input.F05
-rw-r--r-- 1 hazwong frank      634 Dec  8 18:40 /scratch/hazwong/827099/1HS2_3/usrc/1HS2_3_fmo_input.F06.001
-rw-r--r-- 1 hazwong frank      634 Dec  8 18:40 /scratch/hazwong/827099/1HS2_3/usrc/1HS2_3_fmo_input.F06.002
-rw-r--r-- 1 hazwong frank      634 Dec  8 18:40 /scratch/hazwong/827099/1HS2_3/usrc/1HS2_3_fmo_input.F06.003
-rw-r--r-- 1 hazwong frank      634 Dec  8 18:40 /scratch/hazwong/827099/1HS2_3/usrc/1HS2_3_fmo_input.F06.004
-rw-r--r-- 1 hazwong frank      634 Dec  8 18:40 /scratch/hazwong/827099/1HS2_3/usrc/1HS2_3_fmo_input.F06.005
-rw-r--r-- 1 hazwong frank      634 Dec  8 18:40 /scratch/hazwong/827099/1HS2_3/usrc/1HS2_3_fmo_input.F06.006
-rw-r--r-- 1 hazwong frank      634 Dec  8 18:40 /scratch/hazwong/827099/1HS2_3/usrc/1HS2_3_fmo_input.F06.007
-rw-r--r-- 1 hazwong frank      634 Dec  8 18:40 /scratch/hazwong/827099/1HS2_3/usrc/1HS2_3_fmo_input.F06.008
-rw-r--r-- 1 hazwong frank      634 Dec  8 18:40 /scratch/hazwong/827099/1HS2_3/usrc/1HS2_3_fmo_input.F06.009
-rw-r--r-- 1 hazwong frank      634 Dec  8 18:40 /scratch/hazwong/827099/1HS2_3/usrc/1HS2_3_fmo_input.F06.010
-rw-r--r-- 1 hazwong frank      634 Dec  8 18:40 /scratch/hazwong/827099/1HS2_3/usrc/1HS2_3_fmo_input.F06.011
-rw-r--r-- 1 hazwong frank      634 Dec  8 18:40 /scratch/hazwong/827099/1HS2_3/usrc/1HS2_3_fmo_input.F06.012
-rw-r--r-- 1 hazwong frank      634 Dec  8 18:40 /scratch/hazwong/827099/1HS2_3/usrc/1HS2_3_fmo_input.F06.013
-rw-r--r-- 1 hazwong frank      634 Dec  8 18:40 /scratch/hazwong/827099/1HS2_3/usrc/1HS2_3_fmo_input.F06.014
-rw-r--r-- 1 hazwong frank      634 Dec  8 18:40 /scratch/hazwong/827099/1HS2_3/usrc/1HS2_3_fmo_input.F06.015
-rw-r--r-- 1 hazwong frank     9128 Dec  8 18:40 /scratch/hazwong/827099/1HS2_3/usrc/1HS2_3_fmo_input.F07
-rw-r--r-- 1 hazwong frank        0 Dec  8 08:35 /scratch/hazwong/827099/1HS2_3/usrc/1HS2_3_fmo_input.F07.001
-rw-r--r-- 1 hazwong frank        0 Dec  8 08:35 /scratch/hazwong/827099/1HS2_3/usrc/1HS2_3_fmo_input.F07.002
-rw-r--r-- 1 hazwong frank        0 Dec  8 08:35 /scratch/hazwong/827099/1HS2_3/usrc/1HS2_3_fmo_input.F07.003
-rw-r--r-- 1 hazwong frank        0 Dec  8 08:35 /scratch/hazwong/827099/1HS2_3/usrc/1HS2_3_fmo_input.F07.004
-rw-r--r-- 1 hazwong frank        0 Dec  8 08:35 /scratch/hazwong/827099/1HS2_3/usrc/1HS2_3_fmo_input.F07.005
-rw-r--r-- 1 hazwong frank        0 Dec  8 08:35 /scratch/hazwong/827099/1HS2_3/usrc/1HS2_3_fmo_input.F07.006
-rw-r--r-- 1 hazwong frank        0 Dec  8 08:35 /scratch/hazwong/827099/1HS2_3/usrc/1HS2_3_fmo_input.F07.007
-rw-r--r-- 1 hazwong frank        0 Dec  8 08:35 /scratch/hazwong/827099/1HS2_3/usrc/1HS2_3_fmo_input.F07.008
-rw-r--r-- 1 hazwong frank        0 Dec  8 08:35 /scratch/hazwong/827099/1HS2_3/usrc/1HS2_3_fmo_input.F07.009
-rw-r--r-- 1 hazwong frank        0 Dec  8 08:35 /scratch/hazwong/827099/1HS2_3/usrc/1HS2_3_fmo_input.F07.010
-rw-r--r-- 1 hazwong frank        0 Dec  8 08:35 /scratch/hazwong/827099/1HS2_3/usrc/1HS2_3_fmo_input.F07.011
-rw-r--r-- 1 hazwong frank        0 Dec  8 08:35 /scratch/hazwong/827099/1HS2_3/usrc/1HS2_3_fmo_input.F07.012
-rw-r--r-- 1 hazwong frank        0 Dec  8 08:35 /scratch/hazwong/827099/1HS2_3/usrc/1HS2_3_fmo_input.F07.013
-rw-r--r-- 1 hazwong frank        0 Dec  8 08:35 /scratch/hazwong/827099/1HS2_3/usrc/1HS2_3_fmo_input.F07.014
-rw-r--r-- 1 hazwong frank        0 Dec  8 08:35 /scratch/hazwong/827099/1HS2_3/usrc/1HS2_3_fmo_input.F07.015
-rw-r--r-- 1 hazwong frank    65440 Dec  8 18:40 /scratch/hazwong/827099/1HS2_3/usrc/1HS2_3_fmo_input.F10.000
-rw-r--r-- 1 hazwong frank        0 Dec  8 08:35 /scratch/hazwong/827099/1HS2_3/usrc/1HS2_3_fmo_input.F26.000
-rw-r--r-- 1 hazwong frank        0 Dec  8 08:35 /scratch/hazwong/827099/1HS2_3/usrc/1HS2_3_fmo_input.F26.001
-rw-r--r-- 1 hazwong frank        0 Dec  8 08:35 /scratch/hazwong/827099/1HS2_3/usrc/1HS2_3_fmo_input.F26.002
-rw-r--r-- 1 hazwong frank        0 Dec  8 08:35 /scratch/hazwong/827099/1HS2_3/usrc/1HS2_3_fmo_input.F26.003
-rw-r--r-- 1 hazwong frank        0 Dec  8 08:35 /scratch/hazwong/827099/1HS2_3/usrc/1HS2_3_fmo_input.F26.004
-rw-r--r-- 1 hazwong frank        0 Dec  8 08:35 /scratch/hazwong/827099/1HS2_3/usrc/1HS2_3_fmo_input.F26.005
-rw-r--r-- 1 hazwong frank        0 Dec  8 08:35 /scratch/hazwong/827099/1HS2_3/usrc/1HS2_3_fmo_input.F26.006
-rw-r--r-- 1 hazwong frank        0 Dec  8 08:35 /scratch/hazwong/827099/1HS2_3/usrc/1HS2_3_fmo_input.F26.007
-rw-r--r-- 1 hazwong frank        0 Dec  8 08:35 /scratch/hazwong/827099/1HS2_3/usrc/1HS2_3_fmo_input.F26.008
-rw-r--r-- 1 hazwong frank        0 Dec  8 08:35 /scratch/hazwong/827099/1HS2_3/usrc/1HS2_3_fmo_input.F26.009
-rw-r--r-- 1 hazwong frank        0 Dec  8 08:35 /scratch/hazwong/827099/1HS2_3/usrc/1HS2_3_fmo_input.F26.010
-rw-r--r-- 1 hazwong frank        0 Dec  8 08:35 /scratch/hazwong/827099/1HS2_3/usrc/1HS2_3_fmo_input.F26.011
-rw-r--r-- 1 hazwong frank        0 Dec  8 08:35 /scratch/hazwong/827099/1HS2_3/usrc/1HS2_3_fmo_input.F26.012
-rw-r--r-- 1 hazwong frank        0 Dec  8 08:35 /scratch/hazwong/827099/1HS2_3/usrc/1HS2_3_fmo_input.F26.013
-rw-r--r-- 1 hazwong frank        0 Dec  8 08:35 /scratch/hazwong/827099/1HS2_3/usrc/1HS2_3_fmo_input.F26.014
-rw-r--r-- 1 hazwong frank        0 Dec  8 08:35 /scratch/hazwong/827099/1HS2_3/usrc/1HS2_3_fmo_input.F26.015
-rw-r--r-- 1 hazwong frank        0 Dec  8 08:35 /scratch/hazwong/827099/1HS2_3/usrc/1HS2_3_fmo_input.F27.000
-rw-r--r-- 1 hazwong frank        0 Dec  8 08:35 /scratch/hazwong/827099/1HS2_3/usrc/1HS2_3_fmo_input.F27.001
-rw-r--r-- 1 hazwong frank        0 Dec  8 08:35 /scratch/hazwong/827099/1HS2_3/usrc/1HS2_3_fmo_input.F27.002
-rw-r--r-- 1 hazwong frank        0 Dec  8 08:35 /scratch/hazwong/827099/1HS2_3/usrc/1HS2_3_fmo_input.F27.003
-rw-r--r-- 1 hazwong frank        0 Dec  8 08:35 /scratch/hazwong/827099/1HS2_3/usrc/1HS2_3_fmo_input.F27.004
-rw-r--r-- 1 hazwong frank        0 Dec  8 08:35 /scratch/hazwong/827099/1HS2_3/usrc/1HS2_3_fmo_input.F27.005
-rw-r--r-- 1 hazwong frank        0 Dec  8 08:35 /scratch/hazwong/827099/1HS2_3/usrc/1HS2_3_fmo_input.F27.006
-rw-r--r-- 1 hazwong frank        0 Dec  8 08:35 /scratch/hazwong/827099/1HS2_3/usrc/1HS2_3_fmo_input.F27.007
-rw-r--r-- 1 hazwong frank        0 Dec  8 08:35 /scratch/hazwong/827099/1HS2_3/usrc/1HS2_3_fmo_input.F27.008
-rw-r--r-- 1 hazwong frank        0 Dec  8 08:35 /scratch/hazwong/827099/1HS2_3/usrc/1HS2_3_fmo_input.F27.009
-rw-r--r-- 1 hazwong frank        0 Dec  8 08:35 /scratch/hazwong/827099/1HS2_3/usrc/1HS2_3_fmo_input.F27.010
-rw-r--r-- 1 hazwong frank        0 Dec  8 08:35 /scratch/hazwong/827099/1HS2_3/usrc/1HS2_3_fmo_input.F27.011
-rw-r--r-- 1 hazwong frank        0 Dec  8 08:35 /scratch/hazwong/827099/1HS2_3/usrc/1HS2_3_fmo_input.F27.012
-rw-r--r-- 1 hazwong frank        0 Dec  8 08:35 /scratch/hazwong/827099/1HS2_3/usrc/1HS2_3_fmo_input.F27.013
-rw-r--r-- 1 hazwong frank        0 Dec  8 08:35 /scratch/hazwong/827099/1HS2_3/usrc/1HS2_3_fmo_input.F27.014
-rw-r--r-- 1 hazwong frank        0 Dec  8 08:35 /scratch/hazwong/827099/1HS2_3/usrc/1HS2_3_fmo_input.F27.015
-rw-r--r-- 1 hazwong frank 20332544 Dec  8 12:29 /scratch/hazwong/827099/1HS2_3/usrc/1HS2_3_fmo_input.F40.000
-rw-r--r-- 1 hazwong frank 20332544 Dec  8 12:29 /scratch/hazwong/827099/1HS2_3/usrc/1HS2_3_fmo_input.F40.001
-rw-r--r-- 1 hazwong frank 20332544 Dec  8 12:29 /scratch/hazwong/827099/1HS2_3/usrc/1HS2_3_fmo_input.F40.002
-rw-r--r-- 1 hazwong frank 20332544 Dec  8 12:29 /scratch/hazwong/827099/1HS2_3/usrc/1HS2_3_fmo_input.F40.003
-rw-r--r-- 1 hazwong frank 20332544 Dec  8 12:29 /scratch/hazwong/827099/1HS2_3/usrc/1HS2_3_fmo_input.F40.004
-rw-r--r-- 1 hazwong frank 20332544 Dec  8 12:29 /scratch/hazwong/827099/1HS2_3/usrc/1HS2_3_fmo_input.F40.005
-rw-r--r-- 1 hazwong frank 20332544 Dec  8 12:29 /scratch/hazwong/827099/1HS2_3/usrc/1HS2_3_fmo_input.F40.006
-rw-r--r-- 1 hazwong frank 20332544 Dec  8 12:29 /scratch/hazwong/827099/1HS2_3/usrc/1HS2_3_fmo_input.F40.007
-rw-r--r-- 1 hazwong frank 20332544 Dec  8 12:29 /scratch/hazwong/827099/1HS2_3/usrc/1HS2_3_fmo_input.F40.008
-rw-r--r-- 1 hazwong frank 20332544 Dec  8 12:29 /scratch/hazwong/827099/1HS2_3/usrc/1HS2_3_fmo_input.F40.009
-rw-r--r-- 1 hazwong frank 20332544 Dec  8 12:29 /scratch/hazwong/827099/1HS2_3/usrc/1HS2_3_fmo_input.F40.010
-rw-r--r-- 1 hazwong frank 20332544 Dec  8 12:29 /scratch/hazwong/827099/1HS2_3/usrc/1HS2_3_fmo_input.F40.011
-rw-r--r-- 1 hazwong frank 20332544 Dec  8 12:29 /scratch/hazwong/827099/1HS2_3/usrc/1HS2_3_fmo_input.F40.012
-rw-r--r-- 1 hazwong frank 20332544 Dec  8 12:29 /scratch/hazwong/827099/1HS2_3/usrc/1HS2_3_fmo_input.F40.013
-rw-r--r-- 1 hazwong frank 20332544 Dec  8 12:29 /scratch/hazwong/827099/1HS2_3/usrc/1HS2_3_fmo_input.F40.014
-rw-r--r-- 1 hazwong frank 20332544 Dec  8 12:29 /scratch/hazwong/827099/1HS2_3/usrc/1HS2_3_fmo_input.F40.015
Sun Dec  8 18:40:28 EST 2019
0.193u 0.098s 10:04:33.19 0.0%	0+0k 1432+136io 26pf+0w
