----- GAMESS execution script 'rungms' -----
This job is running on host gollum089.lsa.umich.edu
under operating system Linux at Sun Nov 17 21:30:58 EST 2019
Available scratch disk space (Kbyte units) at beginning of the job is
Filesystem     1K-blocks  Used Available Use% Mounted on
/dev/sda4      426933580 33260 426900320   1% /scratch
GAMESS temporary binary files will be written to /scratch/hazwong/638761/1HS2_5/usrc
GAMESS supplementary output files will be written to /scratch/hazwong/638761/1HS2_5/src
Copying input file 1HS2_5_fmo_input.inp to your run's scratch directory...
This is a GDDI run, keeping various output files on local disks
 
Assuming a single but multicore node.
 

 Distributed Data Interface kickoff program.
 Initiating 16 compute processes on 1 nodes to run the following command:
 /export/apps/CentOS7/gamess/src/build//gamess.R3.x 1HS2_5_fmo_input 

          ******************************************************
          *         GAMESS VERSION = 30 SEP 2018 (R3)         *
          *             FROM IOWA STATE UNIVERSITY             *
          * M.W.SCHMIDT, K.K.BALDRIDGE, J.A.BOATZ, S.T.ELBERT, *
          *   M.S.GORDON, J.H.JENSEN, S.KOSEKI, N.MATSUNAGA,   *
          *          K.A.NGUYEN, S.J.SU, T.L.WINDUS,           *
          *       TOGETHER WITH M.DUPUIS, J.A.MONTGOMERY       *
          *         J.COMPUT.CHEM.  14, 1347-1363(1993)        *
          **************** 64 BIT LINUX VERSION ****************

  SINCE 1993, STUDENTS AND POSTDOCS WORKING AT IOWA STATE UNIVERSITY
  AND ALSO IN THEIR VARIOUS JOBS AFTER LEAVING ISU HAVE MADE IMPORTANT
  CONTRIBUTIONS TO THE CODE:
     IVANA ADAMOVIC, CHRISTINE AIKENS, YURI ALEXEEV, POOJA ARORA,
     ANDREY ASADCHEV, ROB BELL, PRADIPTA BANDYOPADHYAY, JONATHAN BENTZ,
     BRETT BODE, KURT BRORSEN, CALEB CARLIN, GALINA CHABAN, WEI CHEN,
     CHEOL HO CHOI, PAUL DAY, ALBERT DEFUSCO, NUWAN DESILVA, TIM DUDLEY,
     DMITRI FEDOROV, ALEX FINDLATER, GRAHAM FLETCHER, MARK FREITAG,
     KURT GLAESEMANN, ANASTASIA GUNINA,
     DAN KEMP, GRANT MERRILL, NORIYUKI MINEZAWA, JONATHAN MULLIN,
     TAKESHI NAGATA, SEAN NEDD, HEATHER NETZLOFF, BOSILJKA NJEGIC, RYAN OLSON,
     MIKE PAK, BUU PHAM,
     SPENCER PRUITT, LUKE ROSKOP, JIM SHOEMAKER, LYUDMILA SLIPCHENKO,
     TONY SMITH, SAROM SOK LEANG, JIE SONG, TETSUYA TAKETSUGU, SIMON WEBB,
     PENG XU, SOOHAENG YOO, FEDERICO ZAHARIEV

  ADDITIONAL CODE HAS BEEN PROVIDED BY COLLABORATORS IN OTHER GROUPS:
     IOWA STATE UNIVERSITY:
          JOE IVANIC, AARON WEST, LAIMUTIS BYTAUTAS, KLAUS RUEDENBERG
     UNIVERSITY OF TOKYO: KIMIHIKO HIRAO, TAKAHITO NAKAJIMA,
          TAKAO TSUNEDA, MUNEAKI KAMIYA, SUSUMU YANAGISAWA,
          KIYOSHI YAGI, MAHITO CHIBA, SEIKEN TOKURA, NAOAKI KAWAKAMI
     UNIVERSITY OF AARHUS: FRANK JENSEN
     UNIVERSITY OF IOWA: VISVALDAS KAIRYS, HUI LI
     NATIONAL INST. OF STANDARDS AND TECHNOLOGY: WALT STEVENS, DAVID GARMER
     UNIVERSITY OF PISA: BENEDETTA MENNUCCI, JACOPO TOMASI
     UNIVERSITY OF MEMPHIS: HENRY KURTZ, PRAKASHAN KORAMBATH
     UNIVERSITY OF ALBERTA: TOBY ZENG, MARIUSZ KLOBUKOWSKI
     UNIVERSITY OF NEW ENGLAND: MARK SPACKMAN
     MIE UNIVERSITY: HIROAKI UMEDA
     NAT. INST. OF ADVANCED INDUSTRIAL SCIENCE AND TECHNOLOGY: KAZUO KITAURA
     MICHIGAN STATE UNIVERSITY:
          KAROL KOWALSKI, MARTA WLOCH, JEFFREY GOUR, JESSE LUTZ,
          WEI LI, JUN SHEN, J. EMILIANO DEUSTUA, PIOTR PIECUCH
     UNIVERSITY OF MINNESOTA:
          YINAN SHU
     UNIVERSITY OF SILESIA: MONIKA MUSIAL, STANISLAW KUCHARSKI
     FACULTES UNIVERSITAIRES NOTRE-DAME DE LA PAIX:
          OLIVIER QUINET, BENOIT CHAMPAGNE
     UNIVERSITY OF CALIFORNIA - SANTA BARBARA: BERNARD KIRTMAN
     INSTITUTE FOR MOLECULAR SCIENCE:
          KAZUYA ISHIMURA, MICHIO KATOUDA, AND SHIGERU NAGASE
     UNIVERSITY OF NOTRE DAME: ANNA POMOGAEVA, DAN CHIPMAN
     KYUSHU UNIVERSITY:
          HARUYUKI NAKANO,
          FENG LONG GU, JACEK KORCHOWIEC, MARCIN MAKOWSKI, AND YURIKO AOKI,
          HIROTOSHI MORI AND EISAKU MIYOSHI
     PENNSYLVANIA STATE UNIVERSITY:
          TZVETELIN IORDANOV, CHET SWALINA, JONATHAN SKONE,
          SHARON HAMMES-SCHIFFER
     WASEDA UNIVERSITY:
          MASATO KOBAYASHI, TOMOKO AKAMA, TSUGUKI TOUMA,
          TAKESHI YOSHIKAWA, YASUHIRO IKABATA, JUNJI SEINO,
          YUYA NAKAJIMA, HIROMI NAKAI
     NANJING UNIVERSITY: SHUHUA LI
     UNIVERSITY OF NEBRASKA:
          PEIFENG SU, DEJUN SI, NANDUN THELLAMUREGE, YALI WANG, HUI LI
     UNIVERSITY OF ZURICH: ROBERTO PEVERATI, KIM BALDRIDGE
     N. COPERNICUS UNIVERSITY AND JACKSON STATE UNIVERSITY:
          MARIA BARYSZ
     UNIVERSITY OF COPENHAGEN: Jimmy Kromann, CASPER STEINMANN
     TOKYO INSTITUTE OF TECHNOLOGY: HIROYA NAKATA
     NAGOYA UNIVERSITY: YOSHIO NISHIMOTO, STEPHAN IRLE
     MOSCOW STATE UNIVERSITY: VLADIMIR MIRONOV


 PARALLEL VERSION RUNNING ON       16 PROCESSORS IN        1 NODES.

 EXECUTION OF GAMESS BEGUN Sun Nov 17 21:30:58 2019

            ECHO OF THE FIRST FEW INPUT CARDS -
 INPUT CARD>!*** FMO 5.3 (Gamess) INPUT generated by Facio 22.1.1.32 ***                    
 INPUT CARD> $CONTRL RUNTYP=ENERGY NPRINT=-5 ISPHER=1 MAXIT=200 $END                        
 INPUT CARD> $SYSTEM MWORDS=63 MEMDDI=63 $END                                               
 INPUT CARD> $GDDI NGROUP=1 $END                                                            
 INPUT CARD> $SCF DIRSCF=.TRUE. NPUNCH=0 $END                                               
 INPUT CARD>!*** NumCPU : 2  MemPerNode : 512MB                                             
 INPUT CARD> $PCM SOLVNT=WATER IEF=-10 ICOMP=2 ICAV=1 IDISP=1 IFMO=-1 $END                  
 INPUT CARD> $PCMCAV RADII=SUAHF $END                                                       
 INPUT CARD> $TESCAV NTSALL=60 $END                                                         
 INPUT CARD> $FMOPRP                                                                        
 INPUT CARD>    NAODIR=200                                                                  
 INPUT CARD>    NGRFMO(1)=1, 1, 0, 0, 0,   0, 0, 0, 0, 0                                    
 INPUT CARD>    IPIEDA=1                                                                    
 INPUT CARD>    NPRINT=9                                                                    
 INPUT CARD> $END                                                                           
 INPUT CARD> $FMO                                                                           
 INPUT CARD>      SCFTYP(1)=RHF                                                             
 INPUT CARD>      MODGRD=10                                                                 
 INPUT CARD>      MODMUL=0                                                                  
 INPUT CARD>      MAXCAO=5                                                                  
 INPUT CARD>      MAXBND=12                                                                 
 INPUT CARD>      NLAYER=1                                                                  
 INPUT CARD>      MPLEVL(1)=2                                                               
 INPUT CARD>      NFRAG=10                                                                  
 INPUT CARD>      ICHARG(1)=-1, -1, -1, -1, -1, -1, -1, -1, -1, 0                           
 INPUT CARD>      FRGNAM(1)=F1, F2, F3, F4, F5, F6, F7, F8, F9, F10                         
 INPUT CARD>      indat(1)=0                                                                
 INPUT CARD>               1   -33   0                                                      
 INPUT CARD>               34   -67   0                                                     
 INPUT CARD>               68   -97   0                                                     
 INPUT CARD>               98   -127   0                                                    
 INPUT CARD>               128   -160   0                                                   
 INPUT CARD>               161   -193   0                                                   
 INPUT CARD>               194   -227   0                                                   
 INPUT CARD>               228   -257   0                                                   
 INPUT CARD>               258   -288   0                                                   
 INPUT CARD>               289   -319   0                                                   
 INPUT CARD> $END                                                                           
 INPUT CARD>                                                                                
 INPUT CARD> $FMOBND                                                                        
 INPUT CARD>   -34   33       6-31G*    MINI                                                
 INPUT CARD>   -68   67       6-31G*    MINI                                                
 INPUT CARD>   -98   97       6-31G*    MINI                                                
 INPUT CARD>   -128   127       6-31G*    MINI                                              
 INPUT CARD>   -161   160       6-31G*    MINI                                              
 INPUT CARD>   -194   193       6-31G*    MINI                                              
 INPUT CARD>   -228   227       6-31G*    MINI                                              
 INPUT CARD>   -258   257       6-31G*    MINI                                              
 INPUT CARD>   -289   288       6-31G*    MINI                                              
 INPUT CARD> $END                                                                           


 -------------------------------------------------------------
 GROUP DDI, PROGRAMMED BY: RYAN M. OLSON AND DMITRI G. FEDOROV
        FEDOROV ET AL., J. COMPUT. CHEM., 25 (2004) 872.
 -------------------------------------------------------------

 -------------------------------------------------------
 GDDI: INITIALIZATION COMPLETED FOR GROUP     1 OF     1
 WITH    16 PROCESSES BALTYP=DLB   global rank=        0
 -------------------------------------------------------

   63000000 WORDS OF MEMORY AVAILABLE


     RUN TITLE
     ---------
  FMO calculation                                                                

 THE POINT GROUP OF THE MOLECULE IS C1      
 THE ORDER OF THE PRINCIPAL AXIS IS     0

 ATOM   ATOMIC CHARGE
 H.1-1       1.0
 O.1-1       8.0
 C.1-1       6.0
 N.1-1       7.0
 P.1-1      15.0

     ATOMIC BASIS SET LIBRARY
     ----------------
 THE CONTRACTED PRIMITIVE FUNCTIONS HAVE BEEN UNNORMALIZED
 THE CONTRACTED BASIS FUNCTIONS ARE NOW NORMALIZED TO UNITY

  SHELL TYPE  PRIMITIVE        EXPONENT          CONTRACTION COEFFICIENT(S)

 H.1-1     

      1   S       1            18.7311370    0.033494604338
      1   S       2             2.8253944    0.234726953484
      1   S       3             0.6401217    0.813757326146

      2   S       4             0.1612778    1.000000000000

 O.1-1     

      3   S       5          5484.6716600    0.001831074430
      3   S       6           825.2349460    0.013950172200
      3   S       7           188.0469580    0.068445078098
      3   S       8            52.9645000    0.232714335992
      3   S       9            16.8975704    0.470192897984
      3   S      10             5.7996353    0.358520852987

      4   L      11            15.5396162   -0.110777549525    0.070874268231
      4   L      12             3.5999336   -0.148026262701    0.339752839147
      4   L      13             1.0137618    1.130767015354    0.727158577316

      5   L      14             0.2700058    1.000000000000    1.000000000000

      6   D      15             0.8000000    1.000000000000

 C.1-1     

      7   S      16          3047.5248800    0.001834737132
      7   S      17           457.3695180    0.014037322813
      7   S      18           103.9486850    0.068842622264
      7   S      19            29.2101553    0.232184443216
      7   S      20             9.2866630    0.467941348435
      7   S      21             3.1639270    0.362311985337

      8   L      22             7.8682723   -0.119332419775    0.068999066591
      8   L      23             1.8812885   -0.160854151696    0.316423960957
      8   L      24             0.5442493    1.143456437840    0.744308290898

      9   L      25             0.1687145    1.000000000000    1.000000000000

     10   D      26             0.8000000    1.000000000000

 N.1-1     

     11   S      27          4173.5114600    0.001834772160
     11   S      28           627.4579110    0.013994627002
     11   S      29           142.9020930    0.068586551812
     11   S      30            40.2343293    0.232240873040
     11   S      31            12.8202129    0.469069948082
     11   S      32             4.3904370    0.360455199063

     12   L      33            11.6263619   -0.114961181702    0.067579743878
     12   L      34             2.7162798   -0.169117478561    0.323907295893
     12   L      35             0.7722184    1.145851947027    0.740895139755

     13   L      36             0.2120315    1.000000000000    1.000000000000

     14   D      37             0.8000000    1.000000000000

 P.1-1     

     15   S      38         19413.3000000    0.001851598923
     15   S      39          2909.4200000    0.014206191735
     15   S      40           661.3640000    0.069999459277
     15   S      41           185.7590000    0.240078860331
     15   S      42            59.1943000    0.484761717984
     15   S      43            20.0310000    0.335199804993

     16   L      44           339.4780000   -0.002782170105    0.004564616191
     16   L      45            81.0101000   -0.036049901354    0.033693571881
     16   L      46            25.8780000   -0.116631004382    0.139754883368
     16   L      47             9.4522100    0.096832803638    0.339361716786
     16   L      48             3.6656600    0.614418023082    0.450920623685
     16   L      49             1.4674600    0.403798015170    0.238585800889

     17   L      50             2.1562300   -0.252924113863   -0.017765312733
     17   L      51             0.7489970    0.032851844678    0.274058196433
     17   L      52             0.2831450    1.081254761783    0.785421562957

     18   L      53             0.0998317    1.000000000000    1.000000000000

     19   D      54             0.5500000    1.000000000000

 TOTAL NUMBER OF BASIS SET SHELLS             =   19
 NUMBER OF CARTESIAN GAUSSIAN BASIS FUNCTIONS =   66

     $CONTRL OPTIONS
     ---------------
 SCFTYP=RHF          RUNTYP=ENERGY       EXETYP=RUN     
 MPLEVL=       0     CITYP =NONE         CCTYP =NONE         VBTYP =NONE    
 DFTTYP=NONE         TDDFT =NONE    
 MULT  =       1     ICHARG=       0     NZVAR =       0     COORD =UNIQUE  
 PP    =NONE         RELWFN=NONE         LOCAL =NONE         NUMGRD=       F
 ISPHER=       1     NOSYM =       0     MAXIT =     200     UNITS =ANGS    
 PLTORB=       F     MOLPLT=       F     AIMPAC=       F     FRIEND=        
 NPRINT=      -5     IREST =       0     GEOM  =INPUT   
 NORMF =       0     NORMP =       0     ITOL  =      24     ICUT  =      12
 INTTYP=BEST         GRDTYP=BEST         QMTTOL= 1.0E-06

     $SYSTEM OPTIONS
     ---------------
  REPLICATED MEMORY=    63000000 WORDS (ON EVERY NODE).
 DISTRIBUTED MEMDDI=          63 MILLION WORDS IN AGGREGATE,
 MEMDDI DISTRIBUTED OVER  16 PROCESSORS IS     3937500 WORDS/PROCESSOR.
 TOTAL MEMORY REQUESTED ON EACH PROCESSOR=    66937500 WORDS.
 TIMLIM=      525600.00 MINUTES, OR     365.0 DAYS.
 PARALL= T  BALTYP=  DLB     KDIAG=    0  COREFL= F
 MXSEQ2=     300 MXSEQ3=     150  mem10=         0

 ** LOOKING UP INTERNALLY STORED DATA FOR SOLVENT=WATER    **
 OPTICAL AND PHYSICAL CONSTANTS:
 EPS= 78.390; EPSINF=  1.776; RSOLV=  1.385 A; VMOL=  18.070 ML/MOL;
 TCE= .25700E-03 1/K; STEN= 71.810 DYN/CM;  DSTEN=  0.6500; CMF=  1.2770


     -----------------------------------
     INPUT FOR PCM SOLVATION CALCULATION 
     -----------------------------------
     IEF   =     -10
     ICOMP =       2     IFIELD=       0     ICAV  =       1
     IDISP =       1     IREP  =       0     IDP   =       0

     SOLVNT=WATER        EPS   = 78.3900     EPSINF=  1.7760
     VMOL  = 18.0700     TCE   =  0.00025700 STEN  = 71.8100
     DSTEN =  0.6500     CMF   =  1.2770     RSOLV =  1.3850

     NESFP =       0
     OMEGA = 40.0000     RET   =100.0000     FRO   =  0.7000

     TABS  =298.0000     IPRINT=       0

     --------------------------------
     INPUT FOR ITERATIVE C-PCM METHOD 
     --------------------------------
     IPCMIT  =         1     MXDIIS  =        50
     MXITR1  =       200     MXITR2  =       200
     THRES   = 0.100E-09     IMUL    =         3
     RCUT(1) =   20.0000     RCUT(2) =   50.0000

     IDIRCT  =         1
     IMGABI  =         0     RABI    =    4.0000
     IMGASC  =         0     RASC    =   20.0000
     THRSLS  = 0.500E-03     DENSLS  =    0.0100
     IEFPOL  =         1     REFPOL  =    0.0000

     INPUT FOR ISOTROPIC DIELECTRICS
     -------------------------------
     EPS=    78.39

          ----------------
          PROPERTIES INPUT
          ----------------

     MOMENTS            FIELD           POTENTIAL          DENSITY
 IEMOM =       1   IEFLD =       0   IEPOT =       0   IEDEN =       0
 WHERE =COMASS     WHERE =NUCLEI     WHERE =NUCLEI     WHERE =NUCLEI  
 OUTPUT=BOTH       OUTPUT=BOTH       OUTPUT=NONE       OUTPUT=BOTH    
 IEMINT=       0   IEFINT=       0                     IEDINT=       0
                                                       MORB  =       0
          EXTRAPOLATION IN EFFECT
          SOSCF IN EFFECT
 ORBITAL PRINTING OPTION: NPREO=     1 32767     2     1

     -------------------------------
     INTEGRAL TRANSFORMATION OPTIONS
     -------------------------------
     NWORD  =            0
     CUTOFF = 1.0E-10     MPTRAN =       0
     DIRTRF =       T     AOINTS =DUP     

          ----------------------
          INTEGRAL INPUT OPTIONS
          ----------------------
 NOPK  =       1 NORDER=       0 SCHWRZ=       T

 ..... DONE SETTING UP THE RUN .....
 CPU     0: STEP CPU TIME=     0.04 TOTAL CPU TIME=          0.0 (      0.0 MIN)
 TOTAL WALL CLOCK TIME=          0.1 SECONDS, CPU UTILIZATION IS    66.67%
 CPU     0: STEP CPU TIME=     0.00 TOTAL CPU TIME=          0.0 (      0.0 MIN)
 TOTAL WALL CLOCK TIME=          0.1 SECONDS, CPU UTILIZATION IS    66.67%

                    ----------------------
                    AO INTEGRAL TECHNOLOGY
                    ----------------------
     S,P,L SHELL ROTATED AXIS INTEGRALS, REPROGRAMMED BY
        KAZUYA ISHIMURA (IMS) AND JOSE SIERRA (SYNSTAR).
     S,P,D,L SHELL ROTATED AXIS INTEGRALS PROGRAMMED BY
        KAZUYA ISHIMURA (INSTITUTE FOR MOLECULAR SCIENCE).
     S,P,D,F,G SHELL TO TOTAL QUARTET ANGULAR MOMENTUM SUM 5,
        ERIC PROGRAM BY GRAHAM FLETCHER (ELORET AND NASA ADVANCED
        SUPERCOMPUTING DIVISION, AMES RESEARCH CENTER).
     S,P,D,F,G,L SHELL GENERAL RYS QUADRATURE PROGRAMMED BY
        MICHEL DUPUIS (PACIFIC NORTHWEST NATIONAL LABORATORY).
 Setting modorb=1 flag...
 Setting modorb=1 flag...

          -----------------------
          MP2 CONTROL INFORMATION
          -----------------------
          NACORE =        8  NBCORE =        8
          LMOMP2 =        F  AOINTS = DUP     
          METHOD =        2  NWORD  =               0
          MP2PRP =        F  OSPT   = NONE    
          CUTOFF = 1.00E-12  CPHFBS = BASISAO 
          CODE   = IMS     

          NUMBER OF CORE -A-  ORBITALS =     8
          NUMBER OF CORE -B-  ORBITALS =     8
          NUMBER OF OCC. -A-  ORBITALS =    18
          NUMBER OF OCC. -B-  ORBITALS =    18
          NUMBER OF MOLECULAR ORBITALS =    66
          NUMBER OF   BASIS  FUNCTIONS =    66

 CPU     0: STEP CPU TIME=     0.02 TOTAL CPU TIME=          0.1 (      0.0 MIN)
 TOTAL WALL CLOCK TIME=          0.1 SECONDS, CPU UTILIZATION IS    60.00%
 CPU     0: STEP CPU TIME=     0.00 TOTAL CPU TIME=          0.1 (      0.0 MIN)
 TOTAL WALL CLOCK TIME=          0.1 SECONDS, CPU UTILIZATION IS    60.00%

     INPUT FOR CAVITY DEFINITION 
     ---------------------------
   ATOM               COORDINATES                RADIUS       EPS
      1     13.8140     21.1650      6.4670      0.0100     78.3900
      2     13.7280     20.9340      7.4110      1.5900     78.3900
      3     12.3230     20.8990      7.7030      1.7700     78.3900
      4     11.8190     20.1710      7.0280      0.0100     78.3900
      5     11.8920     21.9070      7.5120      0.0100     78.3900
      6     12.0100     20.5100      9.1540      1.7700     78.3900
      7     10.9150     20.5080      9.3280      0.0100     78.3900
      8     12.4890     19.1620      9.4340      1.5900     78.3900
      9     13.0210     19.1250     10.7530      1.7700     78.3900
     10     12.4740     18.3070     11.2780      0.0100     78.3900
     11     14.4790     18.8200     10.7770      1.6800     78.3900
     12     15.2420     18.9780      9.6410      1.7700     78.3900
     13     14.7180     19.3320      8.7520      0.0100     78.3900
     14     16.5440     18.6720      9.6230      1.7700     78.3900
     15     17.1520     18.7670      8.7250      0.0100     78.3900
     16     15.0830     18.3840     11.9530      1.7700     78.3900
     17     14.3940     18.2670     12.9780      1.5900     78.3900
     18     16.3960     18.0620     11.9530      1.6800     78.3900
     19     17.1250     18.1940     10.8310      1.7700     78.3900
     20     18.4080     17.8360     10.8530      1.6800     78.3900
     21     18.8300     17.5670     11.7210      0.0100     78.3900
     22     18.9820     17.8790     10.0330      0.0100     78.3900
     23     12.6860     20.4420     11.4210      1.7700     78.3900
     24     13.4450     20.7450     12.1680      0.0100     78.3900
     25     11.4190     20.3650     12.0450      1.5900     78.3900
     26     11.2440     21.2550     12.3700      0.0100     78.3900
     27     12.6650     21.3930     10.2290      1.7700     78.3900
     28     13.7050     21.5930      9.8790      0.0100     78.3900
     29     11.8790     22.5970     10.4210      1.5900     78.3900
     30     12.6160     23.9050     10.9000      2.1000     78.3900
     31     13.8780     24.0610     10.1490      1.5900     78.3900
     32     11.6570     25.0320     10.8440      1.5900     78.3900
     33     12.9640     23.5860     12.4010      1.5900     78.3900
     34     11.8940     23.5060     13.3730      1.7700     78.3900
     35     11.1020     22.7920     13.0520      0.0100     78.3900
     36     11.4080     24.5000     13.4950      0.0100     78.3900
     37     12.4150     23.0610     14.7450      1.7700     78.3900
     38     11.5850     22.9760     15.4790      0.0100     78.3900
     39     13.0320     21.7460     14.6250      1.5900     78.3900
     40     14.1760     21.6840     15.4660      1.7700     78.3900
     41     14.0200     20.8140     16.1450      0.0100     78.3900
     42     15.4090     21.4730     14.6960      1.6800     78.3900
     43     16.5990     21.0060     15.1850      1.7700     78.3900
     44     18.5510     19.9090     17.8350      1.6800     78.3900
     45     17.9310     19.9850     18.6150      0.0100     78.3900
     46     19.4920     19.5960     17.9910      0.0100     78.3900
     47     16.8560     20.6830     16.4650      1.6800     78.3900
     48     18.1040     20.2500     16.6380      1.7700     78.3900
     49     19.0020     20.1300     15.6110      1.6800     78.3900
     50     19.9260     19.7860     15.8240      0.0100     78.3900
     51     18.7610     20.4480     14.2800      1.7700     78.3900
     52     19.6380     20.3050     13.4240      1.5900     78.3900
     53     17.4440     20.9390     14.0940      1.7700     78.3900
     54     16.8090     21.3890     12.9440      1.6800     78.3900
     55     15.6030     21.7010     13.3520      1.7700     78.3900
     56     14.8040     22.0980     12.7270      0.0100     78.3900
     57     14.2140     22.9570     16.2800      1.7700     78.3900
     58     15.2470     23.2860     16.5200      0.0100     78.3900
     59     13.4790     22.7770     17.4750      1.5900     78.3900
     60     13.3410     23.6540     17.8580      0.0100     78.3900
     61     13.5190     23.9400     15.3490      1.7700     78.3900
     62     14.1910     24.2150     14.5030      0.0100     78.3900
     63     12.9400     25.0820     16.0220      1.5900     78.3900
     64     13.7670     26.4210     16.0560      2.1000     78.3900
     65     14.1910     26.7390     14.6760      1.5900     78.3900
     66     12.9790     27.4540     16.7600      1.5900     78.3900
     67     15.0340     26.0750     16.9140      1.5900     78.3900
     68     14.9580     25.8480     18.3380      1.7700     78.3900
     69     14.2390     25.0340     18.5890      0.0100     78.3900
     70     14.6050     26.7720     18.8580      0.0100     78.3900
     71     16.3360     25.4700     18.9050      1.7700     78.3900
     72     16.2830     25.3440     20.0080      0.0100     78.3900
     73     16.7930     24.2010     18.3560      1.5900     78.3900
     74     18.2010     24.2480     18.1680      1.7700     78.3900
     75     18.6120     23.4050     18.7700      0.0100     78.3900
     76     18.5680     24.0920     16.7300      1.6800     78.3900
     77     17.6990     24.4740     15.7340      1.7700     78.3900
     78     16.7420     24.8580     16.0780      0.0100     78.3900
     79     19.7830     23.5290     16.4210      1.7700     78.3900
     80     20.5630     23.1380     17.2800      1.5900     78.3900
     81     20.0560     23.4310     15.0780      1.6800     78.3900
     82     20.9430     23.0160     14.8230      0.0100     78.3900
     83     19.2370     23.7920     14.0290      1.7700     78.3900
     84     19.6090     23.6280     12.8690      1.5900     78.3900
     85     17.9720     24.3300     14.4290      1.7700     78.3900
     86     17.2520     24.5940     13.6600      0.0100     78.3900
     87     18.6950     25.5690     18.7510      1.7700     78.3900
     88     19.5570     25.9870     18.1850      0.0100     78.3900
     89     19.0510     25.4130     20.1150      1.5900     78.3900
     90     19.2580     26.3000     20.4530      0.0100     78.3900
     91     17.4630     26.4550     18.5870      1.7700     78.3900
     92     17.3460     26.7630     17.5240      0.0100     78.3900
     93     17.3720     27.5700     19.4820      1.5900     78.3900
     94     18.2720     28.8400     19.3340      2.1000     78.3900
     95     17.6230     29.8850     20.1600      1.5900     78.3900
     96     19.6570     28.4580     19.6830      1.5900     78.3900
     97     18.1440     29.2160     17.8020      1.5900     78.3900
     98     19.2860     29.4000     16.9300      1.7700     78.3900
     99     19.0420     28.9650     15.9350      0.0100     78.3900
    100     20.1940     28.8640     17.2970      0.0100     78.3900
    101     19.6400     30.8860     16.7090      1.7700     78.3900
    102     18.7830     31.4290     16.2510      0.0100     78.3900
    103     19.9000     31.5270     17.9980      1.5900     78.3900
    104     21.0020     32.4150     17.8880      1.7700     78.3900
    105     20.6370     33.3950     18.2820      0.0100     78.3900
    106     22.1740     31.9660     18.7010      1.6800     78.3900
    107     22.0990     30.8440     19.5050      1.7700     78.3900
    108     21.1690     30.2710     19.4490      0.0100     78.3900
    109     23.2900     32.7780     18.7400      1.7700     78.3900
    110     23.3650     33.8380     18.1290      1.5900     78.3900
    111     24.3130     32.3250     19.5320      1.6800     78.3900
    112     25.1300     32.9210     19.5680      0.0100     78.3900
    113     24.2950     31.2400     20.3790      1.7700     78.3900
    114     25.2650     31.0050     21.0970      1.5900     78.3900
    115     23.0910     30.4700     20.3270      1.7700     78.3900
    116     22.9980     29.6040     20.9790      0.0100     78.3900
    117     21.3150     32.5420     16.4080      1.7700     78.3900
    118     22.3900     32.7260     16.1960      0.0100     78.3900
    119     20.5290     33.5760     15.8390      1.5900     78.3900
    120     20.5790     33.4770     14.8760      0.0100     78.3900
    121     20.9090     31.1760     15.8840      1.7700     78.3900
    122     21.6500     30.4080     16.1860      0.0100     78.3900
    123     20.6440     31.1930     14.4720      1.5900     78.3900
    124     21.3070     30.2520     13.4110      2.1000     78.3900
    125     20.8710     28.8740     13.6890      1.5900     78.3900
    126     20.9800     30.7780     12.0690      1.5900     78.3900
    127     22.8650     30.3550     13.6200      1.5900     78.3900
    128     23.6090     31.5080     13.1590      1.7700     78.3900
    129     23.0930     32.4700     13.4160      0.0100     78.3900
    130     23.7230     31.4700     12.0530      0.0100     78.3900
    131     25.0170     31.5430     13.7750      1.7700     78.3900
    132     25.5960     32.4180     13.4010      0.0100     78.3900
    133     24.8910     31.6990     15.2190      1.5900     78.3900
    134     25.8760     30.9120     15.8690      1.7700     78.3900
    135     26.4430     31.6030     16.5380      0.0100     78.3900
    136     25.2580     29.8610     16.6760      1.6800     78.3900
    137     24.8340     28.3760     18.2360      1.7700     78.3900
    138     23.7030     28.4310     17.4400      1.6800     78.3900
    139     24.0070     29.3240     16.5340      1.7700     78.3900
    140     23.3580     29.6310     15.7180      0.0100     78.3900
    141     26.3530     27.8420     19.9650      1.6800     78.3900
    142     27.2050     28.6720     19.3610      1.7700     78.3900
    143     28.1770     28.7710     19.8530      0.0100     78.3900
    144     27.0310     29.4330     18.2740      1.6800     78.3900
    145     25.8080     29.2370     17.7600      1.7700     78.3900
    146     25.1230     27.6710     19.4210      1.7700     78.3900
    147     24.2300     26.8800     20.0400      1.6800     78.3900
    148     23.4060     26.5830     19.5630      0.0100     78.3900
    149     24.5400     26.3150     20.8070      0.0100     78.3900
    150     26.7990     30.3560     14.8110      1.7700     78.3900
    151     27.2020     29.3530     15.0730      0.0100     78.3900
    152     27.8660     31.2610     14.5900      1.5900     78.3900
    153     28.3060     30.9980     13.7680      0.0100     78.3900
    154     25.8720     30.2700     13.6050      1.7700     78.3900
    155     25.1790     29.4020     13.7140      0.0100     78.3900
    156     26.5600     30.2870     12.3360      1.5900     78.3900
    157     26.8510     28.9350     11.5830      2.1000     78.3900
    158     25.5520     28.2920     11.2860      1.5900     78.3900
    159     27.7370     29.2200     10.4340      1.5900     78.3900
    160     27.6230     28.0510     12.6330      1.5900     78.3900
    161     29.0030     28.2760     12.9850      1.7700     78.3900
    162     29.1360     29.2690     13.4650      0.0100     78.3900
    163     29.6410     28.2600     12.0800      0.0100     78.3900
    164     29.5230     27.1980     13.9510      1.7700     78.3900
    165     30.6010     27.3510     14.1750      0.0100     78.3900
    166     28.8040     27.2950     15.2170      1.5900     78.3900
    167     28.5560     25.9940     15.7220      1.7700     78.3900
    168     28.9750     25.9640     16.7550      0.0100     78.3900
    169     27.1170     25.7430     15.7620      1.6800     78.3900
    170     25.0930     25.2180     16.4160      1.7700     78.3900
    171     24.9640     25.7260     15.1360      1.6800     78.3900
    172     26.1880     26.0310     14.7920      1.7700     78.3900
    173     26.4690     26.4700     13.8350      0.0100     78.3900
    174     24.6010     24.2680     18.5210      1.6800     78.3900
    175     25.9170     24.3030     18.7540      1.7700     78.3900
    176     26.2280     23.9220     19.7320      0.0100     78.3900
    177     26.9040     24.7670     17.9780      1.6800     78.3900
    178     26.4150     25.2100     16.8090      1.7700     78.3900
    179     24.1460     24.7410     17.3380      1.7700     78.3900
    180     22.8330     24.7390     17.0790      1.6800     78.3900
    181     22.4750     25.1420     16.2350      0.0100     78.3900
    182     22.1970     24.2700     17.6930      0.0100     78.3900
    183     29.2950     25.0050     14.8430      1.7700     78.3900
    184     28.7810     24.0220     14.7640      0.0100     78.3900
    185     30.6050     24.8220     15.3370      1.5900     78.3900
    186     31.1020     24.3520     14.6550      0.0100     78.3900
    187     29.3120     25.7370     13.5090      1.7700     78.3900
    188     28.2970     25.7040     13.0510      0.0100     78.3900
    189     30.3660     25.3160     12.6060      1.5900     78.3900
    190     29.9850     24.4080     11.3730      2.1000     78.3900
    191     28.6340     24.7610     10.8980      1.5900     78.3900
    192     31.0840     24.4530     10.3840      1.5900     78.3900
    193     29.9450     22.9640     11.9820      1.5900     78.3900
    194     31.1710     22.3660     12.4230      1.7700     78.3900
    195     30.9510     21.9620     13.4300      0.0100     78.3900
    196     32.0010     23.1010     12.5640      0.0100     78.3900
    197     31.6390     21.2660     11.4490      1.7700     78.3900
    198     31.5560     21.5420     10.3750      0.0100     78.3900
    199     33.0430     20.9460     11.7660      1.5900     78.3900
    200     33.1110     19.6550     12.3980      1.7700     78.3900
    201     34.0890     19.1920     12.1380      0.0100     78.3900
    202     32.9780     19.7830     13.8850      1.6800     78.3900
    203     32.9700     18.7850     14.8290      1.7700     78.3900
    204     33.4170     15.4720     15.7220      1.6800     78.3900
    205     33.4700     14.9360     16.5650      0.0100     78.3900
    206     33.6020     15.0310     14.8470      0.0100     78.3900
    207     33.1390     17.4720     14.5970      1.6800     78.3900
    208     33.1780     16.7680     15.7340      1.7700     78.3900
    209     32.9790     17.3170     16.9740      1.6800     78.3900
    210     33.0230     16.7160     17.7800      0.0100     78.3900
    211     32.7600     18.6600     17.2370      1.7700     78.3900
    212     32.5940     19.0830     18.3870      1.5900     78.3900
    213     32.7810     19.4260     16.0460      1.7700     78.3900
    214     32.7050     20.7950     15.8800      1.6800     78.3900
    215     32.8600     20.9650     14.5970      1.7700     78.3900
    216     32.9020     21.9400     14.1110      0.0100     78.3900
    217     31.9730     18.8580     11.7680      1.7700     78.3900
    218     31.6590     17.9920     12.3910      0.0100     78.3900
    219     32.3020     18.4280     10.4570      1.5900     78.3900
    220     31.5600     17.9120     10.0930      0.0100     78.3900
    221     30.9290     19.9640     11.7900      1.7700     78.3900
    222     30.8040     20.1580     12.8310      0.0100     78.3900
    223     29.6230     19.7940     11.2270      1.5900     78.3900
    224     28.5520     18.9420     12.0430      2.1000     78.3900
    225     27.2490     19.1870     11.3870      1.5900     78.3900
    226     29.0190     17.5380     12.0110      1.5900     78.3900
    227     28.4390     19.4950     13.5310      1.5900     78.3900
    228     29.4360     19.3560     14.5700      1.7700     78.3900
    229     30.2100     20.1450     14.4880      0.0100     78.3900
    230     29.9160     18.3500     14.5500      0.0100     78.3900
    231     28.9680     19.7110     15.9750      1.7700     78.3900
    232     29.8390     19.7340     16.6690      0.0100     78.3900
    233     28.3910     21.0470     15.9920      1.5900     78.3900
    234     27.2910     21.0640     16.8770      1.7700     78.3900
    235     27.4970     21.8880     17.6000      0.0100     78.3900
    236     26.0040     21.3320     16.1680      1.6800     78.3900
    237     25.9660     21.5020     14.7970      1.7700     78.3900
    238     26.9100     21.3370     14.2710      0.0100     78.3900
    239     24.8560     21.4490     16.9220      1.7700     78.3900
    240     24.8370     21.3010     18.1370      1.5900     78.3900
    241     23.7240     21.7440     16.2110      1.6800     78.3900
    242     22.9010     21.8850     16.7660      0.0100     78.3900
    243     23.6210     21.9910     14.8610      1.7700     78.3900
    244     22.5360     22.3070     14.3780      1.5900     78.3900
    245     24.8440     21.8230     14.1360      1.7700     78.3900
    246     24.8360     21.9610     13.0570      0.0100     78.3900
    247     27.3070     19.7300     17.6070      1.7700     78.3900
    248     26.2950     19.3840     17.8800      0.0100     78.3900
    249     28.1070     19.8190     18.7700      1.5900     78.3900
    250     28.2730     18.9120     19.0570      0.0100     78.3900
    251     27.9210     18.8050     16.5720      1.7700     78.3900
    252     27.1990     18.5970     15.7480      0.0100     78.3900
    253     28.5560     17.6300     17.1260      1.5900     78.3900
    254     27.9280     16.2190     16.8570      2.1000     78.3900
    255     27.4630     16.1070     15.4570      1.5900     78.3900
    256     28.8340     15.1520     17.3440      1.5900     78.3900
    257     26.6360     16.1840     17.7610      1.5900     78.3900
    258     26.7240     16.2350     19.2030      1.7700     78.3900
    259     27.5060     16.9530     19.5450      0.0100     78.3900
    260     26.9910     15.2270     19.5950      0.0100     78.3900
    261     25.3940     16.6580     19.8510      1.7700     78.3900
    262     25.4870     16.6820     20.9580      0.0100     78.3900
    263     25.0470     18.0030     19.4200      1.5900     78.3900
    264     23.6390     18.0970     19.2340      1.7700     78.3900
    265     23.3050     18.9500     19.8710      0.0100     78.3900
    266     23.2480     18.3670     17.8190      1.6800     78.3900
    267     24.1500     18.1470     16.8070      1.7700     78.3900
    268     25.1260     17.7730     17.1100      0.0100     78.3900
    269     23.8460     18.3840     15.5280      1.7700     78.3900
    270     24.5600     18.2280     14.7220      0.0100     78.3900
    271     21.9780     18.8520     17.5110      1.7700     78.3900
    272     21.1730     19.0710     18.4310      1.5900     78.3900
    273     21.6530     19.1100     16.2210      1.6800     78.3900
    274     22.5420     18.8740     15.2390      1.7700     78.3900
    275     22.2130     19.1470     13.9770      1.6800     78.3900
    276     21.3020     19.5140     13.7710      0.0100     78.3900
    277     22.8480     19.0040     13.2210      0.0100     78.3900
    278     23.0380     16.8130     19.7640      1.7700     78.3900
    279     22.1060     16.5290     19.2360      0.0100     78.3900
    280     22.7830     16.9400     21.1520      1.5900     78.3900
    281     22.4740     16.0770     21.4580      0.0100     78.3900
    282     24.1610     15.8210     19.4880      1.7700     78.3900
    283     24.2390     15.6210     18.3940      0.0100     78.3900
    284     24.1220     14.6190     20.2920      1.5900     78.3900
    285     23.4880     13.3150     19.6770      2.1000     78.3900
    286     23.9630     13.1590     18.2880      1.5900     78.3900
    287     23.7190     12.1750     20.5950      1.5900     78.3900
    288     21.9500     13.6470     19.6550      1.5900     78.3900
    289     21.2400     13.7640     20.9120      1.7700     78.3900
    290     21.7130     14.5120     21.5870      0.0100     78.3900
    291     21.2280     12.7850     21.4510      0.0100     78.3900
    292     19.7880     14.1920     20.6800      1.7700     78.3900
    293     19.2330     14.2430     21.6450      0.0100     78.3900
    294     19.7490     15.5150     20.0770      1.5900     78.3900
    295     18.6890     15.5700     19.1340      1.7700     78.3900
    296     18.0300     16.4150     19.4350      0.0100     78.3900
    297     19.1960     15.8150     17.7770      1.6800     78.3900
    298     18.4700     16.2880     16.7190      1.7700     78.3900
    299     15.4630     17.3260     15.3590      1.6800     78.3900
    300     14.8410     17.2680     16.1400      0.0100     78.3900
    301     15.1130     17.6640     14.4800      0.0100     78.3900
    302     17.1610     16.5990     16.7340      1.6800     78.3900
    303     16.7290     17.0120     15.5450      1.7700     78.3900
    304     17.5500     17.1580     14.4580      1.6800     78.3900
    305     17.1400     17.4770     13.5930      0.0100     78.3900
    306     18.9050     16.8570     14.4160      1.7700     78.3900
    307     19.5680     17.0190     13.3870      1.5900     78.3900
    308     19.3610     16.3610     15.6650      1.7700     78.3900
    309     20.6190     15.9130     16.0460      1.6800     78.3900
    310     20.4730     15.5970     17.3090      1.7700     78.3900
    311     21.2570     15.1960     17.9550      0.0100     78.3900
    312     17.9230     14.2650     19.2230      1.7700     78.3900
    313     17.5200     13.9390     18.2380      0.0100     78.3900
    314     16.8620     14.3880     20.1550      1.5900     78.3900
    315     16.4840     13.5060     20.3110      0.0100     78.3900
    316     19.0060     13.3070     19.7050      1.7700     78.3900
    317     19.6790     13.0290     18.8650      0.0100     78.3900
    318     18.5070     12.1380     20.3740      1.5900     78.3900
    319     18.0280     11.5720     19.7430      0.0100     78.3900

     ----------------------------
     INPUT FOR TESSERA DEFINITION
     ----------------------------
     NTSALL  =        60     MTHALL  =         4
     MTHAUT  =         0     AUTFRE  =    2.0000
     NTSFRZ  =        60     KEEPSM  =         0
     AREAKP  =   10.0000     BONDRY  =    1.0000
     AREATL  =    0.0100

     SPHERE     INITS       METHOD
          1        60       FIXPVA
          2        60       FIXPVA
          3        60       FIXPVA
          4        60       FIXPVA
          5        60       FIXPVA
          6        60       FIXPVA
          7        60       FIXPVA
          8        60       FIXPVA
          9        60       FIXPVA
         10        60       FIXPVA
         11        60       FIXPVA
         12        60       FIXPVA
         13        60       FIXPVA
         14        60       FIXPVA
         15        60       FIXPVA
         16        60       FIXPVA
         17        60       FIXPVA
         18        60       FIXPVA
         19        60       FIXPVA
         20        60       FIXPVA
         21        60       FIXPVA
         22        60       FIXPVA
         23        60       FIXPVA
         24        60       FIXPVA
         25        60       FIXPVA
         26        60       FIXPVA
         27        60       FIXPVA
         28        60       FIXPVA
         29        60       FIXPVA
         30        60       FIXPVA
         31        60       FIXPVA
         32        60       FIXPVA
         33        60       FIXPVA
         34        60       FIXPVA
         35        60       FIXPVA
         36        60       FIXPVA
         37        60       FIXPVA
         38        60       FIXPVA
         39        60       FIXPVA
         40        60       FIXPVA
         41        60       FIXPVA
         42        60       FIXPVA
         43        60       FIXPVA
         44        60       FIXPVA
         45        60       FIXPVA
         46        60       FIXPVA
         47        60       FIXPVA
         48        60       FIXPVA
         49        60       FIXPVA
         50        60       FIXPVA
         51        60       FIXPVA
         52        60       FIXPVA
         53        60       FIXPVA
         54        60       FIXPVA
         55        60       FIXPVA
         56        60       FIXPVA
         57        60       FIXPVA
         58        60       FIXPVA
         59        60       FIXPVA
         60        60       FIXPVA
         61        60       FIXPVA
         62        60       FIXPVA
         63        60       FIXPVA
         64        60       FIXPVA
         65        60       FIXPVA
         66        60       FIXPVA
         67        60       FIXPVA
         68        60       FIXPVA
         69        60       FIXPVA
         70        60       FIXPVA
         71        60       FIXPVA
         72        60       FIXPVA
         73        60       FIXPVA
         74        60       FIXPVA
         75        60       FIXPVA
         76        60       FIXPVA
         77        60       FIXPVA
         78        60       FIXPVA
         79        60       FIXPVA
         80        60       FIXPVA
         81        60       FIXPVA
         82        60       FIXPVA
         83        60       FIXPVA
         84        60       FIXPVA
         85        60       FIXPVA
         86        60       FIXPVA
         87        60       FIXPVA
         88        60       FIXPVA
         89        60       FIXPVA
         90        60       FIXPVA
         91        60       FIXPVA
         92        60       FIXPVA
         93        60       FIXPVA
         94        60       FIXPVA
         95        60       FIXPVA
         96        60       FIXPVA
         97        60       FIXPVA
         98        60       FIXPVA
         99        60       FIXPVA
        100        60       FIXPVA
        101        60       FIXPVA
        102        60       FIXPVA
        103        60       FIXPVA
        104        60       FIXPVA
        105        60       FIXPVA
        106        60       FIXPVA
        107        60       FIXPVA
        108        60       FIXPVA
        109        60       FIXPVA
        110        60       FIXPVA
        111        60       FIXPVA
        112        60       FIXPVA
        113        60       FIXPVA
        114        60       FIXPVA
        115        60       FIXPVA
        116        60       FIXPVA
        117        60       FIXPVA
        118        60       FIXPVA
        119        60       FIXPVA
        120        60       FIXPVA
        121        60       FIXPVA
        122        60       FIXPVA
        123        60       FIXPVA
        124        60       FIXPVA
        125        60       FIXPVA
        126        60       FIXPVA
        127        60       FIXPVA
        128        60       FIXPVA
        129        60       FIXPVA
        130        60       FIXPVA
        131        60       FIXPVA
        132        60       FIXPVA
        133        60       FIXPVA
        134        60       FIXPVA
        135        60       FIXPVA
        136        60       FIXPVA
        137        60       FIXPVA
        138        60       FIXPVA
        139        60       FIXPVA
        140        60       FIXPVA
        141        60       FIXPVA
        142        60       FIXPVA
        143        60       FIXPVA
        144        60       FIXPVA
        145        60       FIXPVA
        146        60       FIXPVA
        147        60       FIXPVA
        148        60       FIXPVA
        149        60       FIXPVA
        150        60       FIXPVA
        151        60       FIXPVA
        152        60       FIXPVA
        153        60       FIXPVA
        154        60       FIXPVA
        155        60       FIXPVA
        156        60       FIXPVA
        157        60       FIXPVA
        158        60       FIXPVA
        159        60       FIXPVA
        160        60       FIXPVA
        161        60       FIXPVA
        162        60       FIXPVA
        163        60       FIXPVA
        164        60       FIXPVA
        165        60       FIXPVA
        166        60       FIXPVA
        167        60       FIXPVA
        168        60       FIXPVA
        169        60       FIXPVA
        170        60       FIXPVA
        171        60       FIXPVA
        172        60       FIXPVA
        173        60       FIXPVA
        174        60       FIXPVA
        175        60       FIXPVA
        176        60       FIXPVA
        177        60       FIXPVA
        178        60       FIXPVA
        179        60       FIXPVA
        180        60       FIXPVA
        181        60       FIXPVA
        182        60       FIXPVA
        183        60       FIXPVA
        184        60       FIXPVA
        185        60       FIXPVA
        186        60       FIXPVA
        187        60       FIXPVA
        188        60       FIXPVA
        189        60       FIXPVA
        190        60       FIXPVA
        191        60       FIXPVA
        192        60       FIXPVA
        193        60       FIXPVA
        194        60       FIXPVA
        195        60       FIXPVA
        196        60       FIXPVA
        197        60       FIXPVA
        198        60       FIXPVA
        199        60       FIXPVA
        200        60       FIXPVA
        201        60       FIXPVA
        202        60       FIXPVA
        203        60       FIXPVA
        204        60       FIXPVA
        205        60       FIXPVA
        206        60       FIXPVA
        207        60       FIXPVA
        208        60       FIXPVA
        209        60       FIXPVA
        210        60       FIXPVA
        211        60       FIXPVA
        212        60       FIXPVA
        213        60       FIXPVA
        214        60       FIXPVA
        215        60       FIXPVA
        216        60       FIXPVA
        217        60       FIXPVA
        218        60       FIXPVA
        219        60       FIXPVA
        220        60       FIXPVA
        221        60       FIXPVA
        222        60       FIXPVA
        223        60       FIXPVA
        224        60       FIXPVA
        225        60       FIXPVA
        226        60       FIXPVA
        227        60       FIXPVA
        228        60       FIXPVA
        229        60       FIXPVA
        230        60       FIXPVA
        231        60       FIXPVA
        232        60       FIXPVA
        233        60       FIXPVA
        234        60       FIXPVA
        235        60       FIXPVA
        236        60       FIXPVA
        237        60       FIXPVA
        238        60       FIXPVA
        239        60       FIXPVA
        240        60       FIXPVA
        241        60       FIXPVA
        242        60       FIXPVA
        243        60       FIXPVA
        244        60       FIXPVA
        245        60       FIXPVA
        246        60       FIXPVA
        247        60       FIXPVA
        248        60       FIXPVA
        249        60       FIXPVA
        250        60       FIXPVA
        251        60       FIXPVA
        252        60       FIXPVA
        253        60       FIXPVA
        254        60       FIXPVA
        255        60       FIXPVA
        256        60       FIXPVA
        257        60       FIXPVA
        258        60       FIXPVA
        259        60       FIXPVA
        260        60       FIXPVA
        261        60       FIXPVA
        262        60       FIXPVA
        263        60       FIXPVA
        264        60       FIXPVA
        265        60       FIXPVA
        266        60       FIXPVA
        267        60       FIXPVA
        268        60       FIXPVA
        269        60       FIXPVA
        270        60       FIXPVA
        271        60       FIXPVA
        272        60       FIXPVA
        273        60       FIXPVA
        274        60       FIXPVA
        275        60       FIXPVA
        276        60       FIXPVA
        277        60       FIXPVA
        278        60       FIXPVA
        279        60       FIXPVA
        280        60       FIXPVA
        281        60       FIXPVA
        282        60       FIXPVA
        283        60       FIXPVA
        284        60       FIXPVA
        285        60       FIXPVA
        286        60       FIXPVA
        287        60       FIXPVA
        288        60       FIXPVA
        289        60       FIXPVA
        290        60       FIXPVA
        291        60       FIXPVA
        292        60       FIXPVA
        293        60       FIXPVA
        294        60       FIXPVA
        295        60       FIXPVA
        296        60       FIXPVA
        297        60       FIXPVA
        298        60       FIXPVA
        299        60       FIXPVA
        300        60       FIXPVA
        301        60       FIXPVA
        302        60       FIXPVA
        303        60       FIXPVA
        304        60       FIXPVA
        305        60       FIXPVA
        306        60       FIXPVA
        307        60       FIXPVA
        308        60       FIXPVA
        309        60       FIXPVA
        310        60       FIXPVA
        311        60       FIXPVA
        312        60       FIXPVA
        313        60       FIXPVA
        314        60       FIXPVA
        315        60       FIXPVA
        316        60       FIXPVA
        317        60       FIXPVA
        318        60       FIXPVA
        319        60       FIXPVA

     ------------------------------
      FIXPVA TESSELLATION FOR PCM
         PEIFENG SU AND HUI LI
     UNIVERSITY OF NEBRASKA-LINCOLN
     ------------------------------


 PCM DIMENSIONS: MXSP=   319, MXTS=     12760, MEMORY=        131112

     INPUT FOR CAVITY DEFINITION 
     ---------------------------
   ATOM               COORDINATES                RADIUS       EPS
      1     13.8140     21.1650      6.4670      0.0100     78.3900
      2     13.7280     20.9340      7.4110      1.5900     78.3900
      3     12.3230     20.8990      7.7030      1.7700     78.3900
      4     11.8190     20.1710      7.0280      0.0100     78.3900
      5     11.8920     21.9070      7.5120      0.0100     78.3900
      6     12.0100     20.5100      9.1540      1.7700     78.3900
      7     10.9150     20.5080      9.3280      0.0100     78.3900
      8     12.4890     19.1620      9.4340      1.5900     78.3900
      9     13.0210     19.1250     10.7530      1.7700     78.3900
     10     12.4740     18.3070     11.2780      0.0100     78.3900
     11     14.4790     18.8200     10.7770      1.6800     78.3900
     12     15.2420     18.9780      9.6410      1.7700     78.3900
     13     14.7180     19.3320      8.7520      0.0100     78.3900
     14     16.5440     18.6720      9.6230      1.7700     78.3900
     15     17.1520     18.7670      8.7250      0.0100     78.3900
     16     15.0830     18.3840     11.9530      1.7700     78.3900
     17     14.3940     18.2670     12.9780      1.5900     78.3900
     18     16.3960     18.0620     11.9530      1.6800     78.3900
     19     17.1250     18.1940     10.8310      1.7700     78.3900
     20     18.4080     17.8360     10.8530      1.6800     78.3900
     21     18.8300     17.5670     11.7210      0.0100     78.3900
     22     18.9820     17.8790     10.0330      0.0100     78.3900
     23     12.6860     20.4420     11.4210      1.7700     78.3900
     24     13.4450     20.7450     12.1680      0.0100     78.3900
     25     11.4190     20.3650     12.0450      1.5900     78.3900
     26     11.2440     21.2550     12.3700      0.0100     78.3900
     27     12.6650     21.3930     10.2290      1.7700     78.3900
     28     13.7050     21.5930      9.8790      0.0100     78.3900
     29     11.8790     22.5970     10.4210      1.5900     78.3900
     30     12.6160     23.9050     10.9000      2.1000     78.3900
     31     13.8780     24.0610     10.1490      1.5900     78.3900
     32     11.6570     25.0320     10.8440      1.5900     78.3900
     33     12.9640     23.5860     12.4010      1.5900     78.3900
     34     11.8940     23.5060     13.3730      1.7700     78.3900
     35     11.1020     22.7920     13.0520      0.0100     78.3900
     36     11.4080     24.5000     13.4950      0.0100     78.3900
     37     12.4150     23.0610     14.7450      1.7700     78.3900
     38     11.5850     22.9760     15.4790      0.0100     78.3900
     39     13.0320     21.7460     14.6250      1.5900     78.3900
     40     14.1760     21.6840     15.4660      1.7700     78.3900
     41     14.0200     20.8140     16.1450      0.0100     78.3900
     42     15.4090     21.4730     14.6960      1.6800     78.3900
     43     16.5990     21.0060     15.1850      1.7700     78.3900
     44     18.5510     19.9090     17.8350      1.6800     78.3900
     45     17.9310     19.9850     18.6150      0.0100     78.3900
     46     19.4920     19.5960     17.9910      0.0100     78.3900
     47     16.8560     20.6830     16.4650      1.6800     78.3900
     48     18.1040     20.2500     16.6380      1.7700     78.3900
     49     19.0020     20.1300     15.6110      1.6800     78.3900
     50     19.9260     19.7860     15.8240      0.0100     78.3900
     51     18.7610     20.4480     14.2800      1.7700     78.3900
     52     19.6380     20.3050     13.4240      1.5900     78.3900
     53     17.4440     20.9390     14.0940      1.7700     78.3900
     54     16.8090     21.3890     12.9440      1.6800     78.3900
     55     15.6030     21.7010     13.3520      1.7700     78.3900
     56     14.8040     22.0980     12.7270      0.0100     78.3900
     57     14.2140     22.9570     16.2800      1.7700     78.3900
     58     15.2470     23.2860     16.5200      0.0100     78.3900
     59     13.4790     22.7770     17.4750      1.5900     78.3900
     60     13.3410     23.6540     17.8580      0.0100     78.3900
     61     13.5190     23.9400     15.3490      1.7700     78.3900
     62     14.1910     24.2150     14.5030      0.0100     78.3900
     63     12.9400     25.0820     16.0220      1.5900     78.3900
     64     13.7670     26.4210     16.0560      2.1000     78.3900
     65     14.1910     26.7390     14.6760      1.5900     78.3900
     66     12.9790     27.4540     16.7600      1.5900     78.3900
     67     15.0340     26.0750     16.9140      1.5900     78.3900
     68     14.9580     25.8480     18.3380      1.7700     78.3900
     69     14.2390     25.0340     18.5890      0.0100     78.3900
     70     14.6050     26.7720     18.8580      0.0100     78.3900
     71     16.3360     25.4700     18.9050      1.7700     78.3900
     72     16.2830     25.3440     20.0080      0.0100     78.3900
     73     16.7930     24.2010     18.3560      1.5900     78.3900
     74     18.2010     24.2480     18.1680      1.7700     78.3900
     75     18.6120     23.4050     18.7700      0.0100     78.3900
     76     18.5680     24.0920     16.7300      1.6800     78.3900
     77     17.6990     24.4740     15.7340      1.7700     78.3900
     78     16.7420     24.8580     16.0780      0.0100     78.3900
     79     19.7830     23.5290     16.4210      1.7700     78.3900
     80     20.5630     23.1380     17.2800      1.5900     78.3900
     81     20.0560     23.4310     15.0780      1.6800     78.3900
     82     20.9430     23.0160     14.8230      0.0100     78.3900
     83     19.2370     23.7920     14.0290      1.7700     78.3900
     84     19.6090     23.6280     12.8690      1.5900     78.3900
     85     17.9720     24.3300     14.4290      1.7700     78.3900
     86     17.2520     24.5940     13.6600      0.0100     78.3900
     87     18.6950     25.5690     18.7510      1.7700     78.3900
     88     19.5570     25.9870     18.1850      0.0100     78.3900
     89     19.0510     25.4130     20.1150      1.5900     78.3900
     90     19.2580     26.3000     20.4530      0.0100     78.3900
     91     17.4630     26.4550     18.5870      1.7700     78.3900
     92     17.3460     26.7630     17.5240      0.0100     78.3900
     93     17.3720     27.5700     19.4820      1.5900     78.3900
     94     18.2720     28.8400     19.3340      2.1000     78.3900
     95     17.6230     29.8850     20.1600      1.5900     78.3900
     96     19.6570     28.4580     19.6830      1.5900     78.3900
     97     18.1440     29.2160     17.8020      1.5900     78.3900
     98     19.2860     29.4000     16.9300      1.7700     78.3900
     99     19.0420     28.9650     15.9350      0.0100     78.3900
    100     20.1940     28.8640     17.2970      0.0100     78.3900
    101     19.6400     30.8860     16.7090      1.7700     78.3900
    102     18.7830     31.4290     16.2510      0.0100     78.3900
    103     19.9000     31.5270     17.9980      1.5900     78.3900
    104     21.0020     32.4150     17.8880      1.7700     78.3900
    105     20.6370     33.3950     18.2820      0.0100     78.3900
    106     22.1740     31.9660     18.7010      1.6800     78.3900
    107     22.0990     30.8440     19.5050      1.7700     78.3900
    108     21.1690     30.2710     19.4490      0.0100     78.3900
    109     23.2900     32.7780     18.7400      1.7700     78.3900
    110     23.3650     33.8380     18.1290      1.5900     78.3900
    111     24.3130     32.3250     19.5320      1.6800     78.3900
    112     25.1300     32.9210     19.5680      0.0100     78.3900
    113     24.2950     31.2400     20.3790      1.7700     78.3900
    114     25.2650     31.0050     21.0970      1.5900     78.3900
    115     23.0910     30.4700     20.3270      1.7700     78.3900
    116     22.9980     29.6040     20.9790      0.0100     78.3900
    117     21.3150     32.5420     16.4080      1.7700     78.3900
    118     22.3900     32.7260     16.1960      0.0100     78.3900
    119     20.5290     33.5760     15.8390      1.5900     78.3900
    120     20.5790     33.4770     14.8760      0.0100     78.3900
    121     20.9090     31.1760     15.8840      1.7700     78.3900
    122     21.6500     30.4080     16.1860      0.0100     78.3900
    123     20.6440     31.1930     14.4720      1.5900     78.3900
    124     21.3070     30.2520     13.4110      2.1000     78.3900
    125     20.8710     28.8740     13.6890      1.5900     78.3900
    126     20.9800     30.7780     12.0690      1.5900     78.3900
    127     22.8650     30.3550     13.6200      1.5900     78.3900
    128     23.6090     31.5080     13.1590      1.7700     78.3900
    129     23.0930     32.4700     13.4160      0.0100     78.3900
    130     23.7230     31.4700     12.0530      0.0100     78.3900
    131     25.0170     31.5430     13.7750      1.7700     78.3900
    132     25.5960     32.4180     13.4010      0.0100     78.3900
    133     24.8910     31.6990     15.2190      1.5900     78.3900
    134     25.8760     30.9120     15.8690      1.7700     78.3900
    135     26.4430     31.6030     16.5380      0.0100     78.3900
    136     25.2580     29.8610     16.6760      1.6800     78.3900
    137     24.8340     28.3760     18.2360      1.7700     78.3900
    138     23.7030     28.4310     17.4400      1.6800     78.3900
    139     24.0070     29.3240     16.5340      1.7700     78.3900
    140     23.3580     29.6310     15.7180      0.0100     78.3900
    141     26.3530     27.8420     19.9650      1.6800     78.3900
    142     27.2050     28.6720     19.3610      1.7700     78.3900
    143     28.1770     28.7710     19.8530      0.0100     78.3900
    144     27.0310     29.4330     18.2740      1.6800     78.3900
    145     25.8080     29.2370     17.7600      1.7700     78.3900
    146     25.1230     27.6710     19.4210      1.7700     78.3900
    147     24.2300     26.8800     20.0400      1.6800     78.3900
    148     23.4060     26.5830     19.5630      0.0100     78.3900
    149     24.5400     26.3150     20.8070      0.0100     78.3900
    150     26.7990     30.3560     14.8110      1.7700     78.3900
    151     27.2020     29.3530     15.0730      0.0100     78.3900
    152     27.8660     31.2610     14.5900      1.5900     78.3900
    153     28.3060     30.9980     13.7680      0.0100     78.3900
    154     25.8720     30.2700     13.6050      1.7700     78.3900
    155     25.1790     29.4020     13.7140      0.0100     78.3900
    156     26.5600     30.2870     12.3360      1.5900     78.3900
    157     26.8510     28.9350     11.5830      2.1000     78.3900
    158     25.5520     28.2920     11.2860      1.5900     78.3900
    159     27.7370     29.2200     10.4340      1.5900     78.3900
    160     27.6230     28.0510     12.6330      1.5900     78.3900
    161     29.0030     28.2760     12.9850      1.7700     78.3900
    162     29.1360     29.2690     13.4650      0.0100     78.3900
    163     29.6410     28.2600     12.0800      0.0100     78.3900
    164     29.5230     27.1980     13.9510      1.7700     78.3900
    165     30.6010     27.3510     14.1750      0.0100     78.3900
    166     28.8040     27.2950     15.2170      1.5900     78.3900
    167     28.5560     25.9940     15.7220      1.7700     78.3900
    168     28.9750     25.9640     16.7550      0.0100     78.3900
    169     27.1170     25.7430     15.7620      1.6800     78.3900
    170     25.0930     25.2180     16.4160      1.7700     78.3900
    171     24.9640     25.7260     15.1360      1.6800     78.3900
    172     26.1880     26.0310     14.7920      1.7700     78.3900
    173     26.4690     26.4700     13.8350      0.0100     78.3900
    174     24.6010     24.2680     18.5210      1.6800     78.3900
    175     25.9170     24.3030     18.7540      1.7700     78.3900
    176     26.2280     23.9220     19.7320      0.0100     78.3900
    177     26.9040     24.7670     17.9780      1.6800     78.3900
    178     26.4150     25.2100     16.8090      1.7700     78.3900
    179     24.1460     24.7410     17.3380      1.7700     78.3900
    180     22.8330     24.7390     17.0790      1.6800     78.3900
    181     22.4750     25.1420     16.2350      0.0100     78.3900
    182     22.1970     24.2700     17.6930      0.0100     78.3900
    183     29.2950     25.0050     14.8430      1.7700     78.3900
    184     28.7810     24.0220     14.7640      0.0100     78.3900
    185     30.6050     24.8220     15.3370      1.5900     78.3900
    186     31.1020     24.3520     14.6550      0.0100     78.3900
    187     29.3120     25.7370     13.5090      1.7700     78.3900
    188     28.2970     25.7040     13.0510      0.0100     78.3900
    189     30.3660     25.3160     12.6060      1.5900     78.3900
    190     29.9850     24.4080     11.3730      2.1000     78.3900
    191     28.6340     24.7610     10.8980      1.5900     78.3900
    192     31.0840     24.4530     10.3840      1.5900     78.3900
    193     29.9450     22.9640     11.9820      1.5900     78.3900
    194     31.1710     22.3660     12.4230      1.7700     78.3900
    195     30.9510     21.9620     13.4300      0.0100     78.3900
    196     32.0010     23.1010     12.5640      0.0100     78.3900
    197     31.6390     21.2660     11.4490      1.7700     78.3900
    198     31.5560     21.5420     10.3750      0.0100     78.3900
    199     33.0430     20.9460     11.7660      1.5900     78.3900
    200     33.1110     19.6550     12.3980      1.7700     78.3900
    201     34.0890     19.1920     12.1380      0.0100     78.3900
    202     32.9780     19.7830     13.8850      1.6800     78.3900
    203     32.9700     18.7850     14.8290      1.7700     78.3900
    204     33.4170     15.4720     15.7220      1.6800     78.3900
    205     33.4700     14.9360     16.5650      0.0100     78.3900
    206     33.6020     15.0310     14.8470      0.0100     78.3900
    207     33.1390     17.4720     14.5970      1.6800     78.3900
    208     33.1780     16.7680     15.7340      1.7700     78.3900
    209     32.9790     17.3170     16.9740      1.6800     78.3900
    210     33.0230     16.7160     17.7800      0.0100     78.3900
    211     32.7600     18.6600     17.2370      1.7700     78.3900
    212     32.5940     19.0830     18.3870      1.5900     78.3900
    213     32.7810     19.4260     16.0460      1.7700     78.3900
    214     32.7050     20.7950     15.8800      1.6800     78.3900
    215     32.8600     20.9650     14.5970      1.7700     78.3900
    216     32.9020     21.9400     14.1110      0.0100     78.3900
    217     31.9730     18.8580     11.7680      1.7700     78.3900
    218     31.6590     17.9920     12.3910      0.0100     78.3900
    219     32.3020     18.4280     10.4570      1.5900     78.3900
    220     31.5600     17.9120     10.0930      0.0100     78.3900
    221     30.9290     19.9640     11.7900      1.7700     78.3900
    222     30.8040     20.1580     12.8310      0.0100     78.3900
    223     29.6230     19.7940     11.2270      1.5900     78.3900
    224     28.5520     18.9420     12.0430      2.1000     78.3900
    225     27.2490     19.1870     11.3870      1.5900     78.3900
    226     29.0190     17.5380     12.0110      1.5900     78.3900
    227     28.4390     19.4950     13.5310      1.5900     78.3900
    228     29.4360     19.3560     14.5700      1.7700     78.3900
    229     30.2100     20.1450     14.4880      0.0100     78.3900
    230     29.9160     18.3500     14.5500      0.0100     78.3900
    231     28.9680     19.7110     15.9750      1.7700     78.3900
    232     29.8390     19.7340     16.6690      0.0100     78.3900
    233     28.3910     21.0470     15.9920      1.5900     78.3900
    234     27.2910     21.0640     16.8770      1.7700     78.3900
    235     27.4970     21.8880     17.6000      0.0100     78.3900
    236     26.0040     21.3320     16.1680      1.6800     78.3900
    237     25.9660     21.5020     14.7970      1.7700     78.3900
    238     26.9100     21.3370     14.2710      0.0100     78.3900
    239     24.8560     21.4490     16.9220      1.7700     78.3900
    240     24.8370     21.3010     18.1370      1.5900     78.3900
    241     23.7240     21.7440     16.2110      1.6800     78.3900
    242     22.9010     21.8850     16.7660      0.0100     78.3900
    243     23.6210     21.9910     14.8610      1.7700     78.3900
    244     22.5360     22.3070     14.3780      1.5900     78.3900
    245     24.8440     21.8230     14.1360      1.7700     78.3900
    246     24.8360     21.9610     13.0570      0.0100     78.3900
    247     27.3070     19.7300     17.6070      1.7700     78.3900
    248     26.2950     19.3840     17.8800      0.0100     78.3900
    249     28.1070     19.8190     18.7700      1.5900     78.3900
    250     28.2730     18.9120     19.0570      0.0100     78.3900
    251     27.9210     18.8050     16.5720      1.7700     78.3900
    252     27.1990     18.5970     15.7480      0.0100     78.3900
    253     28.5560     17.6300     17.1260      1.5900     78.3900
    254     27.9280     16.2190     16.8570      2.1000     78.3900
    255     27.4630     16.1070     15.4570      1.5900     78.3900
    256     28.8340     15.1520     17.3440      1.5900     78.3900
    257     26.6360     16.1840     17.7610      1.5900     78.3900
    258     26.7240     16.2350     19.2030      1.7700     78.3900
    259     27.5060     16.9530     19.5450      0.0100     78.3900
    260     26.9910     15.2270     19.5950      0.0100     78.3900
    261     25.3940     16.6580     19.8510      1.7700     78.3900
    262     25.4870     16.6820     20.9580      0.0100     78.3900
    263     25.0470     18.0030     19.4200      1.5900     78.3900
    264     23.6390     18.0970     19.2340      1.7700     78.3900
    265     23.3050     18.9500     19.8710      0.0100     78.3900
    266     23.2480     18.3670     17.8190      1.6800     78.3900
    267     24.1500     18.1470     16.8070      1.7700     78.3900
    268     25.1260     17.7730     17.1100      0.0100     78.3900
    269     23.8460     18.3840     15.5280      1.7700     78.3900
    270     24.5600     18.2280     14.7220      0.0100     78.3900
    271     21.9780     18.8520     17.5110      1.7700     78.3900
    272     21.1730     19.0710     18.4310      1.5900     78.3900
    273     21.6530     19.1100     16.2210      1.6800     78.3900
    274     22.5420     18.8740     15.2390      1.7700     78.3900
    275     22.2130     19.1470     13.9770      1.6800     78.3900
    276     21.3020     19.5140     13.7710      0.0100     78.3900
    277     22.8480     19.0040     13.2210      0.0100     78.3900
    278     23.0380     16.8130     19.7640      1.7700     78.3900
    279     22.1060     16.5290     19.2360      0.0100     78.3900
    280     22.7830     16.9400     21.1520      1.5900     78.3900
    281     22.4740     16.0770     21.4580      0.0100     78.3900
    282     24.1610     15.8210     19.4880      1.7700     78.3900
    283     24.2390     15.6210     18.3940      0.0100     78.3900
    284     24.1220     14.6190     20.2920      1.5900     78.3900
    285     23.4880     13.3150     19.6770      2.1000     78.3900
    286     23.9630     13.1590     18.2880      1.5900     78.3900
    287     23.7190     12.1750     20.5950      1.5900     78.3900
    288     21.9500     13.6470     19.6550      1.5900     78.3900
    289     21.2400     13.7640     20.9120      1.7700     78.3900
    290     21.7130     14.5120     21.5870      0.0100     78.3900
    291     21.2280     12.7850     21.4510      0.0100     78.3900
    292     19.7880     14.1920     20.6800      1.7700     78.3900
    293     19.2330     14.2430     21.6450      0.0100     78.3900
    294     19.7490     15.5150     20.0770      1.5900     78.3900
    295     18.6890     15.5700     19.1340      1.7700     78.3900
    296     18.0300     16.4150     19.4350      0.0100     78.3900
    297     19.1960     15.8150     17.7770      1.6800     78.3900
    298     18.4700     16.2880     16.7190      1.7700     78.3900
    299     15.4630     17.3260     15.3590      1.6800     78.3900
    300     14.8410     17.2680     16.1400      0.0100     78.3900
    301     15.1130     17.6640     14.4800      0.0100     78.3900
    302     17.1610     16.5990     16.7340      1.6800     78.3900
    303     16.7290     17.0120     15.5450      1.7700     78.3900
    304     17.5500     17.1580     14.4580      1.6800     78.3900
    305     17.1400     17.4770     13.5930      0.0100     78.3900
    306     18.9050     16.8570     14.4160      1.7700     78.3900
    307     19.5680     17.0190     13.3870      1.5900     78.3900
    308     19.3610     16.3610     15.6650      1.7700     78.3900
    309     20.6190     15.9130     16.0460      1.6800     78.3900
    310     20.4730     15.5970     17.3090      1.7700     78.3900
    311     21.2570     15.1960     17.9550      0.0100     78.3900
    312     17.9230     14.2650     19.2230      1.7700     78.3900
    313     17.5200     13.9390     18.2380      0.0100     78.3900
    314     16.8620     14.3880     20.1550      1.5900     78.3900
    315     16.4840     13.5060     20.3110      0.0100     78.3900
    316     19.0060     13.3070     19.7050      1.7700     78.3900
    317     19.6790     13.0290     18.8650      0.0100     78.3900
    318     18.5070     12.1380     20.3740      1.5900     78.3900
    319     18.0280     11.5720     19.7430      0.0100     78.3900

 CREATION OF A NEW CAVITY WITH THE ORIGINAL SPHERE
 SIZES FOR THE COMPUTATION OF THE CAVITATION ENERGY.

     INPUT FOR CAVITY DEFINITION 
     ---------------------------
   ATOM               COORDINATES                RADIUS       EPS
      1     13.8140     21.1650      6.4670      0.0100     78.3900
      2     13.7280     20.9340      7.4110      1.5900     78.3900
      3     12.3230     20.8990      7.7030      1.7700     78.3900
      4     11.8190     20.1710      7.0280      0.0100     78.3900
      5     11.8920     21.9070      7.5120      0.0100     78.3900
      6     12.0100     20.5100      9.1540      1.7700     78.3900
      7     10.9150     20.5080      9.3280      0.0100     78.3900
      8     12.4890     19.1620      9.4340      1.5900     78.3900
      9     13.0210     19.1250     10.7530      1.7700     78.3900
     10     12.4740     18.3070     11.2780      0.0100     78.3900
     11     14.4790     18.8200     10.7770      1.6800     78.3900
     12     15.2420     18.9780      9.6410      1.7700     78.3900
     13     14.7180     19.3320      8.7520      0.0100     78.3900
     14     16.5440     18.6720      9.6230      1.7700     78.3900
     15     17.1520     18.7670      8.7250      0.0100     78.3900
     16     15.0830     18.3840     11.9530      1.7700     78.3900
     17     14.3940     18.2670     12.9780      1.5900     78.3900
     18     16.3960     18.0620     11.9530      1.6800     78.3900
     19     17.1250     18.1940     10.8310      1.7700     78.3900
     20     18.4080     17.8360     10.8530      1.6800     78.3900
     21     18.8300     17.5670     11.7210      0.0100     78.3900
     22     18.9820     17.8790     10.0330      0.0100     78.3900
     23     12.6860     20.4420     11.4210      1.7700     78.3900
     24     13.4450     20.7450     12.1680      0.0100     78.3900
     25     11.4190     20.3650     12.0450      1.5900     78.3900
     26     11.2440     21.2550     12.3700      0.0100     78.3900
     27     12.6650     21.3930     10.2290      1.7700     78.3900
     28     13.7050     21.5930      9.8790      0.0100     78.3900
     29     11.8790     22.5970     10.4210      1.5900     78.3900
     30     12.6160     23.9050     10.9000      2.1000     78.3900
     31     13.8780     24.0610     10.1490      1.5900     78.3900
     32     11.6570     25.0320     10.8440      1.5900     78.3900
     33     12.9640     23.5860     12.4010      1.5900     78.3900
     34     11.8940     23.5060     13.3730      1.7700     78.3900
     35     11.1020     22.7920     13.0520      0.0100     78.3900
     36     11.4080     24.5000     13.4950      0.0100     78.3900
     37     12.4150     23.0610     14.7450      1.7700     78.3900
     38     11.5850     22.9760     15.4790      0.0100     78.3900
     39     13.0320     21.7460     14.6250      1.5900     78.3900
     40     14.1760     21.6840     15.4660      1.7700     78.3900
     41     14.0200     20.8140     16.1450      0.0100     78.3900
     42     15.4090     21.4730     14.6960      1.6800     78.3900
     43     16.5990     21.0060     15.1850      1.7700     78.3900
     44     18.5510     19.9090     17.8350      1.6800     78.3900
     45     17.9310     19.9850     18.6150      0.0100     78.3900
     46     19.4920     19.5960     17.9910      0.0100     78.3900
     47     16.8560     20.6830     16.4650      1.6800     78.3900
     48     18.1040     20.2500     16.6380      1.7700     78.3900
     49     19.0020     20.1300     15.6110      1.6800     78.3900
     50     19.9260     19.7860     15.8240      0.0100     78.3900
     51     18.7610     20.4480     14.2800      1.7700     78.3900
     52     19.6380     20.3050     13.4240      1.5900     78.3900
     53     17.4440     20.9390     14.0940      1.7700     78.3900
     54     16.8090     21.3890     12.9440      1.6800     78.3900
     55     15.6030     21.7010     13.3520      1.7700     78.3900
     56     14.8040     22.0980     12.7270      0.0100     78.3900
     57     14.2140     22.9570     16.2800      1.7700     78.3900
     58     15.2470     23.2860     16.5200      0.0100     78.3900
     59     13.4790     22.7770     17.4750      1.5900     78.3900
     60     13.3410     23.6540     17.8580      0.0100     78.3900
     61     13.5190     23.9400     15.3490      1.7700     78.3900
[...]
   267    9   6.0   1.27    2.2   -0.003044    0.182010    0.162619
   268    9   1.0   0.00    0.0    0.000000    0.305461    0.325676
   269    9   6.0   8.16   14.4   -0.039094   -0.411513   -0.422250
   270    9   1.0   0.00    0.0    0.000000    0.275855    0.277210
   271    9   6.0   0.17    0.3   -0.001391    1.063367    1.085378
   272    9   8.0   7.14   15.6    0.118306   -0.794518   -0.768339
   273    9   7.0   0.00    0.0    0.000000   -0.868378   -0.864325
   274    9   6.0   0.33    0.6    0.007006    0.740458    0.755657
   275    9   7.0  12.06   23.6   -0.091749   -0.941646   -1.001562
   276    9   1.0   0.00    0.0    0.000000    0.467920    0.515600
   277    9   1.0   0.00    0.0    0.000000    0.446441    0.442438
   278    9   6.0   0.93    1.6    0.016995    0.131843    0.102631
   279    9   1.0   0.00    0.0    0.000000    0.204666    0.233478
   280    9   8.0  16.55   36.2    0.092374   -0.825650   -0.844328
   281    9   1.0   0.00    0.0    0.000000    0.496667    0.520539
   282    9   6.0   1.06    1.9   -0.018394    0.142917    0.109239
   283    9   1.0   0.00    0.0    0.000000    0.243045    0.244787
   284    9   8.0   4.74   10.4    0.059311   -0.796863   -0.804197
   285    9  15.0   9.67   12.1    0.136780    1.606819    1.665457
   286    9   8.0  14.75   32.2    0.331694   -0.892854   -0.893128
   287    9   8.0  17.73   38.8    0.349376   -0.896335   -0.892293
   288    9   8.0   0.81    1.8    0.009256   -0.967985   -0.783303
   289   10   6.0  12.23   21.6   -0.097315    0.202597   -0.032268
   290   10   1.0   0.00    0.0    0.000000    0.154472    0.171152
   291   10   1.0   0.00    0.0    0.000000    0.244751    0.228270
   292   10   6.0   5.85   10.3   -0.041720    0.096784    0.160113
   293   10   1.0   0.00    0.0    0.000000    0.245750    0.218768
   294   10   8.0   4.33    9.5    0.051318   -0.726688   -0.734308
   295   10   6.0   5.10    9.0   -0.041243    0.421512    0.421522
   296   10   1.0   0.00    0.0    0.000000    0.252589    0.249301
   297   10   7.0   0.00    0.0    0.000000   -0.794837   -0.805268
   298   10   6.0   1.73    3.1    0.001764    0.712212    0.715076
   299   10   7.0  14.85   29.1   -0.089957   -0.968528   -1.053332
   300   10   1.0   0.00    0.0    0.000000    0.443199    0.439332
   301   10   1.0   0.00    0.0    0.000000    0.474663    0.527080
   302   10   7.0   7.52   14.7    0.106000   -0.755678   -0.754629
   303   10   6.0   1.41    2.5   -0.002577    0.974139    0.969656
   304   10   7.0   2.57    5.0    0.004506   -0.937433   -1.028460
   305   10   1.0   0.00    0.0    0.000000    0.484820    0.544615
   306   10   6.0   2.28    4.0    0.001326    0.873344    0.869793
   307   10   8.0   9.97   21.8    0.158863   -0.753481   -0.740900
   308   10   6.0   2.15    3.8    0.014797   -0.048266   -0.043822
   309   10   7.0   7.89   15.4    0.127271   -0.591236   -0.597852
   310   10   6.0   3.22    5.7    0.010234    0.270724    0.264824
   311   10   1.0   0.00    0.0    0.000000    0.266150    0.286705
   312   10   6.0   7.52   13.3   -0.060630    0.109628    0.110275
   313   10   1.0   0.00    0.0    0.000000    0.226516    0.225541
   314   10   8.0  19.91   43.5    0.045020   -0.836509   -0.837830
   315   10   1.0   0.00    0.0    0.000000    0.499290    0.500020
   316   10   6.0   5.71   10.1   -0.046062    0.162356    0.146442
   317   10   1.0   0.00    0.0    0.000000    0.223292    0.225316
   318   10   8.0  21.27   46.5   -0.006590   -0.849872   -0.853045
   319   10   1.0   0.00    0.0    0.000000    0.506446    0.506217

 Done with FMO properties.
 CPU     0: STEP CPU TIME=     0.01 TOTAL CPU TIME=      15745.8 (    262.4 MIN)
 TOTAL WALL CLOCK TIME=      36535.2 SECONDS, CPU UTILIZATION IS    43.10%
 CPU     0: STEP CPU TIME=     0.00 TOTAL CPU TIME=      15745.8 (    262.4 MIN)
 TOTAL WALL CLOCK TIME=      36535.2 SECONDS, CPU UTILIZATION IS    43.10%

 Total timing statistics in pairs (CPU,wall) for each rank, sec

    Rank   total     SCF    corr     DFT    CPHF     EFP    solv     ESP    geom
 -------------------------------------------------------------------------------
       1   15745.8   4699.2   5650.0      0.0    0.0   0.0  145.3  4954.9    0.0
       1   36535.3  10388.5  14459.6      0.0    0.0   0.0  435.4 10564.8    0.0
       2   16067.9   4694.0   6027.0      0.0    0.0   0.0  146.3  4915.6    0.0
       2   36535.3  10383.3  14465.9      0.0    0.0   0.0  435.4 10564.0    0.0
       3   15985.5   4710.5   5784.3      0.0    0.0   0.0  146.7  5053.4    0.0
       3   36535.3  10383.2  14464.3      0.0    0.0   0.0  435.4 10564.2    0.0
       4   16882.7   4780.8   6406.1      0.0    0.0   0.0  146.1  5254.1    0.0
       4   36535.3  10384.0  14464.3      0.0    0.0   0.0  434.3 10564.1    0.0
       5   16930.0   4842.0   6557.7      0.0    0.0   0.0  147.0  5084.1    0.0
       5   36535.3  10383.8  14464.3      0.0    0.0   0.0  435.0 10564.2    0.0
       6   17041.9   4840.0   6584.0      0.0    0.0   0.0  146.7  5172.6    0.0
       6   36535.3  10384.5  14464.3      0.0    0.0   0.0  433.9 10564.2    0.0
       7   16918.2   4771.4   6209.1      0.0    0.0   0.0  147.0  5501.9    0.0
       7   36535.3  10384.1  14464.7      0.0    0.0   0.0  434.4 10564.1    0.0
       8   17977.5   4784.1   7281.1      0.0    0.0   0.0  146.3  5448.0    0.0
       8   36535.3  10384.6  14464.3      0.0    0.0   0.0  433.4 10564.1    0.0
       9   15974.5   4746.4   5680.3      0.0    0.0   0.0  144.6  5125.3    0.0
       9   36535.3  10384.7  14464.8      0.0    0.0   0.0  434.0 10564.0    0.0
      10   16293.6   4672.0   5956.5      0.0    0.0   0.0  146.0  5234.0    0.0
      10   36535.3  10384.8  14464.3      0.0    0.0   0.0  434.1 10563.9    0.0
      11   16042.2   4735.7   5916.1      0.0    0.0   0.0  145.1  4982.8    0.0
      11   36535.3  10385.2  14464.3      0.0    0.0   0.0  433.8 10563.8    0.0
      12   16422.1   4767.7   6094.4      0.0    0.0   0.0  145.0  5132.6    0.0
      12   36535.3  10385.7  14464.3      0.0    0.0   0.0  432.9 10563.6    0.0
      13   16902.4   4777.2   6442.6      0.0    0.0   0.0  144.7  5249.0    0.0
      13   36535.3  10385.7  14464.5      0.0    0.0   0.0  433.4 10563.7    0.0
      14   17772.8   4863.2   7084.6      0.0    0.0   0.0  145.1  5385.3    0.0
      14   36535.3  10385.9  14464.5      0.0    0.0   0.0  432.9 10563.6    0.0
      15   17587.3   4893.9   6791.0      0.0    0.0   0.0  146.0  5479.4    0.0
      15   36535.3  10385.8  14464.2      0.0    0.0   0.0  433.1 10563.6    0.0
      16   17378.9   4847.2   6612.6      0.0    0.0   0.0  145.1  5489.3    0.0
      16   36535.3  10386.2  14464.2      0.0    0.0   0.0  432.2 10563.6    0.0
averaged   16745.2   4776.6   6317.3      0.0    0.0   0.0  145.8  5216.4    0.0
averaged   36535.3  10385.0  14464.2      0.0    0.0   0.0  434.0 10564.0    0.0

  FMO  timing statistics in pairs (CPU,wall) for each rank, sec

    Rank  FMOini FMOscf1  FMOdm1 FMOsyn1 FMOscf2  FMOes2 FMOsyn2 FMOscf3 FMOsyn3
 -------------------------------------------------------------------------------
       1    2.0    6216.0    0.3    0.0    9323.9     203.6    0.0    0.0    0.0
       1    4.8   13647.2    0.8    0.0   22472.9     409.2    0.0    0.0    0.0
       2    1.5    6107.5    0.1    0.0    9762.5     196.2    0.0    0.0    0.0
       2    4.8   13647.2    0.8    0.0   22473.6     408.4    0.0    0.0    0.0
       3    1.7    6181.6    0.2    0.0    9600.9     201.1    0.0    0.0    0.0
       3    4.8   13647.2    0.8    0.0   22472.9     409.2    0.0    0.0    0.0
       4    1.5    6466.9    0.1    0.0   10206.8     207.3    0.0    0.0    0.0
       4    4.8   13647.2    0.8    0.0   22473.5     408.6    0.0    0.0    0.0
       5    1.8    6279.3    0.2    0.0   10439.7     208.9    0.0    0.0    0.0
       5    4.8   13647.2    0.8    0.0   22473.0     409.1    0.0    0.0    0.0
       6    1.5    6381.1    0.0    0.0   10448.6     210.6    0.0    0.0    0.0
       6    4.8   13647.2    0.8    0.0   22473.6     408.5    0.0    0.0    0.0
       7    1.6    6579.9    0.1    0.0   10137.5     199.0    0.0    0.0    0.0
       7    4.8   13647.2    0.8    0.0   22472.9     409.2    0.0    0.0    0.0
       8    1.4    6594.5    0.1    0.0   11152.1     229.3    0.0    0.0    0.0
       8    4.8   13647.2    0.8    0.0   22473.4     408.7    0.0    0.0    0.0
       9    1.7    6355.8    0.3    0.0    9428.7     187.9    0.0    0.0    0.0
       9    4.8   13647.2    0.8    0.0   22473.4     408.7    0.0    0.0    0.0
      10    1.4    6398.7    0.0    0.0    9696.2     197.3    0.0    0.0    0.0
      10    4.8   13647.2    0.8    0.0   22473.8     408.2    0.0    0.0    0.0
      11    1.5    6312.8    0.1    0.0    9552.8     175.0    0.0    0.0    0.0
      11    4.8   13647.2    0.8    0.0   22473.9     408.2    0.0    0.0    0.0
      12    1.3    6589.9    0.1    0.0    9635.0     195.9    0.0    0.0    0.0
      12    4.8   13647.2    0.8    0.0   22474.0     408.1    0.0    0.0    0.0
      13    1.6    6548.9    0.2    0.0   10150.6     201.1    0.0    0.0    0.0
      13    4.8   13647.2    0.8    0.0   22473.8     408.2    0.0    0.0    0.0
      14    1.3    6746.9    0.0    0.0   10816.5     207.9    0.0    0.0    0.0
      14    4.8   13647.2    0.8    0.0   22473.8     408.2    0.0    0.0    0.0
      15    1.5    6887.3    0.1    0.0   10508.5     189.9    0.0    0.0    0.0
      15    4.8   13647.2    0.8    0.0   22474.2     407.9    0.0    0.0    0.0
      16    1.4    6728.8    0.1    0.0   10450.6     198.1    0.0    0.0    0.0
      16    4.8   13647.2    0.8    0.0   22474.0     408.1    0.0    0.0    0.0
averaged    1.5    6461.0    0.1    0.0   10081.9     200.6    0.0    0.0    0.0
averaged    4.8   13647.2    0.8    0.0   22473.6     408.5    0.0    0.0    0.0
             62708674  WORDS OF DYNAMIC MEMORY USED
 EXECUTION OF GAMESS TERMINATED NORMALLY Mon Nov 18 07:39:53 2019
 DDI: 263640 bytes (0.3 MB / 0 MWords) used by master data server.

 ----------------------------------------
 CPU timing information for all processes
 ========================================
 0: 15379.313 + 366.580 = 15745.893
 1: 15718.282 + 349.625 = 16067.907
 2: 15645.82 + 340.419 = 15985.502
 3: 16525.73 + 357.654 = 16882.728
 4: 16537.22 + 392.990 = 16930.12
 5: 16655.708 + 386.219 = 17041.927
 6: 16533.784 + 384.464 = 16918.249
 7: 17576.21 + 401.529 = 17977.551
 8: 15618.624 + 355.868 = 15974.493
 9: 15944.538 + 349.69 = 16293.607
 10: 15690.157 + 352.97 = 16042.254
 11: 16078.86 + 344.64 = 16422.150
 12: 16526.526 + 375.896 = 16902.422
 13: 17390.878 + 381.962 = 17772.841
 14: 17207.67 + 380.214 = 17587.282
 15: 17005.357 + 373.589 = 17378.946
 ----------------------------------------
 ddikick.x: exited gracefully.
----- accounting info -----
Files used on the master node gollum089.lsa.umich.edu were:
-rw-r--r-- 1 hazwong frank    16538 Nov 17 21:30 /scratch/hazwong/638761/1HS2_5/usrc/1HS2_5_fmo_input.F05
-rw-r--r-- 1 hazwong frank      634 Nov 18 07:39 /scratch/hazwong/638761/1HS2_5/usrc/1HS2_5_fmo_input.F06.001
-rw-r--r-- 1 hazwong frank      634 Nov 18 07:39 /scratch/hazwong/638761/1HS2_5/usrc/1HS2_5_fmo_input.F06.002
-rw-r--r-- 1 hazwong frank      634 Nov 18 07:39 /scratch/hazwong/638761/1HS2_5/usrc/1HS2_5_fmo_input.F06.003
-rw-r--r-- 1 hazwong frank      634 Nov 18 07:39 /scratch/hazwong/638761/1HS2_5/usrc/1HS2_5_fmo_input.F06.004
-rw-r--r-- 1 hazwong frank      634 Nov 18 07:39 /scratch/hazwong/638761/1HS2_5/usrc/1HS2_5_fmo_input.F06.005
-rw-r--r-- 1 hazwong frank      634 Nov 18 07:39 /scratch/hazwong/638761/1HS2_5/usrc/1HS2_5_fmo_input.F06.006
-rw-r--r-- 1 hazwong frank      634 Nov 18 07:39 /scratch/hazwong/638761/1HS2_5/usrc/1HS2_5_fmo_input.F06.007
-rw-r--r-- 1 hazwong frank      634 Nov 18 07:39 /scratch/hazwong/638761/1HS2_5/usrc/1HS2_5_fmo_input.F06.008
-rw-r--r-- 1 hazwong frank      634 Nov 18 07:39 /scratch/hazwong/638761/1HS2_5/usrc/1HS2_5_fmo_input.F06.009
-rw-r--r-- 1 hazwong frank      634 Nov 18 07:39 /scratch/hazwong/638761/1HS2_5/usrc/1HS2_5_fmo_input.F06.010
-rw-r--r-- 1 hazwong frank      634 Nov 18 07:39 /scratch/hazwong/638761/1HS2_5/usrc/1HS2_5_fmo_input.F06.011
-rw-r--r-- 1 hazwong frank      634 Nov 18 07:39 /scratch/hazwong/638761/1HS2_5/usrc/1HS2_5_fmo_input.F06.012
-rw-r--r-- 1 hazwong frank      634 Nov 18 07:39 /scratch/hazwong/638761/1HS2_5/usrc/1HS2_5_fmo_input.F06.013
-rw-r--r-- 1 hazwong frank      634 Nov 18 07:39 /scratch/hazwong/638761/1HS2_5/usrc/1HS2_5_fmo_input.F06.014
-rw-r--r-- 1 hazwong frank      634 Nov 18 07:39 /scratch/hazwong/638761/1HS2_5/usrc/1HS2_5_fmo_input.F06.015
-rw-r--r-- 1 hazwong frank     9128 Nov 18 07:39 /scratch/hazwong/638761/1HS2_5/usrc/1HS2_5_fmo_input.F07
-rw-r--r-- 1 hazwong frank        0 Nov 17 21:30 /scratch/hazwong/638761/1HS2_5/usrc/1HS2_5_fmo_input.F07.001
-rw-r--r-- 1 hazwong frank        0 Nov 17 21:30 /scratch/hazwong/638761/1HS2_5/usrc/1HS2_5_fmo_input.F07.002
-rw-r--r-- 1 hazwong frank        0 Nov 17 21:30 /scratch/hazwong/638761/1HS2_5/usrc/1HS2_5_fmo_input.F07.003
-rw-r--r-- 1 hazwong frank        0 Nov 17 21:30 /scratch/hazwong/638761/1HS2_5/usrc/1HS2_5_fmo_input.F07.004
-rw-r--r-- 1 hazwong frank        0 Nov 17 21:30 /scratch/hazwong/638761/1HS2_5/usrc/1HS2_5_fmo_input.F07.005
-rw-r--r-- 1 hazwong frank        0 Nov 17 21:30 /scratch/hazwong/638761/1HS2_5/usrc/1HS2_5_fmo_input.F07.006
-rw-r--r-- 1 hazwong frank        0 Nov 17 21:30 /scratch/hazwong/638761/1HS2_5/usrc/1HS2_5_fmo_input.F07.007
-rw-r--r-- 1 hazwong frank        0 Nov 17 21:30 /scratch/hazwong/638761/1HS2_5/usrc/1HS2_5_fmo_input.F07.008
-rw-r--r-- 1 hazwong frank        0 Nov 17 21:30 /scratch/hazwong/638761/1HS2_5/usrc/1HS2_5_fmo_input.F07.009
-rw-r--r-- 1 hazwong frank        0 Nov 17 21:30 /scratch/hazwong/638761/1HS2_5/usrc/1HS2_5_fmo_input.F07.010
-rw-r--r-- 1 hazwong frank        0 Nov 17 21:30 /scratch/hazwong/638761/1HS2_5/usrc/1HS2_5_fmo_input.F07.011
-rw-r--r-- 1 hazwong frank        0 Nov 17 21:30 /scratch/hazwong/638761/1HS2_5/usrc/1HS2_5_fmo_input.F07.012
-rw-r--r-- 1 hazwong frank        0 Nov 17 21:30 /scratch/hazwong/638761/1HS2_5/usrc/1HS2_5_fmo_input.F07.013
-rw-r--r-- 1 hazwong frank        0 Nov 17 21:30 /scratch/hazwong/638761/1HS2_5/usrc/1HS2_5_fmo_input.F07.014
-rw-r--r-- 1 hazwong frank        0 Nov 17 21:30 /scratch/hazwong/638761/1HS2_5/usrc/1HS2_5_fmo_input.F07.015
-rw-r--r-- 1 hazwong frank    65440 Nov 18 07:39 /scratch/hazwong/638761/1HS2_5/usrc/1HS2_5_fmo_input.F10.000
-rw-r--r-- 1 hazwong frank        0 Nov 17 21:30 /scratch/hazwong/638761/1HS2_5/usrc/1HS2_5_fmo_input.F26.000
-rw-r--r-- 1 hazwong frank        0 Nov 17 21:30 /scratch/hazwong/638761/1HS2_5/usrc/1HS2_5_fmo_input.F26.001
-rw-r--r-- 1 hazwong frank        0 Nov 17 21:30 /scratch/hazwong/638761/1HS2_5/usrc/1HS2_5_fmo_input.F26.002
-rw-r--r-- 1 hazwong frank        0 Nov 17 21:30 /scratch/hazwong/638761/1HS2_5/usrc/1HS2_5_fmo_input.F26.003
-rw-r--r-- 1 hazwong frank        0 Nov 17 21:30 /scratch/hazwong/638761/1HS2_5/usrc/1HS2_5_fmo_input.F26.004
-rw-r--r-- 1 hazwong frank        0 Nov 17 21:30 /scratch/hazwong/638761/1HS2_5/usrc/1HS2_5_fmo_input.F26.005
-rw-r--r-- 1 hazwong frank        0 Nov 17 21:30 /scratch/hazwong/638761/1HS2_5/usrc/1HS2_5_fmo_input.F26.006
-rw-r--r-- 1 hazwong frank        0 Nov 17 21:30 /scratch/hazwong/638761/1HS2_5/usrc/1HS2_5_fmo_input.F26.007
-rw-r--r-- 1 hazwong frank        0 Nov 17 21:30 /scratch/hazwong/638761/1HS2_5/usrc/1HS2_5_fmo_input.F26.008
-rw-r--r-- 1 hazwong frank        0 Nov 17 21:30 /scratch/hazwong/638761/1HS2_5/usrc/1HS2_5_fmo_input.F26.009
-rw-r--r-- 1 hazwong frank        0 Nov 17 21:30 /scratch/hazwong/638761/1HS2_5/usrc/1HS2_5_fmo_input.F26.010
-rw-r--r-- 1 hazwong frank        0 Nov 17 21:30 /scratch/hazwong/638761/1HS2_5/usrc/1HS2_5_fmo_input.F26.011
-rw-r--r-- 1 hazwong frank        0 Nov 17 21:30 /scratch/hazwong/638761/1HS2_5/usrc/1HS2_5_fmo_input.F26.012
-rw-r--r-- 1 hazwong frank        0 Nov 17 21:30 /scratch/hazwong/638761/1HS2_5/usrc/1HS2_5_fmo_input.F26.013
-rw-r--r-- 1 hazwong frank        0 Nov 17 21:30 /scratch/hazwong/638761/1HS2_5/usrc/1HS2_5_fmo_input.F26.014
-rw-r--r-- 1 hazwong frank        0 Nov 17 21:30 /scratch/hazwong/638761/1HS2_5/usrc/1HS2_5_fmo_input.F26.015
-rw-r--r-- 1 hazwong frank        0 Nov 17 21:30 /scratch/hazwong/638761/1HS2_5/usrc/1HS2_5_fmo_input.F27.000
-rw-r--r-- 1 hazwong frank        0 Nov 17 21:30 /scratch/hazwong/638761/1HS2_5/usrc/1HS2_5_fmo_input.F27.001
-rw-r--r-- 1 hazwong frank        0 Nov 17 21:30 /scratch/hazwong/638761/1HS2_5/usrc/1HS2_5_fmo_input.F27.002
-rw-r--r-- 1 hazwong frank        0 Nov 17 21:30 /scratch/hazwong/638761/1HS2_5/usrc/1HS2_5_fmo_input.F27.003
-rw-r--r-- 1 hazwong frank        0 Nov 17 21:30 /scratch/hazwong/638761/1HS2_5/usrc/1HS2_5_fmo_input.F27.004
-rw-r--r-- 1 hazwong frank        0 Nov 17 21:30 /scratch/hazwong/638761/1HS2_5/usrc/1HS2_5_fmo_input.F27.005
-rw-r--r-- 1 hazwong frank        0 Nov 17 21:30 /scratch/hazwong/638761/1HS2_5/usrc/1HS2_5_fmo_input.F27.006
-rw-r--r-- 1 hazwong frank        0 Nov 17 21:30 /scratch/hazwong/638761/1HS2_5/usrc/1HS2_5_fmo_input.F27.007
-rw-r--r-- 1 hazwong frank        0 Nov 17 21:30 /scratch/hazwong/638761/1HS2_5/usrc/1HS2_5_fmo_input.F27.008
-rw-r--r-- 1 hazwong frank        0 Nov 17 21:30 /scratch/hazwong/638761/1HS2_5/usrc/1HS2_5_fmo_input.F27.009
-rw-r--r-- 1 hazwong frank        0 Nov 17 21:30 /scratch/hazwong/638761/1HS2_5/usrc/1HS2_5_fmo_input.F27.010
-rw-r--r-- 1 hazwong frank        0 Nov 17 21:30 /scratch/hazwong/638761/1HS2_5/usrc/1HS2_5_fmo_input.F27.011
-rw-r--r-- 1 hazwong frank        0 Nov 17 21:30 /scratch/hazwong/638761/1HS2_5/usrc/1HS2_5_fmo_input.F27.012
-rw-r--r-- 1 hazwong frank        0 Nov 17 21:30 /scratch/hazwong/638761/1HS2_5/usrc/1HS2_5_fmo_input.F27.013
-rw-r--r-- 1 hazwong frank        0 Nov 17 21:30 /scratch/hazwong/638761/1HS2_5/usrc/1HS2_5_fmo_input.F27.014
-rw-r--r-- 1 hazwong frank        0 Nov 17 21:30 /scratch/hazwong/638761/1HS2_5/usrc/1HS2_5_fmo_input.F27.015
-rw-r--r-- 1 hazwong frank 20332544 Nov 18 01:18 /scratch/hazwong/638761/1HS2_5/usrc/1HS2_5_fmo_input.F40.000
-rw-r--r-- 1 hazwong frank 20332544 Nov 18 01:18 /scratch/hazwong/638761/1HS2_5/usrc/1HS2_5_fmo_input.F40.001
-rw-r--r-- 1 hazwong frank 20332544 Nov 18 01:18 /scratch/hazwong/638761/1HS2_5/usrc/1HS2_5_fmo_input.F40.002
-rw-r--r-- 1 hazwong frank 20332544 Nov 18 01:18 /scratch/hazwong/638761/1HS2_5/usrc/1HS2_5_fmo_input.F40.003
-rw-r--r-- 1 hazwong frank 20332544 Nov 18 01:18 /scratch/hazwong/638761/1HS2_5/usrc/1HS2_5_fmo_input.F40.004
-rw-r--r-- 1 hazwong frank 20332544 Nov 18 01:18 /scratch/hazwong/638761/1HS2_5/usrc/1HS2_5_fmo_input.F40.005
-rw-r--r-- 1 hazwong frank 20332544 Nov 18 01:18 /scratch/hazwong/638761/1HS2_5/usrc/1HS2_5_fmo_input.F40.006
-rw-r--r-- 1 hazwong frank 20332544 Nov 18 01:18 /scratch/hazwong/638761/1HS2_5/usrc/1HS2_5_fmo_input.F40.007
-rw-r--r-- 1 hazwong frank 20332544 Nov 18 01:18 /scratch/hazwong/638761/1HS2_5/usrc/1HS2_5_fmo_input.F40.008
-rw-r--r-- 1 hazwong frank 20332544 Nov 18 01:18 /scratch/hazwong/638761/1HS2_5/usrc/1HS2_5_fmo_input.F40.009
-rw-r--r-- 1 hazwong frank 20332544 Nov 18 01:18 /scratch/hazwong/638761/1HS2_5/usrc/1HS2_5_fmo_input.F40.010
-rw-r--r-- 1 hazwong frank 20332544 Nov 18 01:18 /scratch/hazwong/638761/1HS2_5/usrc/1HS2_5_fmo_input.F40.011
-rw-r--r-- 1 hazwong frank 20332544 Nov 18 01:18 /scratch/hazwong/638761/1HS2_5/usrc/1HS2_5_fmo_input.F40.012
-rw-r--r-- 1 hazwong frank 20332544 Nov 18 01:18 /scratch/hazwong/638761/1HS2_5/usrc/1HS2_5_fmo_input.F40.013
-rw-r--r-- 1 hazwong frank 20332544 Nov 18 01:18 /scratch/hazwong/638761/1HS2_5/usrc/1HS2_5_fmo_input.F40.014
-rw-r--r-- 1 hazwong frank 20332544 Nov 18 01:18 /scratch/hazwong/638761/1HS2_5/usrc/1HS2_5_fmo_input.F40.015
Mon Nov 18 07:39:56 EST 2019
0.190u 0.089s 10:08:58.78 0.0%	0+0k 1048+136io 18pf+0w
