----- GAMESS execution script 'rungms' -----
This job is running on host gollum072.lsa.umich.edu
under operating system Linux at Sun Dec 8 09:10:00 EST 2019
Available scratch disk space (Kbyte units) at beginning of the job is
Filesystem     1K-blocks     Used Available Use% Mounted on
/dev/sda4      426933580 21618684 405314896   6% /scratch
GAMESS temporary binary files will be written to /scratch/hazwong/826673/1HS2_6/usrc
GAMESS supplementary output files will be written to /scratch/hazwong/826673/1HS2_6/src
Copying input file 1HS2_6_fmo_input.inp to your run's scratch directory...
This is a GDDI run, keeping various output files on local disks
 
Assuming a single but multicore node.
 

 Distributed Data Interface kickoff program.
 Initiating 16 compute processes on 1 nodes to run the following command:
 /export/apps/CentOS7/gamess/src/build//gamess.R3.x 1HS2_6_fmo_input 

          ******************************************************
          *         GAMESS VERSION = 30 SEP 2018 (R3)         *
          *             FROM IOWA STATE UNIVERSITY             *
          * M.W.SCHMIDT, K.K.BALDRIDGE, J.A.BOATZ, S.T.ELBERT, *
          *   M.S.GORDON, J.H.JENSEN, S.KOSEKI, N.MATSUNAGA,   *
          *          K.A.NGUYEN, S.J.SU, T.L.WINDUS,           *
          *       TOGETHER WITH M.DUPUIS, J.A.MONTGOMERY       *
          *         J.COMPUT.CHEM.  14, 1347-1363(1993)        *
          **************** 64 BIT LINUX VERSION ****************

  SINCE 1993, STUDENTS AND POSTDOCS WORKING AT IOWA STATE UNIVERSITY
  AND ALSO IN THEIR VARIOUS JOBS AFTER LEAVING ISU HAVE MADE IMPORTANT
  CONTRIBUTIONS TO THE CODE:
     IVANA ADAMOVIC, CHRISTINE AIKENS, YURI ALEXEEV, POOJA ARORA,
     ANDREY ASADCHEV, ROB BELL, PRADIPTA BANDYOPADHYAY, JONATHAN BENTZ,
     BRETT BODE, KURT BRORSEN, CALEB CARLIN, GALINA CHABAN, WEI CHEN,
     CHEOL HO CHOI, PAUL DAY, ALBERT DEFUSCO, NUWAN DESILVA, TIM DUDLEY,
     DMITRI FEDOROV, ALEX FINDLATER, GRAHAM FLETCHER, MARK FREITAG,
     KURT GLAESEMANN, ANASTASIA GUNINA,
     DAN KEMP, GRANT MERRILL, NORIYUKI MINEZAWA, JONATHAN MULLIN,
     TAKESHI NAGATA, SEAN NEDD, HEATHER NETZLOFF, BOSILJKA NJEGIC, RYAN OLSON,
     MIKE PAK, BUU PHAM,
     SPENCER PRUITT, LUKE ROSKOP, JIM SHOEMAKER, LYUDMILA SLIPCHENKO,
     TONY SMITH, SAROM SOK LEANG, JIE SONG, TETSUYA TAKETSUGU, SIMON WEBB,
     PENG XU, SOOHAENG YOO, FEDERICO ZAHARIEV

  ADDITIONAL CODE HAS BEEN PROVIDED BY COLLABORATORS IN OTHER GROUPS:
     IOWA STATE UNIVERSITY:
          JOE IVANIC, AARON WEST, LAIMUTIS BYTAUTAS, KLAUS RUEDENBERG
     UNIVERSITY OF TOKYO: KIMIHIKO HIRAO, TAKAHITO NAKAJIMA,
          TAKAO TSUNEDA, MUNEAKI KAMIYA, SUSUMU YANAGISAWA,
          KIYOSHI YAGI, MAHITO CHIBA, SEIKEN TOKURA, NAOAKI KAWAKAMI
     UNIVERSITY OF AARHUS: FRANK JENSEN
     UNIVERSITY OF IOWA: VISVALDAS KAIRYS, HUI LI
     NATIONAL INST. OF STANDARDS AND TECHNOLOGY: WALT STEVENS, DAVID GARMER
     UNIVERSITY OF PISA: BENEDETTA MENNUCCI, JACOPO TOMASI
     UNIVERSITY OF MEMPHIS: HENRY KURTZ, PRAKASHAN KORAMBATH
     UNIVERSITY OF ALBERTA: TOBY ZENG, MARIUSZ KLOBUKOWSKI
     UNIVERSITY OF NEW ENGLAND: MARK SPACKMAN
     MIE UNIVERSITY: HIROAKI UMEDA
     NAT. INST. OF ADVANCED INDUSTRIAL SCIENCE AND TECHNOLOGY: KAZUO KITAURA
     MICHIGAN STATE UNIVERSITY:
          KAROL KOWALSKI, MARTA WLOCH, JEFFREY GOUR, JESSE LUTZ,
          WEI LI, JUN SHEN, J. EMILIANO DEUSTUA, PIOTR PIECUCH
     UNIVERSITY OF MINNESOTA:
          YINAN SHU
     UNIVERSITY OF SILESIA: MONIKA MUSIAL, STANISLAW KUCHARSKI
     FACULTES UNIVERSITAIRES NOTRE-DAME DE LA PAIX:
          OLIVIER QUINET, BENOIT CHAMPAGNE
     UNIVERSITY OF CALIFORNIA - SANTA BARBARA: BERNARD KIRTMAN
     INSTITUTE FOR MOLECULAR SCIENCE:
          KAZUYA ISHIMURA, MICHIO KATOUDA, AND SHIGERU NAGASE
     UNIVERSITY OF NOTRE DAME: ANNA POMOGAEVA, DAN CHIPMAN
     KYUSHU UNIVERSITY:
          HARUYUKI NAKANO,
          FENG LONG GU, JACEK KORCHOWIEC, MARCIN MAKOWSKI, AND YURIKO AOKI,
          HIROTOSHI MORI AND EISAKU MIYOSHI
     PENNSYLVANIA STATE UNIVERSITY:
          TZVETELIN IORDANOV, CHET SWALINA, JONATHAN SKONE,
          SHARON HAMMES-SCHIFFER
     WASEDA UNIVERSITY:
          MASATO KOBAYASHI, TOMOKO AKAMA, TSUGUKI TOUMA,
          TAKESHI YOSHIKAWA, YASUHIRO IKABATA, JUNJI SEINO,
          YUYA NAKAJIMA, HIROMI NAKAI
     NANJING UNIVERSITY: SHUHUA LI
     UNIVERSITY OF NEBRASKA:
          PEIFENG SU, DEJUN SI, NANDUN THELLAMUREGE, YALI WANG, HUI LI
     UNIVERSITY OF ZURICH: ROBERTO PEVERATI, KIM BALDRIDGE
     N. COPERNICUS UNIVERSITY AND JACKSON STATE UNIVERSITY:
          MARIA BARYSZ
     UNIVERSITY OF COPENHAGEN: Jimmy Kromann, CASPER STEINMANN
     TOKYO INSTITUTE OF TECHNOLOGY: HIROYA NAKATA
     NAGOYA UNIVERSITY: YOSHIO NISHIMOTO, STEPHAN IRLE
     MOSCOW STATE UNIVERSITY: VLADIMIR MIRONOV


 PARALLEL VERSION RUNNING ON       16 PROCESSORS IN        1 NODES.

 EXECUTION OF GAMESS BEGUN Sun Dec  8 09:10:00 2019

            ECHO OF THE FIRST FEW INPUT CARDS -
 INPUT CARD>!*** FMO 5.3 (Gamess) INPUT generated by Facio 22.1.1.32 ***                    
 INPUT CARD> $CONTRL RUNTYP=ENERGY NPRINT=-5 ISPHER=1 MAXIT=200 $END                        
 INPUT CARD> $SYSTEM MWORDS=63 MEMDDI=63 $END                                               
 INPUT CARD> $GDDI NGROUP=1 $END                                                            
 INPUT CARD> $SCF DIRSCF=.TRUE. NPUNCH=0 $END                                               
 INPUT CARD>!*** NumCPU : 2  MemPerNode : 512MB                                             
 INPUT CARD> $PCM SOLVNT=WATER IEF=-10 ICOMP=2 ICAV=1 IDISP=1 IFMO=-1 $END                  
 INPUT CARD> $PCMCAV RADII=SUAHF $END                                                       
 INPUT CARD> $TESCAV NTSALL=60 $END                                                         
 INPUT CARD> $FMOPRP                                                                        
 INPUT CARD>    NAODIR=200                                                                  
 INPUT CARD>    NGRFMO(1)=1, 1, 0, 0, 0,   0, 0, 0, 0, 0                                    
 INPUT CARD>    IPIEDA=1                                                                    
 INPUT CARD>    NPRINT=9                                                                    
 INPUT CARD> $END                                                                           
 INPUT CARD> $FMO                                                                           
 INPUT CARD>      SCFTYP(1)=RHF                                                             
 INPUT CARD>      MODGRD=10                                                                 
 INPUT CARD>      MODMUL=0                                                                  
 INPUT CARD>      MAXCAO=5                                                                  
 INPUT CARD>      MAXBND=12                                                                 
 INPUT CARD>      NLAYER=1                                                                  
 INPUT CARD>      MPLEVL(1)=2                                                               
 INPUT CARD>      NFRAG=10                                                                  
 INPUT CARD>      ICHARG(1)=-1, -1, -1, -1, -1, -1, -1, -1, -1, 0                           
 INPUT CARD>      FRGNAM(1)=F1, F2, F3, F4, F5, F6, F7, F8, F9, F10                         
 INPUT CARD>      indat(1)=0                                                                
 INPUT CARD>               1   -33   0                                                      
 INPUT CARD>               34   -67   0                                                     
 INPUT CARD>               68   -97   0                                                     
 INPUT CARD>               98   -127   0                                                    
 INPUT CARD>               128   -160   0                                                   
 INPUT CARD>               161   -193   0                                                   
 INPUT CARD>               194   -227   0                                                   
 INPUT CARD>               228   -257   0                                                   
 INPUT CARD>               258   -288   0                                                   
 INPUT CARD>               289   -319   0                                                   
 INPUT CARD> $END                                                                           
 INPUT CARD>                                                                                
 INPUT CARD> $FMOBND                                                                        
 INPUT CARD>   -34   33       6-31G*    MINI                                                
 INPUT CARD>   -68   67       6-31G*    MINI                                                
 INPUT CARD>   -98   97       6-31G*    MINI                                                
 INPUT CARD>   -128   127       6-31G*    MINI                                              
 INPUT CARD>   -161   160       6-31G*    MINI                                              
 INPUT CARD>   -194   193       6-31G*    MINI                                              
 INPUT CARD>   -228   227       6-31G*    MINI                                              
 INPUT CARD>   -258   257       6-31G*    MINI                                              
 INPUT CARD>   -289   288       6-31G*    MINI                                              
 INPUT CARD> $END                                                                           


 -------------------------------------------------------------
 GROUP DDI, PROGRAMMED BY: RYAN M. OLSON AND DMITRI G. FEDOROV
        FEDOROV ET AL., J. COMPUT. CHEM., 25 (2004) 872.
 -------------------------------------------------------------

 -------------------------------------------------------
 GDDI: INITIALIZATION COMPLETED FOR GROUP     1 OF     1
 WITH    16 PROCESSES BALTYP=DLB   global rank=        0
 -------------------------------------------------------

   63000000 WORDS OF MEMORY AVAILABLE


     RUN TITLE
     ---------
  FMO calculation                                                                

 THE POINT GROUP OF THE MOLECULE IS C1      
 THE ORDER OF THE PRINCIPAL AXIS IS     0

 ATOM   ATOMIC CHARGE
 H.1-1       1.0
 O.1-1       8.0
 C.1-1       6.0
 N.1-1       7.0
 P.1-1      15.0

     ATOMIC BASIS SET LIBRARY
     ----------------
 THE CONTRACTED PRIMITIVE FUNCTIONS HAVE BEEN UNNORMALIZED
 THE CONTRACTED BASIS FUNCTIONS ARE NOW NORMALIZED TO UNITY

  SHELL TYPE  PRIMITIVE        EXPONENT          CONTRACTION COEFFICIENT(S)

 H.1-1     

      1   S       1            18.7311370    0.033494604338
      1   S       2             2.8253944    0.234726953484
      1   S       3             0.6401217    0.813757326146

      2   S       4             0.1612778    1.000000000000

 O.1-1     

      3   S       5          5484.6716600    0.001831074430
      3   S       6           825.2349460    0.013950172200
      3   S       7           188.0469580    0.068445078098
      3   S       8            52.9645000    0.232714335992
      3   S       9            16.8975704    0.470192897984
      3   S      10             5.7996353    0.358520852987

      4   L      11            15.5396162   -0.110777549525    0.070874268231
      4   L      12             3.5999336   -0.148026262701    0.339752839147
      4   L      13             1.0137618    1.130767015354    0.727158577316

      5   L      14             0.2700058    1.000000000000    1.000000000000

      6   D      15             0.8000000    1.000000000000

 C.1-1     

      7   S      16          3047.5248800    0.001834737132
      7   S      17           457.3695180    0.014037322813
      7   S      18           103.9486850    0.068842622264
      7   S      19            29.2101553    0.232184443216
      7   S      20             9.2866630    0.467941348435
      7   S      21             3.1639270    0.362311985337

      8   L      22             7.8682723   -0.119332419775    0.068999066591
      8   L      23             1.8812885   -0.160854151696    0.316423960957
      8   L      24             0.5442493    1.143456437840    0.744308290898

      9   L      25             0.1687145    1.000000000000    1.000000000000

     10   D      26             0.8000000    1.000000000000

 N.1-1     

     11   S      27          4173.5114600    0.001834772160
     11   S      28           627.4579110    0.013994627002
     11   S      29           142.9020930    0.068586551812
     11   S      30            40.2343293    0.232240873040
     11   S      31            12.8202129    0.469069948082
     11   S      32             4.3904370    0.360455199063

     12   L      33            11.6263619   -0.114961181702    0.067579743878
     12   L      34             2.7162798   -0.169117478561    0.323907295893
     12   L      35             0.7722184    1.145851947027    0.740895139755

     13   L      36             0.2120315    1.000000000000    1.000000000000

     14   D      37             0.8000000    1.000000000000

 P.1-1     

     15   S      38         19413.3000000    0.001851598923
     15   S      39          2909.4200000    0.014206191735
     15   S      40           661.3640000    0.069999459277
     15   S      41           185.7590000    0.240078860331
     15   S      42            59.1943000    0.484761717984
     15   S      43            20.0310000    0.335199804993

     16   L      44           339.4780000   -0.002782170105    0.004564616191
     16   L      45            81.0101000   -0.036049901354    0.033693571881
     16   L      46            25.8780000   -0.116631004382    0.139754883368
     16   L      47             9.4522100    0.096832803638    0.339361716786
     16   L      48             3.6656600    0.614418023082    0.450920623685
     16   L      49             1.4674600    0.403798015170    0.238585800889

     17   L      50             2.1562300   -0.252924113863   -0.017765312733
     17   L      51             0.7489970    0.032851844678    0.274058196433
     17   L      52             0.2831450    1.081254761783    0.785421562957

     18   L      53             0.0998317    1.000000000000    1.000000000000

     19   D      54             0.5500000    1.000000000000

 TOTAL NUMBER OF BASIS SET SHELLS             =   19
 NUMBER OF CARTESIAN GAUSSIAN BASIS FUNCTIONS =   66

     $CONTRL OPTIONS
     ---------------
 SCFTYP=RHF          RUNTYP=ENERGY       EXETYP=RUN     
 MPLEVL=       0     CITYP =NONE         CCTYP =NONE         VBTYP =NONE    
 DFTTYP=NONE         TDDFT =NONE    
 MULT  =       1     ICHARG=       0     NZVAR =       0     COORD =UNIQUE  
 PP    =NONE         RELWFN=NONE         LOCAL =NONE         NUMGRD=       F
 ISPHER=       1     NOSYM =       0     MAXIT =     200     UNITS =ANGS    
 PLTORB=       F     MOLPLT=       F     AIMPAC=       F     FRIEND=        
 NPRINT=      -5     IREST =       0     GEOM  =INPUT   
 NORMF =       0     NORMP =       0     ITOL  =      24     ICUT  =      12
 INTTYP=BEST         GRDTYP=BEST         QMTTOL= 1.0E-06

     $SYSTEM OPTIONS
     ---------------
  REPLICATED MEMORY=    63000000 WORDS (ON EVERY NODE).
 DISTRIBUTED MEMDDI=          63 MILLION WORDS IN AGGREGATE,
 MEMDDI DISTRIBUTED OVER  16 PROCESSORS IS     3937500 WORDS/PROCESSOR.
 TOTAL MEMORY REQUESTED ON EACH PROCESSOR=    66937500 WORDS.
 TIMLIM=      525600.00 MINUTES, OR     365.0 DAYS.
 PARALL= T  BALTYP=  DLB     KDIAG=    0  COREFL= F
 MXSEQ2=     300 MXSEQ3=     150  mem10=         0

 ** LOOKING UP INTERNALLY STORED DATA FOR SOLVENT=WATER    **
 OPTICAL AND PHYSICAL CONSTANTS:
 EPS= 78.390; EPSINF=  1.776; RSOLV=  1.385 A; VMOL=  18.070 ML/MOL;
 TCE= .25700E-03 1/K; STEN= 71.810 DYN/CM;  DSTEN=  0.6500; CMF=  1.2770


     -----------------------------------
     INPUT FOR PCM SOLVATION CALCULATION 
     -----------------------------------
     IEF   =     -10
     ICOMP =       2     IFIELD=       0     ICAV  =       1
     IDISP =       1     IREP  =       0     IDP   =       0

     SOLVNT=WATER        EPS   = 78.3900     EPSINF=  1.7760
     VMOL  = 18.0700     TCE   =  0.00025700 STEN  = 71.8100
     DSTEN =  0.6500     CMF   =  1.2770     RSOLV =  1.3850

     NESFP =       0
     OMEGA = 40.0000     RET   =100.0000     FRO   =  0.7000

     TABS  =298.0000     IPRINT=       0

     --------------------------------
     INPUT FOR ITERATIVE C-PCM METHOD 
     --------------------------------
     IPCMIT  =         1     MXDIIS  =        50
     MXITR1  =       200     MXITR2  =       200
     THRES   = 0.100E-09     IMUL    =         3
     RCUT(1) =   20.0000     RCUT(2) =   50.0000

     IDIRCT  =         1
     IMGABI  =         0     RABI    =    4.0000
     IMGASC  =         0     RASC    =   20.0000
     THRSLS  = 0.500E-03     DENSLS  =    0.0100
     IEFPOL  =         1     REFPOL  =    0.0000

     INPUT FOR ISOTROPIC DIELECTRICS
     -------------------------------
     EPS=    78.39

          ----------------
          PROPERTIES INPUT
          ----------------

     MOMENTS            FIELD           POTENTIAL          DENSITY
 IEMOM =       1   IEFLD =       0   IEPOT =       0   IEDEN =       0
 WHERE =COMASS     WHERE =NUCLEI     WHERE =NUCLEI     WHERE =NUCLEI  
 OUTPUT=BOTH       OUTPUT=BOTH       OUTPUT=NONE       OUTPUT=BOTH    
 IEMINT=       0   IEFINT=       0                     IEDINT=       0
                                                       MORB  =       0
          EXTRAPOLATION IN EFFECT
          SOSCF IN EFFECT
 ORBITAL PRINTING OPTION: NPREO=     1 32767     2     1

     -------------------------------
     INTEGRAL TRANSFORMATION OPTIONS
     -------------------------------
     NWORD  =            0
     CUTOFF = 1.0E-10     MPTRAN =       0
     DIRTRF =       T     AOINTS =DUP     

          ----------------------
          INTEGRAL INPUT OPTIONS
          ----------------------
 NOPK  =       1 NORDER=       0 SCHWRZ=       T

 ..... DONE SETTING UP THE RUN .....
 CPU     0: STEP CPU TIME=     0.03 TOTAL CPU TIME=          0.0 (      0.0 MIN)
 TOTAL WALL CLOCK TIME=          0.1 SECONDS, CPU UTILIZATION IS    57.14%
 CPU     0: STEP CPU TIME=     0.00 TOTAL CPU TIME=          0.0 (      0.0 MIN)
 TOTAL WALL CLOCK TIME=          0.1 SECONDS, CPU UTILIZATION IS    57.14%

                    ----------------------
                    AO INTEGRAL TECHNOLOGY
                    ----------------------
     S,P,L SHELL ROTATED AXIS INTEGRALS, REPROGRAMMED BY
        KAZUYA ISHIMURA (IMS) AND JOSE SIERRA (SYNSTAR).
     S,P,D,L SHELL ROTATED AXIS INTEGRALS PROGRAMMED BY
        KAZUYA ISHIMURA (INSTITUTE FOR MOLECULAR SCIENCE).
     S,P,D,F,G SHELL TO TOTAL QUARTET ANGULAR MOMENTUM SUM 5,
        ERIC PROGRAM BY GRAHAM FLETCHER (ELORET AND NASA ADVANCED
        SUPERCOMPUTING DIVISION, AMES RESEARCH CENTER).
     S,P,D,F,G,L SHELL GENERAL RYS QUADRATURE PROGRAMMED BY
        MICHEL DUPUIS (PACIFIC NORTHWEST NATIONAL LABORATORY).
 Setting modorb=1 flag...
 Setting modorb=1 flag...

          -----------------------
          MP2 CONTROL INFORMATION
          -----------------------
          NACORE =        8  NBCORE =        8
          LMOMP2 =        F  AOINTS = DUP     
          METHOD =        2  NWORD  =               0
          MP2PRP =        F  OSPT   = NONE    
          CUTOFF = 1.00E-12  CPHFBS = BASISAO 
          CODE   = IMS     

          NUMBER OF CORE -A-  ORBITALS =     8
          NUMBER OF CORE -B-  ORBITALS =     8
          NUMBER OF OCC. -A-  ORBITALS =    18
          NUMBER OF OCC. -B-  ORBITALS =    18
          NUMBER OF MOLECULAR ORBITALS =    66
          NUMBER OF   BASIS  FUNCTIONS =    66

 CPU     0: STEP CPU TIME=     0.03 TOTAL CPU TIME=          0.1 (      0.0 MIN)
 TOTAL WALL CLOCK TIME=          0.1 SECONDS, CPU UTILIZATION IS    53.85%
 CPU     0: STEP CPU TIME=     0.00 TOTAL CPU TIME=          0.1 (      0.0 MIN)
 TOTAL WALL CLOCK TIME=          0.1 SECONDS, CPU UTILIZATION IS    53.85%

     INPUT FOR CAVITY DEFINITION 
     ---------------------------
   ATOM               COORDINATES                RADIUS       EPS
      1     11.1820     19.7120      6.1710      0.0100     78.3900
      2     11.3170     19.5610      7.1260      1.5900     78.3900
      3     10.0200     19.2970      7.6780      1.7700     78.3900
      4      9.6020     18.3740      7.2160      0.0100     78.3900
      5      9.3330     20.1400      7.4330      0.0100     78.3900
      6     10.0400     19.1230      9.1990      1.7700     78.3900
      7      9.0160     18.8890      9.5650      0.0100     78.3900
      8     10.9070     18.0200      9.6030      1.5900     78.3900
      9     11.4340     18.3080     10.8950      1.7700     78.3900
     10     11.0140     17.5240     11.5650      0.0100     78.3900
     11     12.9240     18.2590     10.9550      1.6800     78.3900
     12     13.6650     18.5740      9.8380      1.7700     78.3900
     13     13.0980     18.7950      8.9280      0.0100     78.3900
     14     15.0050     18.5670      9.8720      1.7700     78.3900
     15     15.6110     18.8100      9.0030      0.0100     78.3900
     16     13.5750     17.9730     12.1590      1.7700     78.3900
     17     12.9010     17.7370     13.1730      1.5900     78.3900
     18     14.9290     17.9480     12.2080      1.6800     78.3900
     19     15.6450     18.2490     11.1080      1.7700     78.3900
     20     16.9790     18.2490     11.1780      1.6800     78.3900
     21     17.4530     18.0500     12.0340      0.0100     78.3900
     22     17.5330     18.5420     10.4010      0.0100     78.3900
     23     10.8870     19.6610     11.3300      1.7700     78.3900
     24     11.6410     20.2600     11.8850      0.0100     78.3900
     25      9.7260     19.5020     12.1250      1.5900     78.3900
     26      9.4350     20.3980     12.3580      0.0100     78.3900
     27     10.5580     20.3260      9.9890      1.7700     78.3900
     28     11.4880     20.6650      9.4800      0.0100     78.3900
     29      9.5460     21.3620     10.0230      1.5900     78.3900
     30      9.9310     22.7950     10.5580      2.1000     78.3900
     31      8.7340     23.6590     10.5120      1.5900     78.3900
     32     11.1370     23.2740      9.8480      1.5900     78.3900
     33     10.2710     22.5380     12.0730      1.5900     78.3900
     34     11.1810     23.4030     12.7860      1.7700     78.3900
     35     10.7590     24.4320     12.8710      0.0100     78.3900
     36     12.1610     23.4680     12.2550      0.0100     78.3900
     37     11.4480     22.8660     14.2030      1.7700     78.3900
     38     10.5210     22.8600     14.8130      0.0100     78.3900
     39     11.9440     21.4920     14.1300      1.5900     78.3900
     40     13.0640     21.3470     14.9930      1.7700     78.3900
     41     12.9000     20.4290     15.6010      0.0100     78.3900
     42     14.3140     21.2120     14.2280      1.6800     78.3900
     43     15.5590     20.9450     14.7320      1.7700     78.3900
     44     17.6590     20.4000     17.4360      1.6800     78.3900
     45     17.0300     20.4570     18.2110      0.0100     78.3900
     46     18.6460     20.4290     17.6090      0.0100     78.3900
     47     15.8630     20.7520     16.0270      1.6800     78.3900
     48     17.1650     20.5580     16.2230      1.7700     78.3900
     49     18.0670     20.4620     15.1990      1.6800     78.3900
     50     19.0330     20.3230     15.4480      0.0100     78.3900
     51     17.7760     20.6100     13.8480      1.7700     78.3900
     52     18.6610     20.4960     12.9980      1.5900     78.3900
     53     16.4030     20.9100     13.6390      1.7700     78.3900
     54     15.7090     21.1900     12.4650      1.6800     78.3900
     55     14.4680     21.3400     12.8650      1.7700     78.3900
     56     13.6150     21.5560     12.2160      0.0100     78.3900
     57     13.0880     22.5600     15.8950      1.7700     78.3900
     58     14.1100     22.8170     16.2500      0.0100     78.3900
     59     12.2260     22.3650     17.0030      1.5900     78.3900
     60     12.0990     23.2250     17.4310      0.0100     78.3900
     61     12.5520     23.6300     14.9600      1.7700     78.3900
     62     13.3260     23.8950     14.2010      0.0100     78.3900
     63     12.0050     24.7820     15.6370      1.5900     78.3900
     64     12.8610     26.0970     15.7510      2.1000     78.3900
     65     12.1720     27.0350     16.6690      1.5900     78.3900
     66     13.1380     26.5960     14.3890      1.5900     78.3900
     67     14.2300     25.6220     16.3660      1.5900     78.3900
     68     14.3880     25.3520     17.7730      1.7700     78.3900
     69     13.7350     24.5090     18.0990      0.0100     78.3900
     70     14.1210     26.2510     18.3750      0.0100     78.3900
     71     15.8420     24.9840     18.1150      1.7700     78.3900
     72     15.9210     24.7490     19.1970      0.0100     78.3900
     73     16.2730     23.7950     17.3920      1.5900     78.3900
     74     17.6780     23.8770     17.1640      1.7700     78.3900
     75     18.1290     23.0150     17.7080      0.0100     78.3900
     76     18.0300     23.8040     15.7150      1.6800     78.3900
     77     17.1010     24.1080     14.7450      1.7700     78.3900
     78     16.1010     24.3550     15.1140      0.0100     78.3900
     79     19.3330     23.4930     15.3740      1.7700     78.3900
     80     20.2140     23.3010     16.1970      1.5900     78.3900
     81     19.5780     23.4220     14.0240      1.6800     78.3900
     82     20.4940     23.1140     13.7360      0.0100     78.3900
     83     18.6990     23.7000     13.0030      1.7700     78.3900
     84     19.0750     23.6440     11.8360      1.5900     78.3900
     85     17.3830     24.0650     13.4340      1.7700     78.3900
     86     16.6350     24.2890     12.6750      0.0100     78.3900
     87     18.1650     25.1620     17.8020      1.7700     78.3900
     88     18.9970     25.6330     17.2340      0.0100     78.3900
     89     18.5810     24.9120     19.1320      1.5900     78.3900
     90     18.8630     25.7630     19.4900      0.0100     78.3900
     91     16.9110     26.0290     17.7670      1.7700     78.3900
     92     16.6920     26.3760     16.7320      0.0100     78.3900
     93     16.8930     27.1050     18.7280      1.5900     78.3900
     94     17.6130     28.4610     18.3730      2.1000     78.3900
     95     17.4530     29.3880     19.5170      1.5900     78.3900
     96     17.1230     28.9450     17.0640      1.5900     78.3900
     97     19.1330     28.0840     18.2100      1.5900     78.3900
     98     20.0110     27.9600     19.3520      1.7700     78.3900
     99     19.7280     27.0910     19.9860      0.0100     78.3900
    100     19.9570     28.8770     19.9890      0.0100     78.3900
    101     21.4810     27.7890     18.9220      1.7700     78.3900
    102     22.1380     27.7280     19.8170      0.0100     78.3900
    103     21.6880     26.5760     18.1480      1.5900     78.3900
    104     22.8350     26.7450     17.3170      1.7700     78.3900
    105     23.6100     26.0710     17.7490      0.0100     78.3900
    106     22.5750     26.3670     15.8970      1.6800     78.3900
    107     21.3380     26.5620     15.3430      1.7700     78.3900
    108     20.5840     26.9540     16.0310      0.0100     78.3900
    109     23.6310     25.9270     15.1260      1.7700     78.3900
    110     24.7660     25.8270     15.5710      1.5900     78.3900
    111     23.3200     25.5910     13.8290      1.6800     78.3900
    112     24.1030     25.3070     13.2470      0.0100     78.3900
    113     22.0920     25.7310     13.2170      1.7700     78.3900
    114     21.9410     25.3930     12.0450      1.5900     78.3900
    115     21.0630     26.2670     14.0630      1.7700     78.3900
    116     20.0690     26.4250     13.6450      0.0100     78.3900
    117     23.2870     28.2010     17.4520      1.7700     78.3900
    118     23.5580     28.6510     16.4750      0.0100     78.3900
    119     24.3930     28.2890     18.3370      1.5900     78.3900
    120     25.1270     27.7520     17.9910      0.0100     78.3900
    121     22.0290     28.8780     18.0190      1.7700     78.3900
    122     21.2750     29.0130     17.2080      0.0100     78.3900
    123     22.2340     30.0790     18.7890      1.5900     78.3900
    124     22.3390     31.4560     18.0440      2.1000     78.3900
    125     22.3290     32.5350     19.0580      1.5900     78.3900
    126     21.3060     31.5170     16.9860      1.5900     78.3900
    127     23.7530     31.4210     17.3670      1.5900     78.3900
    128     24.1100     32.4800     16.4530      1.7700     78.3900
    129     24.0360     33.4750     16.9620      0.0100     78.3900
    130     23.4270     32.4740     15.5720      0.0100     78.3900
    131     25.5380     32.2640     15.9300      1.7700     78.3900
    132     25.8120     33.0490     15.1930      0.0100     78.3900
    133     26.4910     32.3530     17.0280      1.5900     78.3900
    134     27.5740     31.4670     16.7790      1.7700     78.3900
    135     28.4830     32.1070     16.7190      0.0100     78.3900
    136     27.7640     30.5020     17.8630      1.6800     78.3900
    137     28.6790     29.0610     19.2470      1.7700     78.3900
    138     27.4200     29.3420     19.7560      1.6800     78.3900
    139     26.9120     30.1960     18.8970      1.7700     78.3900
    140     25.9170     30.6460     18.9620      0.0100     78.3900
    141     30.8570     28.1810     18.9580      1.6800     78.3900
    142     30.8970     28.8600     17.8080      1.7700     78.3900
    143     31.8160     28.7440     17.2260      0.0100     78.3900
    144     29.9890     29.6950     17.2930      1.6800     78.3900
    145     28.8940     29.7520     18.0700      1.7700     78.3900
    146     29.7440     28.2710     19.7260      1.7700     78.3900
    147     29.7260     27.6490     20.9160      1.6800     78.3900
    148     28.8920     27.5940     21.4680      0.0100     78.3900
    149     30.4700     27.0160     21.1370      0.0100     78.3900
    150     27.3410     30.8060     15.4370      1.7700     78.3900
    151     27.6880     29.7500     15.4130      0.0100     78.3900
    152     27.9940     31.5500     14.4240      1.5900     78.3900
    153     27.6670     31.2190     13.5760      0.0100     78.3900
    154     25.8230     30.8860     15.3000      1.7700     78.3900
    155     25.3330     30.1200     15.9470      0.0100     78.3900
    156     25.3440     30.8530     13.9390      1.5900     78.3900
    157     24.9440     29.4810     13.2590      2.1000     78.3900
    158     24.7060     29.7880     11.8240      1.5900     78.3900
    159     23.7860     28.9160     13.9790      1.5900     78.3900
    160     26.2080     28.5660     13.4550      1.5900     78.3900
    161     27.3550     28.6610     12.5890      1.7700     78.3900
    162     27.8070     29.6780     12.6080      0.0100     78.3900
    163     27.0760     28.4390     11.5360      0.0100     78.3900
    164     28.4170     27.6290     12.9730      1.7700     78.3900
    165     29.2460     27.6430     12.2290      0.0100     78.3900
    166     29.0210     27.9210     14.2690      1.5900     78.3900
    167     29.3520     26.6880     14.8960      1.7700     78.3900
    168     30.4470     26.7250     15.0860      0.0100     78.3900
    169     28.6250     26.4990     16.1540      1.6800     78.3900
    170     28.0420     25.8360     18.1650      1.7700     78.3900
    171     26.9610     26.5610     17.6720      1.6800     78.3900
    172     27.3490     26.9100     16.4670      1.7700     78.3900
    173     26.7500     27.4850     15.7530      0.0100     78.3900
    174     29.4550     24.5540     19.5790      1.6800     78.3900
    175     30.3730     24.6520     18.6130      1.7700     78.3900
    176     31.3330     24.1720     18.8320      0.0100     78.3900
    177     30.2900     25.2350     17.4140      1.6800     78.3900
    178     29.0780     25.8010     17.2460      1.7700     78.3900
    179     28.2480     25.1500     19.3800      1.7700     78.3900
    180     27.3180     25.0720     20.3490      1.6800     78.3900
    181     26.3870     25.4010     20.1980      0.0100     78.3900
    182     27.4790     24.4750     21.1350      0.0100     78.3900
    183     29.0510     25.5710     13.9120      1.7700     78.3900
    184     28.6990     24.6420     14.4140      0.0100     78.3900
    185     30.1900     25.2910     13.1150      1.5900     78.3900
    186     29.9300     24.6120     12.4780      0.0100     78.3900
    187     27.9220     26.1890     13.0910      1.7700     78.3900
    188     26.9740     26.2030     13.6800      0.0100     78.3900
    189     27.7500     25.6480     11.7730      1.5900     78.3900
    190     26.7370     24.4850     11.4930      2.1000     78.3900
    191     26.8980     24.1200     10.0640      1.5900     78.3900
    192     25.3820     24.8940     11.9430      1.5900     78.3900
    193     27.2630     23.3170     12.3910      1.5900     78.3900
    194     28.4800     22.5930     12.1290      1.7700     78.3900
    195     29.1640     22.7850     12.9770      0.0100     78.3900
    196     29.0020     22.9340     11.2010      0.0100     78.3900
    197     28.2150     21.0790     12.0250      1.7700     78.3900
    198     27.7080     20.6960     12.9370      0.0100     78.3900
    199     27.3160     20.8510     10.9020      1.5900     78.3900
    200     27.6740     19.6700     10.2100      1.7700     78.3900
    201     26.7800     19.0080     10.2590      0.0100     78.3900
    202     27.9710     19.9370      8.7940      1.6800     78.3900
    203     27.8230     19.0530      7.7540      1.7700     78.3900
    204     26.9150     15.9200      6.5520      1.6800     78.3900
    205     26.9040     15.4350      5.6780      0.0100     78.3900
    206     26.7510     15.4110      7.3960      0.0100     78.3900
    207     27.3990     17.7750      7.8510      1.6800     78.3900
    208     27.2970     17.1830      6.6580      1.7700     78.3900
    209     27.5710     17.8180      5.4750      1.6800     78.3900
    210     27.4880     17.2970      4.6200      0.0100     78.3900
    211     27.9970     19.1350      5.3460      1.7700     78.3900
    212     28.2110     19.6280      4.2340      1.5900     78.3900
    213     28.1510     19.7650      6.6140      1.7700     78.3900
    214     28.5370     21.0680      6.9360      1.6800     78.3900
    215     28.4110     21.1220      8.2440      1.7700     78.3900
    216     28.5920     22.0020      8.8670      0.0100     78.3900
    217     28.8240     19.0140     10.9470      1.7700     78.3900
    218     29.5750     18.5720     10.2540      0.0100     78.3900
    219     28.3160     18.0110     11.8100      1.5900     78.3900
    220     29.0210     17.7990     12.4440      0.0100     78.3900
    221     29.4400     20.1810     11.7240      1.7700     78.3900
    222     30.1140     20.7590     11.0530      0.0100     78.3900
    223     30.1430     19.7330     12.8990      1.5900     78.3900
    224     30.7390     20.6320     14.0320      2.1000     78.3900
    225     31.4030     21.7960     13.4110      1.5900     78.3900
    226     31.5890     19.7800     14.8890      1.5900     78.3900
    227     29.4870     21.1030     14.8680      1.5900     78.3900
    228     29.7290     21.9550     16.0150      1.7700     78.3900
    229     30.0850     22.9610     15.6890      0.0100     78.3900
    230     30.5030     21.5100     16.6850      0.0100     78.3900
    231     28.4700     22.1440     16.8710      1.7700     78.3900
    232     28.7350     22.6240     17.8360      0.0100     78.3900
    233     27.5130     23.0280     16.2250      1.5900     78.3900
    234     26.2350     22.7880     16.8030      1.7700     78.3900
    235     26.0280     23.6970     17.4160      0.0100     78.3900
    236     25.1550     22.5910     15.7970      1.6800     78.3900
    237     25.4230     22.1170     14.5360      1.7700     78.3900
    238     26.4830     21.9590     14.3170      0.0100     78.3900
    239     23.8590     22.8210     16.2050      1.7700     78.3900
    240     23.5660     23.1420     17.3480      1.5900     78.3900
    241     22.9040     22.6510     15.2390      1.6800     78.3900
    242     21.9710     22.8530     15.5620      0.0100     78.3900
    243     23.1020     22.2740     13.9270      1.7700     78.3900
    244     22.1450     22.2430     13.1540      1.5900     78.3900
    245     24.4630     21.9450     13.6090      1.7700     78.3900
    246     24.7070     21.6270     12.5980      0.0100     78.3900
    247     26.3710     21.5740     17.7080      1.7700     78.3900
    248     25.5050     20.8860     17.6100      0.0100     78.3900
    249     26.5190     21.9560     19.0620      1.5900     78.3900
    250     26.4760     21.1260     19.5540      0.0100     78.3900
    251     27.6390     20.9060     17.1810      1.7700     78.3900
    252     27.4470     20.4070     16.2060      0.0100     78.3900
    253     28.3320     20.0480     18.1190      1.5900     78.3900
    254     27.8250     18.5640     18.2870      2.1000     78.3900
    255     28.6250     17.8880     19.3330      1.5900     78.3900
    256     27.8200     17.8920     16.9670      1.5900     78.3900
    257     26.3290     18.6520     18.8020      1.5900     78.3900
    258     26.0840     18.8880     20.2120      1.7700     78.3900
    259     26.6620     19.7660     20.5930      0.0100     78.3900
    260     26.3810     17.9960     20.8100      0.0100     78.3900
    261     24.5970     19.1500     20.4830      1.7700     78.3900
    262     24.4440     19.4540     21.5400      0.0100     78.3900
    263     24.1060     20.2270     19.6380      1.5900     78.3900
    264     22.7310     20.0100     19.3710      1.7700     78.3900
    265     22.2120     20.8800     19.8360      0.0100     78.3900
    266     22.4040     19.9320     17.9220      1.6800     78.3900
    267     23.2650     19.2950     17.0580      1.7700     78.3900
    268     24.2230     18.9830     17.4820      0.0100     78.3900
    269     22.9490     19.1270     15.7640      1.7700     78.3900
    270     23.6200     18.6430     15.0580      0.0100     78.3900
    271     21.1550     20.3600     17.4700      1.7700     78.3900
    272     20.3480     20.8410     18.2790      1.5900     78.3900
    273     20.8260     20.2080     16.1650      1.6800     78.3900
    274     21.6670     19.5810     15.3260      1.7700     78.3900
    275     21.2790     19.3970     14.0630      1.6800     78.3900
    276     20.3990     19.7500     13.7480      0.0100     78.3900
    277     21.8450     18.9000     13.4000      0.0100     78.3900
    278     22.3210     18.7450     20.0950      1.7700     78.3900
    279     21.5650     18.1580     19.5340      0.0100     78.3900
    280     21.8270     19.0510     21.3840      1.5900     78.3900
    281     21.5790     18.2050     21.7750      0.0100     78.3900
    282     23.6430     17.9880     20.1820      1.7700     78.3900
    283     23.9430     17.5810     19.1900      0.0100     78.3900
    284     23.7130     16.9950     21.2290      1.5900     78.3900
    285     23.1510     15.5480     20.9560      2.1000     78.3900
    286     23.3540     14.7220     22.1650      1.5900     78.3900
    287     23.7270     15.0230     19.7000      1.5900     78.3900
    288     21.6060     15.7490     20.7230      1.5900     78.3900
    289     20.6990     15.9550     21.8270      1.7700     78.3900
    290     21.0120     16.8120     22.4700      0.0100     78.3900
    291     20.6690     15.0520     22.4830      0.0100     78.3900
    292     19.2700     16.2210     21.3280      1.7700     78.3900
    293     18.6060     16.4830     22.1820      0.0100     78.3900
    294     19.2220     17.3270     20.3800      1.5900     78.3900
    295     18.1480     17.0990     19.4680      1.7700     78.3900
    296     17.4330     17.9430     19.6060      0.0100     78.3900
    297     18.5950     17.0750     18.0640      1.6800     78.3900
    298     17.7850     17.2140     16.9630      1.7700     78.3900
    299     14.6380     17.7250     15.5730      1.6800     78.3900
    300     14.0550     17.7750     16.3830      0.0100     78.3900
    301     14.2200     17.8060     14.6670      0.0100     78.3900
    302     16.4460     17.3840     16.9800      1.6800     78.3900
    303     15.9320     17.5190     15.7560      1.7700     78.3900
    304     16.6910     17.4780     14.6160      1.6800     78.3900
    305     16.2120     17.5690     13.7370      0.0100     78.3900
    306     18.0690     17.2820     14.5690      1.7700     78.3900
    307     18.6600     17.2640     13.4860      1.5900     78.3900
    308     18.6250     17.1280     15.8700      1.7700     78.3900
    309     19.9390     16.9050     16.2730      1.6800     78.3900
    310     19.8720     16.8730     17.5850      1.7700     78.3900
    311     20.7130     16.7040     18.2620      0.0100     78.3900
    312     17.4770     15.7930     19.8620      1.7700     78.3900
    313     17.1370     15.2110     18.9750      0.0100     78.3900
    314     16.3760     16.0410     20.7250      1.5900     78.3900
    315     16.0570     15.1920     21.0740      0.0100     78.3900
    316     18.6220     15.0670     20.5630      1.7700     78.3900
    317     19.3640     14.6890     19.8260      0.0100     78.3900
    318     18.2060     14.0230     21.4590      1.5900     78.3900
    319     17.7800     13.3100     20.9540      0.0100     78.3900

     ----------------------------
     INPUT FOR TESSERA DEFINITION
     ----------------------------
     NTSALL  =        60     MTHALL  =         4
     MTHAUT  =         0     AUTFRE  =    2.0000
     NTSFRZ  =        60     KEEPSM  =         0
     AREAKP  =   10.0000     BONDRY  =    1.0000
     AREATL  =    0.0100

     SPHERE     INITS       METHOD
          1        60       FIXPVA
          2        60       FIXPVA
          3        60       FIXPVA
          4        60       FIXPVA
          5        60       FIXPVA
          6        60       FIXPVA
          7        60       FIXPVA
          8        60       FIXPVA
          9        60       FIXPVA
         10        60       FIXPVA
         11        60       FIXPVA
         12        60       FIXPVA
         13        60       FIXPVA
         14        60       FIXPVA
         15        60       FIXPVA
         16        60       FIXPVA
         17        60       FIXPVA
         18        60       FIXPVA
         19        60       FIXPVA
         20        60       FIXPVA
         21        60       FIXPVA
         22        60       FIXPVA
         23        60       FIXPVA
         24        60       FIXPVA
         25        60       FIXPVA
         26        60       FIXPVA
         27        60       FIXPVA
         28        60       FIXPVA
         29        60       FIXPVA
         30        60       FIXPVA
         31        60       FIXPVA
         32        60       FIXPVA
         33        60       FIXPVA
         34        60       FIXPVA
         35        60       FIXPVA
         36        60       FIXPVA
         37        60       FIXPVA
         38        60       FIXPVA
         39        60       FIXPVA
         40        60       FIXPVA
         41        60       FIXPVA
         42        60       FIXPVA
         43        60       FIXPVA
         44        60       FIXPVA
         45        60       FIXPVA
         46        60       FIXPVA
         47        60       FIXPVA
         48        60       FIXPVA
         49        60       FIXPVA
         50        60       FIXPVA
         51        60       FIXPVA
         52        60       FIXPVA
         53        60       FIXPVA
         54        60       FIXPVA
         55        60       FIXPVA
         56        60       FIXPVA
         57        60       FIXPVA
         58        60       FIXPVA
         59        60       FIXPVA
         60        60       FIXPVA
         61        60       FIXPVA
         62        60       FIXPVA
         63        60       FIXPVA
         64        60       FIXPVA
         65        60       FIXPVA
         66        60       FIXPVA
         67        60       FIXPVA
         68        60       FIXPVA
         69        60       FIXPVA
         70        60       FIXPVA
         71        60       FIXPVA
         72        60       FIXPVA
         73        60       FIXPVA
         74        60       FIXPVA
         75        60       FIXPVA
         76        60       FIXPVA
         77        60       FIXPVA
         78        60       FIXPVA
         79        60       FIXPVA
         80        60       FIXPVA
         81        60       FIXPVA
         82        60       FIXPVA
         83        60       FIXPVA
         84        60       FIXPVA
         85        60       FIXPVA
         86        60       FIXPVA
         87        60       FIXPVA
         88        60       FIXPVA
         89        60       FIXPVA
         90        60       FIXPVA
         91        60       FIXPVA
         92        60       FIXPVA
         93        60       FIXPVA
         94        60       FIXPVA
         95        60       FIXPVA
         96        60       FIXPVA
         97        60       FIXPVA
         98        60       FIXPVA
         99        60       FIXPVA
        100        60       FIXPVA
        101        60       FIXPVA
        102        60       FIXPVA
        103        60       FIXPVA
        104        60       FIXPVA
        105        60       FIXPVA
        106        60       FIXPVA
        107        60       FIXPVA
        108        60       FIXPVA
        109        60       FIXPVA
        110        60       FIXPVA
        111        60       FIXPVA
        112        60       FIXPVA
        113        60       FIXPVA
        114        60       FIXPVA
        115        60       FIXPVA
        116        60       FIXPVA
        117        60       FIXPVA
        118        60       FIXPVA
        119        60       FIXPVA
        120        60       FIXPVA
        121        60       FIXPVA
        122        60       FIXPVA
        123        60       FIXPVA
        124        60       FIXPVA
        125        60       FIXPVA
        126        60       FIXPVA
        127        60       FIXPVA
        128        60       FIXPVA
        129        60       FIXPVA
        130        60       FIXPVA
        131        60       FIXPVA
        132        60       FIXPVA
        133        60       FIXPVA
        134        60       FIXPVA
        135        60       FIXPVA
        136        60       FIXPVA
        137        60       FIXPVA
        138        60       FIXPVA
        139        60       FIXPVA
        140        60       FIXPVA
        141        60       FIXPVA
        142        60       FIXPVA
        143        60       FIXPVA
        144        60       FIXPVA
        145        60       FIXPVA
        146        60       FIXPVA
        147        60       FIXPVA
        148        60       FIXPVA
        149        60       FIXPVA
        150        60       FIXPVA
        151        60       FIXPVA
        152        60       FIXPVA
        153        60       FIXPVA
        154        60       FIXPVA
        155        60       FIXPVA
        156        60       FIXPVA
        157        60       FIXPVA
        158        60       FIXPVA
        159        60       FIXPVA
        160        60       FIXPVA
        161        60       FIXPVA
        162        60       FIXPVA
        163        60       FIXPVA
        164        60       FIXPVA
        165        60       FIXPVA
        166        60       FIXPVA
        167        60       FIXPVA
        168        60       FIXPVA
        169        60       FIXPVA
        170        60       FIXPVA
        171        60       FIXPVA
        172        60       FIXPVA
        173        60       FIXPVA
        174        60       FIXPVA
        175        60       FIXPVA
        176        60       FIXPVA
        177        60       FIXPVA
        178        60       FIXPVA
        179        60       FIXPVA
        180        60       FIXPVA
        181        60       FIXPVA
        182        60       FIXPVA
        183        60       FIXPVA
        184        60       FIXPVA
        185        60       FIXPVA
        186        60       FIXPVA
        187        60       FIXPVA
        188        60       FIXPVA
        189        60       FIXPVA
        190        60       FIXPVA
        191        60       FIXPVA
        192        60       FIXPVA
        193        60       FIXPVA
        194        60       FIXPVA
        195        60       FIXPVA
        196        60       FIXPVA
        197        60       FIXPVA
        198        60       FIXPVA
        199        60       FIXPVA
        200        60       FIXPVA
        201        60       FIXPVA
        202        60       FIXPVA
        203        60       FIXPVA
        204        60       FIXPVA
        205        60       FIXPVA
        206        60       FIXPVA
        207        60       FIXPVA
        208        60       FIXPVA
        209        60       FIXPVA
        210        60       FIXPVA
        211        60       FIXPVA
        212        60       FIXPVA
        213        60       FIXPVA
        214        60       FIXPVA
        215        60       FIXPVA
        216        60       FIXPVA
        217        60       FIXPVA
        218        60       FIXPVA
        219        60       FIXPVA
        220        60       FIXPVA
        221        60       FIXPVA
        222        60       FIXPVA
        223        60       FIXPVA
        224        60       FIXPVA
        225        60       FIXPVA
        226        60       FIXPVA
        227        60       FIXPVA
        228        60       FIXPVA
        229        60       FIXPVA
        230        60       FIXPVA
        231        60       FIXPVA
        232        60       FIXPVA
        233        60       FIXPVA
        234        60       FIXPVA
        235        60       FIXPVA
        236        60       FIXPVA
        237        60       FIXPVA
        238        60       FIXPVA
        239        60       FIXPVA
        240        60       FIXPVA
        241        60       FIXPVA
        242        60       FIXPVA
        243        60       FIXPVA
        244        60       FIXPVA
        245        60       FIXPVA
        246        60       FIXPVA
        247        60       FIXPVA
        248        60       FIXPVA
        249        60       FIXPVA
        250        60       FIXPVA
        251        60       FIXPVA
        252        60       FIXPVA
        253        60       FIXPVA
        254        60       FIXPVA
        255        60       FIXPVA
        256        60       FIXPVA
        257        60       FIXPVA
        258        60       FIXPVA
        259        60       FIXPVA
        260        60       FIXPVA
        261        60       FIXPVA
        262        60       FIXPVA
        263        60       FIXPVA
        264        60       FIXPVA
        265        60       FIXPVA
        266        60       FIXPVA
        267        60       FIXPVA
        268        60       FIXPVA
        269        60       FIXPVA
        270        60       FIXPVA
        271        60       FIXPVA
        272        60       FIXPVA
        273        60       FIXPVA
        274        60       FIXPVA
        275        60       FIXPVA
        276        60       FIXPVA
        277        60       FIXPVA
        278        60       FIXPVA
        279        60       FIXPVA
        280        60       FIXPVA
        281        60       FIXPVA
        282        60       FIXPVA
        283        60       FIXPVA
        284        60       FIXPVA
        285        60       FIXPVA
        286        60       FIXPVA
        287        60       FIXPVA
        288        60       FIXPVA
        289        60       FIXPVA
        290        60       FIXPVA
        291        60       FIXPVA
        292        60       FIXPVA
        293        60       FIXPVA
        294        60       FIXPVA
        295        60       FIXPVA
        296        60       FIXPVA
        297        60       FIXPVA
        298        60       FIXPVA
        299        60       FIXPVA
        300        60       FIXPVA
        301        60       FIXPVA
        302        60       FIXPVA
        303        60       FIXPVA
        304        60       FIXPVA
        305        60       FIXPVA
        306        60       FIXPVA
        307        60       FIXPVA
        308        60       FIXPVA
        309        60       FIXPVA
        310        60       FIXPVA
        311        60       FIXPVA
        312        60       FIXPVA
        313        60       FIXPVA
        314        60       FIXPVA
        315        60       FIXPVA
        316        60       FIXPVA
        317        60       FIXPVA
        318        60       FIXPVA
        319        60       FIXPVA

     ------------------------------
      FIXPVA TESSELLATION FOR PCM
         PEIFENG SU AND HUI LI
     UNIVERSITY OF NEBRASKA-LINCOLN
     ------------------------------


 PCM DIMENSIONS: MXSP=   319, MXTS=     12760, MEMORY=        131112

     INPUT FOR CAVITY DEFINITION 
     ---------------------------
   ATOM               COORDINATES                RADIUS       EPS
      1     11.1820     19.7120      6.1710      0.0100     78.3900
      2     11.3170     19.5610      7.1260      1.5900     78.3900
      3     10.0200     19.2970      7.6780      1.7700     78.3900
      4      9.6020     18.3740      7.2160      0.0100     78.3900
      5      9.3330     20.1400      7.4330      0.0100     78.3900
      6     10.0400     19.1230      9.1990      1.7700     78.3900
      7      9.0160     18.8890      9.5650      0.0100     78.3900
      8     10.9070     18.0200      9.6030      1.5900     78.3900
      9     11.4340     18.3080     10.8950      1.7700     78.3900
     10     11.0140     17.5240     11.5650      0.0100     78.3900
     11     12.9240     18.2590     10.9550      1.6800     78.3900
     12     13.6650     18.5740      9.8380      1.7700     78.3900
     13     13.0980     18.7950      8.9280      0.0100     78.3900
     14     15.0050     18.5670      9.8720      1.7700     78.3900
     15     15.6110     18.8100      9.0030      0.0100     78.3900
     16     13.5750     17.9730     12.1590      1.7700     78.3900
     17     12.9010     17.7370     13.1730      1.5900     78.3900
     18     14.9290     17.9480     12.2080      1.6800     78.3900
     19     15.6450     18.2490     11.1080      1.7700     78.3900
     20     16.9790     18.2490     11.1780      1.6800     78.3900
     21     17.4530     18.0500     12.0340      0.0100     78.3900
     22     17.5330     18.5420     10.4010      0.0100     78.3900
     23     10.8870     19.6610     11.3300      1.7700     78.3900
     24     11.6410     20.2600     11.8850      0.0100     78.3900
     25      9.7260     19.5020     12.1250      1.5900     78.3900
     26      9.4350     20.3980     12.3580      0.0100     78.3900
     27     10.5580     20.3260      9.9890      1.7700     78.3900
     28     11.4880     20.6650      9.4800      0.0100     78.3900
     29      9.5460     21.3620     10.0230      1.5900     78.3900
     30      9.9310     22.7950     10.5580      2.1000     78.3900
     31      8.7340     23.6590     10.5120      1.5900     78.3900
     32     11.1370     23.2740      9.8480      1.5900     78.3900
     33     10.2710     22.5380     12.0730      1.5900     78.3900
     34     11.1810     23.4030     12.7860      1.7700     78.3900
     35     10.7590     24.4320     12.8710      0.0100     78.3900
     36     12.1610     23.4680     12.2550      0.0100     78.3900
     37     11.4480     22.8660     14.2030      1.7700     78.3900
     38     10.5210     22.8600     14.8130      0.0100     78.3900
     39     11.9440     21.4920     14.1300      1.5900     78.3900
     40     13.0640     21.3470     14.9930      1.7700     78.3900
     41     12.9000     20.4290     15.6010      0.0100     78.3900
     42     14.3140     21.2120     14.2280      1.6800     78.3900
     43     15.5590     20.9450     14.7320      1.7700     78.3900
     44     17.6590     20.4000     17.4360      1.6800     78.3900
     45     17.0300     20.4570     18.2110      0.0100     78.3900
     46     18.6460     20.4290     17.6090      0.0100     78.3900
     47     15.8630     20.7520     16.0270      1.6800     78.3900
     48     17.1650     20.5580     16.2230      1.7700     78.3900
     49     18.0670     20.4620     15.1990      1.6800     78.3900
     50     19.0330     20.3230     15.4480      0.0100     78.3900
     51     17.7760     20.6100     13.8480      1.7700     78.3900
     52     18.6610     20.4960     12.9980      1.5900     78.3900
     53     16.4030     20.9100     13.6390      1.7700     78.3900
     54     15.7090     21.1900     12.4650      1.6800     78.3900
     55     14.4680     21.3400     12.8650      1.7700     78.3900
     56     13.6150     21.5560     12.2160      0.0100     78.3900
     57     13.0880     22.5600     15.8950      1.7700     78.3900
     58     14.1100     22.8170     16.2500      0.0100     78.3900
     59     12.2260     22.3650     17.0030      1.5900     78.3900
     60     12.0990     23.2250     17.4310      0.0100     78.3900
     61     12.5520     23.6300     14.9600      1.7700     78.3900
     62     13.3260     23.8950     14.2010      0.0100     78.3900
     63     12.0050     24.7820     15.6370      1.5900     78.3900
     64     12.8610     26.0970     15.7510      2.1000     78.3900
     65     12.1720     27.0350     16.6690      1.5900     78.3900
     66     13.1380     26.5960     14.3890      1.5900     78.3900
     67     14.2300     25.6220     16.3660      1.5900     78.3900
     68     14.3880     25.3520     17.7730      1.7700     78.3900
     69     13.7350     24.5090     18.0990      0.0100     78.3900
     70     14.1210     26.2510     18.3750      0.0100     78.3900
     71     15.8420     24.9840     18.1150      1.7700     78.3900
     72     15.9210     24.7490     19.1970      0.0100     78.3900
     73     16.2730     23.7950     17.3920      1.5900     78.3900
     74     17.6780     23.8770     17.1640      1.7700     78.3900
     75     18.1290     23.0150     17.7080      0.0100     78.3900
     76     18.0300     23.8040     15.7150      1.6800     78.3900
     77     17.1010     24.1080     14.7450      1.7700     78.3900
     78     16.1010     24.3550     15.1140      0.0100     78.3900
     79     19.3330     23.4930     15.3740      1.7700     78.3900
     80     20.2140     23.3010     16.1970      1.5900     78.3900
     81     19.5780     23.4220     14.0240      1.6800     78.3900
     82     20.4940     23.1140     13.7360      0.0100     78.3900
     83     18.6990     23.7000     13.0030      1.7700     78.3900
     84     19.0750     23.6440     11.8360      1.5900     78.3900
     85     17.3830     24.0650     13.4340      1.7700     78.3900
     86     16.6350     24.2890     12.6750      0.0100     78.3900
     87     18.1650     25.1620     17.8020      1.7700     78.3900
     88     18.9970     25.6330     17.2340      0.0100     78.3900
     89     18.5810     24.9120     19.1320      1.5900     78.3900
     90     18.8630     25.7630     19.4900      0.0100     78.3900
     91     16.9110     26.0290     17.7670      1.7700     78.3900
     92     16.6920     26.3760     16.7320      0.0100     78.3900
     93     16.8930     27.1050     18.7280      1.5900     78.3900
     94     17.6130     28.4610     18.3730      2.1000     78.3900
     95     17.4530     29.3880     19.5170      1.5900     78.3900
     96     17.1230     28.9450     17.0640      1.5900     78.3900
     97     19.1330     28.0840     18.2100      1.5900     78.3900
     98     20.0110     27.9600     19.3520      1.7700     78.3900
     99     19.7280     27.0910     19.9860      0.0100     78.3900
    100     19.9570     28.8770     19.9890      0.0100     78.3900
    101     21.4810     27.7890     18.9220      1.7700     78.3900
    102     22.1380     27.7280     19.8170      0.0100     78.3900
    103     21.6880     26.5760     18.1480      1.5900     78.3900
    104     22.8350     26.7450     17.3170      1.7700     78.3900
    105     23.6100     26.0710     17.7490      0.0100     78.3900
    106     22.5750     26.3670     15.8970      1.6800     78.3900
    107     21.3380     26.5620     15.3430      1.7700     78.3900
    108     20.5840     26.9540     16.0310      0.0100     78.3900
    109     23.6310     25.9270     15.1260      1.7700     78.3900
    110     24.7660     25.8270     15.5710      1.5900     78.3900
    111     23.3200     25.5910     13.8290      1.6800     78.3900
    112     24.1030     25.3070     13.2470      0.0100     78.3900
    113     22.0920     25.7310     13.2170      1.7700     78.3900
    114     21.9410     25.3930     12.0450      1.5900     78.3900
    115     21.0630     26.2670     14.0630      1.7700     78.3900
    116     20.0690     26.4250     13.6450      0.0100     78.3900
    117     23.2870     28.2010     17.4520      1.7700     78.3900
    118     23.5580     28.6510     16.4750      0.0100     78.3900
    119     24.3930     28.2890     18.3370      1.5900     78.3900
    120     25.1270     27.7520     17.9910      0.0100     78.3900
    121     22.0290     28.8780     18.0190      1.7700     78.3900
    122     21.2750     29.0130     17.2080      0.0100     78.3900
    123     22.2340     30.0790     18.7890      1.5900     78.3900
    124     22.3390     31.4560     18.0440      2.1000     78.3900
    125     22.3290     32.5350     19.0580      1.5900     78.3900
    126     21.3060     31.5170     16.9860      1.5900     78.3900
    127     23.7530     31.4210     17.3670      1.5900     78.3900
    128     24.1100     32.4800     16.4530      1.7700     78.3900
    129     24.0360     33.4750     16.9620      0.0100     78.3900
    130     23.4270     32.4740     15.5720      0.0100     78.3900
    131     25.5380     32.2640     15.9300      1.7700     78.3900
    132     25.8120     33.0490     15.1930      0.0100     78.3900
    133     26.4910     32.3530     17.0280      1.5900     78.3900
    134     27.5740     31.4670     16.7790      1.7700     78.3900
    135     28.4830     32.1070     16.7190      0.0100     78.3900
    136     27.7640     30.5020     17.8630      1.6800     78.3900
    137     28.6790     29.0610     19.2470      1.7700     78.3900
    138     27.4200     29.3420     19.7560      1.6800     78.3900
    139     26.9120     30.1960     18.8970      1.7700     78.3900
    140     25.9170     30.6460     18.9620      0.0100     78.3900
    141     30.8570     28.1810     18.9580      1.6800     78.3900
    142     30.8970     28.8600     17.8080      1.7700     78.3900
    143     31.8160     28.7440     17.2260      0.0100     78.3900
    144     29.9890     29.6950     17.2930      1.6800     78.3900
    145     28.8940     29.7520     18.0700      1.7700     78.3900
    146     29.7440     28.2710     19.7260      1.7700     78.3900
    147     29.7260     27.6490     20.9160      1.6800     78.3900
    148     28.8920     27.5940     21.4680      0.0100     78.3900
    149     30.4700     27.0160     21.1370      0.0100     78.3900
    150     27.3410     30.8060     15.4370      1.7700     78.3900
    151     27.6880     29.7500     15.4130      0.0100     78.3900
    152     27.9940     31.5500     14.4240      1.5900     78.3900
    153     27.6670     31.2190     13.5760      0.0100     78.3900
    154     25.8230     30.8860     15.3000      1.7700     78.3900
    155     25.3330     30.1200     15.9470      0.0100     78.3900
    156     25.3440     30.8530     13.9390      1.5900     78.3900
    157     24.9440     29.4810     13.2590      2.1000     78.3900
    158     24.7060     29.7880     11.8240      1.5900     78.3900
    159     23.7860     28.9160     13.9790      1.5900     78.3900
    160     26.2080     28.5660     13.4550      1.5900     78.3900
    161     27.3550     28.6610     12.5890      1.7700     78.3900
    162     27.8070     29.6780     12.6080      0.0100     78.3900
    163     27.0760     28.4390     11.5360      0.0100     78.3900
    164     28.4170     27.6290     12.9730      1.7700     78.3900
    165     29.2460     27.6430     12.2290      0.0100     78.3900
    166     29.0210     27.9210     14.2690      1.5900     78.3900
    167     29.3520     26.6880     14.8960      1.7700     78.3900
    168     30.4470     26.7250     15.0860      0.0100     78.3900
    169     28.6250     26.4990     16.1540      1.6800     78.3900
    170     28.0420     25.8360     18.1650      1.7700     78.3900
    171     26.9610     26.5610     17.6720      1.6800     78.3900
    172     27.3490     26.9100     16.4670      1.7700     78.3900
    173     26.7500     27.4850     15.7530      0.0100     78.3900
    174     29.4550     24.5540     19.5790      1.6800     78.3900
    175     30.3730     24.6520     18.6130      1.7700     78.3900
    176     31.3330     24.1720     18.8320      0.0100     78.3900
    177     30.2900     25.2350     17.4140      1.6800     78.3900
    178     29.0780     25.8010     17.2460      1.7700     78.3900
    179     28.2480     25.1500     19.3800      1.7700     78.3900
    180     27.3180     25.0720     20.3490      1.6800     78.3900
    181     26.3870     25.4010     20.1980      0.0100     78.3900
    182     27.4790     24.4750     21.1350      0.0100     78.3900
    183     29.0510     25.5710     13.9120      1.7700     78.3900
    184     28.6990     24.6420     14.4140      0.0100     78.3900
    185     30.1900     25.2910     13.1150      1.5900     78.3900
    186     29.9300     24.6120     12.4780      0.0100     78.3900
    187     27.9220     26.1890     13.0910      1.7700     78.3900
    188     26.9740     26.2030     13.6800      0.0100     78.3900
    189     27.7500     25.6480     11.7730      1.5900     78.3900
    190     26.7370     24.4850     11.4930      2.1000     78.3900
    191     26.8980     24.1200     10.0640      1.5900     78.3900
    192     25.3820     24.8940     11.9430      1.5900     78.3900
    193     27.2630     23.3170     12.3910      1.5900     78.3900
    194     28.4800     22.5930     12.1290      1.7700     78.3900
    195     29.1640     22.7850     12.9770      0.0100     78.3900
    196     29.0020     22.9340     11.2010      0.0100     78.3900
    197     28.2150     21.0790     12.0250      1.7700     78.3900
    198     27.7080     20.6960     12.9370      0.0100     78.3900
    199     27.3160     20.8510     10.9020      1.5900     78.3900
    200     27.6740     19.6700     10.2100      1.7700     78.3900
    201     26.7800     19.0080     10.2590      0.0100     78.3900
    202     27.9710     19.9370      8.7940      1.6800     78.3900
    203     27.8230     19.0530      7.7540      1.7700     78.3900
    204     26.9150     15.9200      6.5520      1.6800     78.3900
    205     26.9040     15.4350      5.6780      0.0100     78.3900
    206     26.7510     15.4110      7.3960      0.0100     78.3900
    207     27.3990     17.7750      7.8510      1.6800     78.3900
    208     27.2970     17.1830      6.6580      1.7700     78.3900
    209     27.5710     17.8180      5.4750      1.6800     78.3900
    210     27.4880     17.2970      4.6200      0.0100     78.3900
    211     27.9970     19.1350      5.3460      1.7700     78.3900
    212     28.2110     19.6280      4.2340      1.5900     78.3900
    213     28.1510     19.7650      6.6140      1.7700     78.3900
    214     28.5370     21.0680      6.9360      1.6800     78.3900
    215     28.4110     21.1220      8.2440      1.7700     78.3900
    216     28.5920     22.0020      8.8670      0.0100     78.3900
    217     28.8240     19.0140     10.9470      1.7700     78.3900
    218     29.5750     18.5720     10.2540      0.0100     78.3900
    219     28.3160     18.0110     11.8100      1.5900     78.3900
    220     29.0210     17.7990     12.4440      0.0100     78.3900
    221     29.4400     20.1810     11.7240      1.7700     78.3900
    222     30.1140     20.7590     11.0530      0.0100     78.3900
    223     30.1430     19.7330     12.8990      1.5900     78.3900
    224     30.7390     20.6320     14.0320      2.1000     78.3900
    225     31.4030     21.7960     13.4110      1.5900     78.3900
    226     31.5890     19.7800     14.8890      1.5900     78.3900
    227     29.4870     21.1030     14.8680      1.5900     78.3900
    228     29.7290     21.9550     16.0150      1.7700     78.3900
    229     30.0850     22.9610     15.6890      0.0100     78.3900
    230     30.5030     21.5100     16.6850      0.0100     78.3900
    231     28.4700     22.1440     16.8710      1.7700     78.3900
    232     28.7350     22.6240     17.8360      0.0100     78.3900
    233     27.5130     23.0280     16.2250      1.5900     78.3900
    234     26.2350     22.7880     16.8030      1.7700     78.3900
    235     26.0280     23.6970     17.4160      0.0100     78.3900
    236     25.1550     22.5910     15.7970      1.6800     78.3900
    237     25.4230     22.1170     14.5360      1.7700     78.3900
    238     26.4830     21.9590     14.3170      0.0100     78.3900
    239     23.8590     22.8210     16.2050      1.7700     78.3900
    240     23.5660     23.1420     17.3480      1.5900     78.3900
    241     22.9040     22.6510     15.2390      1.6800     78.3900
    242     21.9710     22.8530     15.5620      0.0100     78.3900
    243     23.1020     22.2740     13.9270      1.7700     78.3900
    244     22.1450     22.2430     13.1540      1.5900     78.3900
    245     24.4630     21.9450     13.6090      1.7700     78.3900
    246     24.7070     21.6270     12.5980      0.0100     78.3900
    247     26.3710     21.5740     17.7080      1.7700     78.3900
    248     25.5050     20.8860     17.6100      0.0100     78.3900
    249     26.5190     21.9560     19.0620      1.5900     78.3900
    250     26.4760     21.1260     19.5540      0.0100     78.3900
    251     27.6390     20.9060     17.1810      1.7700     78.3900
    252     27.4470     20.4070     16.2060      0.0100     78.3900
    253     28.3320     20.0480     18.1190      1.5900     78.3900
    254     27.8250     18.5640     18.2870      2.1000     78.3900
    255     28.6250     17.8880     19.3330      1.5900     78.3900
    256     27.8200     17.8920     16.9670      1.5900     78.3900
    257     26.3290     18.6520     18.8020      1.5900     78.3900
    258     26.0840     18.8880     20.2120      1.7700     78.3900
    259     26.6620     19.7660     20.5930      0.0100     78.3900
    260     26.3810     17.9960     20.8100      0.0100     78.3900
    261     24.5970     19.1500     20.4830      1.7700     78.3900
    262     24.4440     19.4540     21.5400      0.0100     78.3900
    263     24.1060     20.2270     19.6380      1.5900     78.3900
    264     22.7310     20.0100     19.3710      1.7700     78.3900
    265     22.2120     20.8800     19.8360      0.0100     78.3900
    266     22.4040     19.9320     17.9220      1.6800     78.3900
    267     23.2650     19.2950     17.0580      1.7700     78.3900
    268     24.2230     18.9830     17.4820      0.0100     78.3900
    269     22.9490     19.1270     15.7640      1.7700     78.3900
    270     23.6200     18.6430     15.0580      0.0100     78.3900
    271     21.1550     20.3600     17.4700      1.7700     78.3900
    272     20.3480     20.8410     18.2790      1.5900     78.3900
    273     20.8260     20.2080     16.1650      1.6800     78.3900
    274     21.6670     19.5810     15.3260      1.7700     78.3900
    275     21.2790     19.3970     14.0630      1.6800     78.3900
    276     20.3990     19.7500     13.7480      0.0100     78.3900
    277     21.8450     18.9000     13.4000      0.0100     78.3900
    278     22.3210     18.7450     20.0950      1.7700     78.3900
    279     21.5650     18.1580     19.5340      0.0100     78.3900
    280     21.8270     19.0510     21.3840      1.5900     78.3900
    281     21.5790     18.2050     21.7750      0.0100     78.3900
    282     23.6430     17.9880     20.1820      1.7700     78.3900
    283     23.9430     17.5810     19.1900      0.0100     78.3900
    284     23.7130     16.9950     21.2290      1.5900     78.3900
    285     23.1510     15.5480     20.9560      2.1000     78.3900
    286     23.3540     14.7220     22.1650      1.5900     78.3900
    287     23.7270     15.0230     19.7000      1.5900     78.3900
    288     21.6060     15.7490     20.7230      1.5900     78.3900
    289     20.6990     15.9550     21.8270      1.7700     78.3900
    290     21.0120     16.8120     22.4700      0.0100     78.3900
    291     20.6690     15.0520     22.4830      0.0100     78.3900
    292     19.2700     16.2210     21.3280      1.7700     78.3900
    293     18.6060     16.4830     22.1820      0.0100     78.3900
    294     19.2220     17.3270     20.3800      1.5900     78.3900
    295     18.1480     17.0990     19.4680      1.7700     78.3900
    296     17.4330     17.9430     19.6060      0.0100     78.3900
    297     18.5950     17.0750     18.0640      1.6800     78.3900
    298     17.7850     17.2140     16.9630      1.7700     78.3900
    299     14.6380     17.7250     15.5730      1.6800     78.3900
    300     14.0550     17.7750     16.3830      0.0100     78.3900
    301     14.2200     17.8060     14.6670      0.0100     78.3900
    302     16.4460     17.3840     16.9800      1.6800     78.3900
    303     15.9320     17.5190     15.7560      1.7700     78.3900
    304     16.6910     17.4780     14.6160      1.6800     78.3900
    305     16.2120     17.5690     13.7370      0.0100     78.3900
    306     18.0690     17.2820     14.5690      1.7700     78.3900
    307     18.6600     17.2640     13.4860      1.5900     78.3900
    308     18.6250     17.1280     15.8700      1.7700     78.3900
    309     19.9390     16.9050     16.2730      1.6800     78.3900
    310     19.8720     16.8730     17.5850      1.7700     78.3900
    311     20.7130     16.7040     18.2620      0.0100     78.3900
    312     17.4770     15.7930     19.8620      1.7700     78.3900
    313     17.1370     15.2110     18.9750      0.0100     78.3900
    314     16.3760     16.0410     20.7250      1.5900     78.3900
    315     16.0570     15.1920     21.0740      0.0100     78.3900
    316     18.6220     15.0670     20.5630      1.7700     78.3900
    317     19.3640     14.6890     19.8260      0.0100     78.3900
    318     18.2060     14.0230     21.4590      1.5900     78.3900
    319     17.7800     13.3100     20.9540      0.0100     78.3900

 CREATION OF A NEW CAVITY WITH THE ORIGINAL SPHERE
 SIZES FOR THE COMPUTATION OF THE CAVITATION ENERGY.

     INPUT FOR CAVITY DEFINITION 
     ---------------------------
   ATOM               COORDINATES                RADIUS       EPS
      1     11.1820     19.7120      6.1710      0.0100     78.3900
      2     11.3170     19.5610      7.1260      1.5900     78.3900
      3     10.0200     19.2970      7.6780      1.7700     78.3900
      4      9.6020     18.3740      7.2160      0.0100     78.3900
      5      9.3330     20.1400      7.4330      0.0100     78.3900
      6     10.0400     19.1230      9.1990      1.7700     78.3900
      7      9.0160     18.8890      9.5650      0.0100     78.3900
      8     10.9070     18.0200      9.6030      1.5900     78.3900
      9     11.4340     18.3080     10.8950      1.7700     78.3900
     10     11.0140     17.5240     11.5650      0.0100     78.3900
     11     12.9240     18.2590     10.9550      1.6800     78.3900
     12     13.6650     18.5740      9.8380      1.7700     78.3900
     13     13.0980     18.7950      8.9280      0.0100     78.3900
     14     15.0050     18.5670      9.8720      1.7700     78.3900
     15     15.6110     18.8100      9.0030      0.0100     78.3900
     16     13.5750     17.9730     12.1590      1.7700     78.3900
     17     12.9010     17.7370     13.1730      1.5900     78.3900
     18     14.9290     17.9480     12.2080      1.6800     78.3900
     19     15.6450     18.2490     11.1080      1.7700     78.3900
     20     16.9790     18.2490     11.1780      1.6800     78.3900
     21     17.4530     18.0500     12.0340      0.0100     78.3900
     22     17.5330     18.5420     10.4010      0.0100     78.3900
     23     10.8870     19.6610     11.3300      1.7700     78.3900
     24     11.6410     20.2600     11.8850      0.0100     78.3900
     25      9.7260     19.5020     12.1250      1.5900     78.3900
     26      9.4350     20.3980     12.3580      0.0100     78.3900
     27     10.5580     20.3260      9.9890      1.7700     78.3900
     28     11.4880     20.6650      9.4800      0.0100     78.3900
     29      9.5460     21.3620     10.0230      1.5900     78.3900
     30      9.9310     22.7950     10.5580      2.1000     78.3900
     31      8.7340     23.6590     10.5120      1.5900     78.3900
     32     11.1370     23.2740      9.8480      1.5900     78.3900
     33     10.2710     22.5380     12.0730      1.5900     78.3900
     34     11.1810     23.4030     12.7860      1.7700     78.3900
     35     10.7590     24.4320     12.8710      0.0100     78.3900
     36     12.1610     23.4680     12.2550      0.0100     78.3900
     37     11.4480     22.8660     14.2030      1.7700     78.3900
     38     10.5210     22.8600     14.8130      0.0100     78.3900
     39     11.9440     21.4920     14.1300      1.5900     78.3900
     40     13.0640     21.3470     14.9930      1.7700     78.3900
     41     12.9000     20.4290     15.6010      0.0100     78.3900
     42     14.3140     21.2120     14.2280      1.6800     78.3900
     43     15.5590     20.9450     14.7320      1.7700     78.3900
     44     17.6590     20.4000     17.4360      1.6800     78.3900
     45     17.0300     20.4570     18.2110      0.0100     78.3900
     46     18.6460     20.4290     17.6090      0.0100     78.3900
     47     15.8630     20.7520     16.0270      1.6800     78.3900
     48     17.1650     20.5580     16.2230      1.7700     78.3900
     49     18.0670     20.4620     15.1990      1.6800     78.3900
     50     19.0330     20.3230     15.4480      0.0100     78.3900
     51     17.7760     20.6100     13.8480      1.7700     78.3900
     52     18.6610     20.4960     12.9980      1.5900     78.3900
     53     16.4030     20.9100     13.6390      1.7700     78.3900
     54     15.7090     21.1900     12.4650      1.6800     78.3900
     55     14.4680     21.3400     12.8650      1.7700     78.3900
     56     13.6150     21.5560     12.2160      0.0100     78.3900
     57     13.0880     22.5600     15.8950      1.7700     78.3900
     58     14.1100     22.8170     16.2500      0.0100     78.3900
     59     12.2260     22.3650     17.0030      1.5900     78.3900
     60     12.0990     23.2250     17.4310      0.0100     78.3900
     61     12.5520     23.6300     14.9600      1.7700     78.3900
[...]
   267    9   6.0   2.79    4.9   -0.015010    0.157197    0.156406
   268    9   1.0   0.00    0.0    0.000000    0.306041    0.313951
   269    9   6.0  10.53   18.6   -0.063957   -0.390912   -0.403587
   270    9   1.0   0.00    0.0    0.000000    0.279749    0.276831
   271    9   6.0   0.00    0.0    0.000831    1.045454    1.087151
   272    9   8.0   6.53   14.3    0.133131   -0.773104   -0.755841
   273    9   7.0   0.00    0.0    0.000000   -0.864653   -0.856422
   274    9   6.0   0.00    0.0    0.000124    0.753957    0.755860
   275    9   7.0  11.69   22.9   -0.089802   -0.940724   -0.994614
   276    9   1.0   0.00    0.0    0.000000    0.451157    0.493930
   277    9   1.0   0.00    0.0    0.000000    0.448781    0.444677
   278    9   6.0   0.41    0.7    0.009024    0.114698    0.083170
   279    9   1.0   0.00    0.0    0.000000    0.203941    0.231279
   280    9   8.0  16.19   35.4    0.105429   -0.825440   -0.839245
   281    9   1.0   0.00    0.0    0.000000    0.503352    0.524929
   282    9   6.0   1.43    2.5   -0.031174    0.151581    0.129086
   283    9   1.0   0.00    0.0    0.000000    0.234684    0.234859
   284    9   8.0   5.26   11.5    0.070504   -0.789045   -0.792949
   285    9  15.0   8.68   10.9    0.093806    1.601630    1.638597
   286    9   8.0  17.78   38.9    0.367935   -0.893555   -0.885983
   287    9   8.0  17.57   38.4    0.372996   -0.897355   -0.894222
   288    9   8.0   1.30    2.9    0.022255   -0.973184   -0.780945
   289   10   6.0  13.23   23.3   -0.122071    0.185631   -0.056613
   290   10   1.0   0.00    0.0    0.000000    0.168114    0.187795
   291   10   1.0   0.00    0.0    0.000000    0.253975    0.236301
   292   10   6.0   5.23    9.2   -0.039225    0.098752    0.166585
   293   10   1.0   0.00    0.0    0.000000    0.243681    0.218286
   294   10   8.0   2.92    6.4    0.039889   -0.729061   -0.738216
   295   10   6.0   3.73    6.6   -0.036307    0.433964    0.432665
   296   10   1.0   0.00    0.0    0.000000    0.250540    0.249899
   297   10   7.0   0.85    1.7   -0.001790   -0.799174   -0.808622
   298   10   6.0   1.76    3.1    0.001479    0.717697    0.722248
   299   10   7.0  13.02   25.5   -0.094914   -0.977537   -1.037263
   300   10   1.0   0.00    0.0    0.000000    0.445681    0.443005
   301   10   1.0   0.00    0.0    0.000000    0.475407    0.511253
   302   10   7.0   6.43   12.6    0.099027   -0.753329   -0.751980
   303   10   6.0   1.67    2.9   -0.005328    0.980829    0.969537
   304   10   7.0   3.42    6.7   -0.004590   -0.935830   -1.014392
   305   10   1.0   0.00    0.0    0.000000    0.465824    0.517698
   306   10   6.0   0.96    1.7   -0.001035    0.855150    0.868461
   307   10   8.0  12.02   26.3    0.170612   -0.730000   -0.731482
   308   10   6.0   1.94    3.4    0.009601   -0.048657   -0.039666
   309   10   7.0   7.76   15.2    0.122386   -0.586124   -0.589773
   310   10   6.0   5.78   10.2   -0.001353    0.279561    0.275435
   311   10   1.0   0.00    0.0    0.000000    0.255264    0.267167
   312   10   6.0   5.63    9.9   -0.059278    0.100136    0.099912
   313   10   1.0   0.00    0.0    0.000000    0.230920    0.230487
   314   10   8.0  20.93   45.8    0.053623   -0.835869   -0.836942
   315   10   1.0   0.00    0.0    0.000000    0.498196    0.498703
   316   10   6.0   5.69   10.0   -0.052501    0.167840    0.154383
   317   10   1.0   0.00    0.0    0.000000    0.216537    0.219682
   318   10   8.0  22.93   50.1   -0.018348   -0.851079   -0.854450
   319   10   1.0   0.00    0.0    0.000000    0.509026    0.508863

 Done with FMO properties.
 CPU     0: STEP CPU TIME=     0.02 TOTAL CPU TIME=      15199.5 (    253.3 MIN)
 TOTAL WALL CLOCK TIME=      33963.5 SECONDS, CPU UTILIZATION IS    44.75%
 CPU     0: STEP CPU TIME=     0.00 TOTAL CPU TIME=      15199.5 (    253.3 MIN)
 TOTAL WALL CLOCK TIME=      33963.5 SECONDS, CPU UTILIZATION IS    44.75%

 Total timing statistics in pairs (CPU,wall) for each rank, sec

    Rank   total     SCF    corr     DFT    CPHF     EFP    solv     ESP    geom
 -------------------------------------------------------------------------------
       1   15199.5   4561.4   5820.3      0.0    0.0   0.0  131.7  4394.7    0.0
       1   33963.6  10083.4  13986.5      0.0    0.0   0.0  385.6  8818.5    0.0
       2   15030.6   4539.6   5708.5      0.0    0.0   0.0  133.4  4375.7    0.0
       2   33963.6  10044.6  13988.7      0.0    0.0   0.0  385.6  8817.9    0.0
       3   14966.1   4501.8   5707.6      0.0    0.0   0.0  133.6  4343.7    0.0
       3   33963.6  10044.6  13988.7      0.0    0.0   0.0  385.7  8817.9    0.0
       4   15083.8   4535.7   5660.1      0.0    0.0   0.0  133.8  4474.5    0.0
       4   33963.6  10044.9  13988.7      0.0    0.0   0.0  385.0  8817.7    0.0
       5   15038.9   4544.1   5784.1      0.0    0.0   0.0  132.9  4292.2    0.0
       5   33963.6  10044.8  13988.7      0.0    0.0   0.0  385.7  8818.0    0.0
       6   15249.0   4524.4   5893.6      0.0    0.0   0.0  132.2  4420.8    0.0
       6   33963.6  10045.6  13988.7      0.0    0.0   0.0  384.4  8817.7    0.0
       7   15092.7   4558.5   5799.1      0.0    0.0   0.0  131.7  4334.8    0.0
       7   33963.6  10045.8  13988.7      0.0    0.0   0.0  384.5  8817.7    0.0
       8   15103.7   4475.1   5774.9      0.0    0.0   0.0  132.4  4440.3    0.0
       8   33963.6  10046.1  13988.7      0.0    0.0   0.0  383.5  8817.7    0.0
       9   14883.7   4518.3   5659.5      0.0    0.0   0.0  130.5  4298.4    0.0
       9   33963.6  10046.0  13988.7      0.0    0.0   0.0  384.1  8818.1    0.0
      10   15239.5   4513.4   5999.0      0.0    0.0   0.0  130.8  4323.7    0.0
      10   33963.6  10045.9  13988.7      0.0    0.0   0.0  384.0  8818.0    0.0
      11   14934.6   4485.0   5764.3      0.0    0.0   0.0  130.9  4289.2    0.0
      11   33963.6  10046.2  13988.6      0.0    0.0   0.0  383.7  8818.0    0.0
      12   15033.9   4547.4   5771.1      0.0    0.0   0.0  131.3  4306.1    0.0
      12   33963.6  10045.8  13988.6      0.0    0.0   0.0  383.4  8818.0    0.0
      13   14890.9   4491.6   5659.7      0.0    0.0   0.0  130.1  4334.7    0.0
      13   33963.6  10046.6  13988.6      0.0    0.0   0.0  383.4  8818.0    0.0
      14   14711.8   4525.4   5537.3      0.0    0.0   0.0  130.6  4252.0    0.0
      14   33963.6  10046.5  13988.6      0.0    0.0   0.0  383.2  8817.8    0.0
      15   14878.5   4517.9   5639.9      0.0    0.0   0.0  130.8  4315.0    0.0
      15   33963.6  10046.3  13988.6      0.0    0.0   0.0  383.3  8817.8    0.0
      16   15139.2   4512.9   5759.4      0.0    0.0   0.0  131.6  4463.0    0.0
      16   33963.6  10046.2  13988.6      0.0    0.0   0.0  382.7  8817.9    0.0
averaged   15029.8   4522.0   5746.2      0.0    0.0   0.0  131.8  4353.7    0.0
averaged   33963.6  10048.1  13988.5      0.0    0.0   0.0  384.2  8817.9    0.0

  FMO  timing statistics in pairs (CPU,wall) for each rank, sec

    Rank  FMOini FMOscf1  FMOdm1 FMOsyn1 FMOscf2  FMOes2 FMOsyn2 FMOscf3 FMOsyn3
 -------------------------------------------------------------------------------
       1    2.0    5872.3    0.3    0.0    9116.2     208.6    0.0    0.0    0.0
       1    5.1   12634.8    4.5    0.0   20911.6     407.3    0.0    0.0    0.0
       2    1.5    5866.8    0.1    0.0    8968.7     193.5    0.0    0.0    0.0
       2    5.1   12634.8    4.5    0.0   20913.6     405.3    0.0    0.0    0.0
       3    1.7    5828.9    0.2    0.0    8937.0     198.4    0.0    0.0    0.0
       3    5.1   12634.8    4.5    0.0   20912.9     406.0    0.0    0.0    0.0
       4    1.5    5949.0    0.1    0.0    8933.1     200.1    0.0    0.0    0.0
       4    5.1   12634.8    4.5    0.0   20914.7     404.3    0.0    0.0    0.0
       5    1.8    5795.8    0.2    0.0    9036.5     204.6    0.0    0.0    0.0
       5    5.1   12634.8    4.5    0.0   20914.6     404.3    0.0    0.0    0.0
       6    1.6    5901.0    0.1    0.0    9147.7     198.7    0.0    0.0    0.0
       6    5.1   12634.8    4.5    0.0   20914.0     404.9    0.0    0.0    0.0
       7    1.7    5799.3    0.2    0.0    9102.6     188.9    0.0    0.0    0.0
       7    5.1   12634.8    4.5    0.0   20914.1     404.8    0.0    0.0    0.0
       8    1.4    5911.6    0.1    0.0    8988.3     202.3    0.0    0.0    0.0
       8    5.1   12634.8    4.5    0.0   20913.6     405.3    0.0    0.0    0.0
       9    1.8    5773.8    0.3    0.0    8910.9     197.0    0.0    0.0    0.0
       9    5.1   12634.8    4.5    0.0   20914.7     404.2    0.0    0.0    0.0
      10    1.4    5802.1    0.1    0.0    9240.9     195.1    0.0    0.0    0.0
      10    5.1   12634.8    4.5    0.0   20913.4     405.5    0.0    0.0    0.0
      11    1.5    5753.1    0.1    0.0    8992.4     187.5    0.0    0.0    0.0
      11    5.1   12634.8    4.5    0.0   20914.6     404.3    0.0    0.0    0.0
      12    1.4    5802.9    0.1    0.0    9029.3     200.2    0.0    0.0    0.0
      12    5.1   12634.8    4.5    0.0   20914.5     404.4    0.0    0.0    0.0
      13    1.7    5772.7    0.2    0.0    8920.1     196.3    0.0    0.0    0.0
      13    5.1   12634.8    4.5    0.0   20914.3     404.6    0.0    0.0    0.0
      14    1.4    5745.3    0.1    0.0    8776.2     188.8    0.0    0.0    0.0
      14    5.1   12634.8    4.5    0.0   20914.1     404.9    0.0    0.0    0.0
      15    1.5    5786.6    0.1    0.0    8892.6     197.7    0.0    0.0    0.0
      15    5.1   12634.8    4.5    0.0   20915.1     403.8    0.0    0.0    0.0
      16    1.4    5987.7    0.1    0.0    8954.8     195.2    0.0    0.0    0.0
      16    5.1   12634.8    4.5    0.0   20914.6     404.3    0.0    0.0    0.0
averaged    1.6    5834.3    0.1    0.0    8996.7     197.1    0.0    0.0    0.0
averaged    5.1   12634.8    4.5    0.0   20914.0     404.9    0.0    0.0    0.0
             62696568  WORDS OF DYNAMIC MEMORY USED
 EXECUTION OF GAMESS TERMINATED NORMALLY Sun Dec  8 18:36:04 2019
 DDI: 263640 bytes (0.3 MB / 0 MWords) used by master data server.

 ----------------------------------------
 CPU timing information for all processes
 ========================================
 0: 14831.624 + 367.919 = 15199.543
 1: 14695.707 + 334.983 = 15030.691
 2: 14624.441 + 341.742 = 14966.184
 3: 14753.360 + 330.423 = 15083.783
 4: 14690.986 + 347.970 = 15038.957
 5: 14917.648 + 331.411 = 15249.59
 6: 14742.450 + 350.289 = 15092.740
 7: 14777.533 + 326.223 = 15103.757
 8: 14538.700 + 345.09 = 14883.709
 9: 14911.188 + 328.405 = 15239.594
 10: 14600.293 + 334.316 = 14934.609
 11: 14704.205 + 329.735 = 15033.940
 12: 14561.324 + 329.564 = 14890.888
 13: 14396.599 + 315.180 = 14711.779
 14: 14542.13 + 336.524 = 14878.537
 15: 14812.368 + 326.895 = 15139.264
 ----------------------------------------
 ddikick.x: exited gracefully.
----- accounting info -----
Files used on the master node gollum072.lsa.umich.edu were:
-rw-r--r-- 1 hazwong frank    16513 Dec  8 09:10 /scratch/hazwong/826673/1HS2_6/usrc/1HS2_6_fmo_input.F05
-rw-r--r-- 1 hazwong frank      634 Dec  8 18:36 /scratch/hazwong/826673/1HS2_6/usrc/1HS2_6_fmo_input.F06.001
-rw-r--r-- 1 hazwong frank      634 Dec  8 18:36 /scratch/hazwong/826673/1HS2_6/usrc/1HS2_6_fmo_input.F06.002
-rw-r--r-- 1 hazwong frank      634 Dec  8 18:36 /scratch/hazwong/826673/1HS2_6/usrc/1HS2_6_fmo_input.F06.003
-rw-r--r-- 1 hazwong frank      634 Dec  8 18:36 /scratch/hazwong/826673/1HS2_6/usrc/1HS2_6_fmo_input.F06.004
-rw-r--r-- 1 hazwong frank      634 Dec  8 18:36 /scratch/hazwong/826673/1HS2_6/usrc/1HS2_6_fmo_input.F06.005
-rw-r--r-- 1 hazwong frank      634 Dec  8 18:36 /scratch/hazwong/826673/1HS2_6/usrc/1HS2_6_fmo_input.F06.006
-rw-r--r-- 1 hazwong frank      634 Dec  8 18:36 /scratch/hazwong/826673/1HS2_6/usrc/1HS2_6_fmo_input.F06.007
-rw-r--r-- 1 hazwong frank      634 Dec  8 18:36 /scratch/hazwong/826673/1HS2_6/usrc/1HS2_6_fmo_input.F06.008
-rw-r--r-- 1 hazwong frank      634 Dec  8 18:36 /scratch/hazwong/826673/1HS2_6/usrc/1HS2_6_fmo_input.F06.009
-rw-r--r-- 1 hazwong frank      634 Dec  8 18:36 /scratch/hazwong/826673/1HS2_6/usrc/1HS2_6_fmo_input.F06.010
-rw-r--r-- 1 hazwong frank      634 Dec  8 18:36 /scratch/hazwong/826673/1HS2_6/usrc/1HS2_6_fmo_input.F06.011
-rw-r--r-- 1 hazwong frank      634 Dec  8 18:36 /scratch/hazwong/826673/1HS2_6/usrc/1HS2_6_fmo_input.F06.012
-rw-r--r-- 1 hazwong frank      634 Dec  8 18:36 /scratch/hazwong/826673/1HS2_6/usrc/1HS2_6_fmo_input.F06.013
-rw-r--r-- 1 hazwong frank      634 Dec  8 18:36 /scratch/hazwong/826673/1HS2_6/usrc/1HS2_6_fmo_input.F06.014
-rw-r--r-- 1 hazwong frank      634 Dec  8 18:36 /scratch/hazwong/826673/1HS2_6/usrc/1HS2_6_fmo_input.F06.015
-rw-r--r-- 1 hazwong frank     9128 Dec  8 18:36 /scratch/hazwong/826673/1HS2_6/usrc/1HS2_6_fmo_input.F07
-rw-r--r-- 1 hazwong frank        0 Dec  8 09:10 /scratch/hazwong/826673/1HS2_6/usrc/1HS2_6_fmo_input.F07.001
-rw-r--r-- 1 hazwong frank        0 Dec  8 09:10 /scratch/hazwong/826673/1HS2_6/usrc/1HS2_6_fmo_input.F07.002
-rw-r--r-- 1 hazwong frank        0 Dec  8 09:10 /scratch/hazwong/826673/1HS2_6/usrc/1HS2_6_fmo_input.F07.003
-rw-r--r-- 1 hazwong frank        0 Dec  8 09:10 /scratch/hazwong/826673/1HS2_6/usrc/1HS2_6_fmo_input.F07.004
-rw-r--r-- 1 hazwong frank        0 Dec  8 09:10 /scratch/hazwong/826673/1HS2_6/usrc/1HS2_6_fmo_input.F07.005
-rw-r--r-- 1 hazwong frank        0 Dec  8 09:10 /scratch/hazwong/826673/1HS2_6/usrc/1HS2_6_fmo_input.F07.006
-rw-r--r-- 1 hazwong frank        0 Dec  8 09:10 /scratch/hazwong/826673/1HS2_6/usrc/1HS2_6_fmo_input.F07.007
-rw-r--r-- 1 hazwong frank        0 Dec  8 09:10 /scratch/hazwong/826673/1HS2_6/usrc/1HS2_6_fmo_input.F07.008
-rw-r--r-- 1 hazwong frank        0 Dec  8 09:10 /scratch/hazwong/826673/1HS2_6/usrc/1HS2_6_fmo_input.F07.009
-rw-r--r-- 1 hazwong frank        0 Dec  8 09:10 /scratch/hazwong/826673/1HS2_6/usrc/1HS2_6_fmo_input.F07.010
-rw-r--r-- 1 hazwong frank        0 Dec  8 09:10 /scratch/hazwong/826673/1HS2_6/usrc/1HS2_6_fmo_input.F07.011
-rw-r--r-- 1 hazwong frank        0 Dec  8 09:10 /scratch/hazwong/826673/1HS2_6/usrc/1HS2_6_fmo_input.F07.012
-rw-r--r-- 1 hazwong frank        0 Dec  8 09:10 /scratch/hazwong/826673/1HS2_6/usrc/1HS2_6_fmo_input.F07.013
-rw-r--r-- 1 hazwong frank        0 Dec  8 09:10 /scratch/hazwong/826673/1HS2_6/usrc/1HS2_6_fmo_input.F07.014
-rw-r--r-- 1 hazwong frank        0 Dec  8 09:10 /scratch/hazwong/826673/1HS2_6/usrc/1HS2_6_fmo_input.F07.015
-rw-r--r-- 1 hazwong frank    65440 Dec  8 18:36 /scratch/hazwong/826673/1HS2_6/usrc/1HS2_6_fmo_input.F10.000
-rw-r--r-- 1 hazwong frank        0 Dec  8 09:10 /scratch/hazwong/826673/1HS2_6/usrc/1HS2_6_fmo_input.F26.000
-rw-r--r-- 1 hazwong frank        0 Dec  8 09:10 /scratch/hazwong/826673/1HS2_6/usrc/1HS2_6_fmo_input.F26.001
-rw-r--r-- 1 hazwong frank        0 Dec  8 09:10 /scratch/hazwong/826673/1HS2_6/usrc/1HS2_6_fmo_input.F26.002
-rw-r--r-- 1 hazwong frank        0 Dec  8 09:10 /scratch/hazwong/826673/1HS2_6/usrc/1HS2_6_fmo_input.F26.003
-rw-r--r-- 1 hazwong frank        0 Dec  8 09:10 /scratch/hazwong/826673/1HS2_6/usrc/1HS2_6_fmo_input.F26.004
-rw-r--r-- 1 hazwong frank        0 Dec  8 09:10 /scratch/hazwong/826673/1HS2_6/usrc/1HS2_6_fmo_input.F26.005
-rw-r--r-- 1 hazwong frank        0 Dec  8 09:10 /scratch/hazwong/826673/1HS2_6/usrc/1HS2_6_fmo_input.F26.006
-rw-r--r-- 1 hazwong frank        0 Dec  8 09:10 /scratch/hazwong/826673/1HS2_6/usrc/1HS2_6_fmo_input.F26.007
-rw-r--r-- 1 hazwong frank        0 Dec  8 09:10 /scratch/hazwong/826673/1HS2_6/usrc/1HS2_6_fmo_input.F26.008
-rw-r--r-- 1 hazwong frank        0 Dec  8 09:10 /scratch/hazwong/826673/1HS2_6/usrc/1HS2_6_fmo_input.F26.009
-rw-r--r-- 1 hazwong frank        0 Dec  8 09:10 /scratch/hazwong/826673/1HS2_6/usrc/1HS2_6_fmo_input.F26.010
-rw-r--r-- 1 hazwong frank        0 Dec  8 09:10 /scratch/hazwong/826673/1HS2_6/usrc/1HS2_6_fmo_input.F26.011
-rw-r--r-- 1 hazwong frank        0 Dec  8 09:10 /scratch/hazwong/826673/1HS2_6/usrc/1HS2_6_fmo_input.F26.012
-rw-r--r-- 1 hazwong frank        0 Dec  8 09:10 /scratch/hazwong/826673/1HS2_6/usrc/1HS2_6_fmo_input.F26.013
-rw-r--r-- 1 hazwong frank        0 Dec  8 09:10 /scratch/hazwong/826673/1HS2_6/usrc/1HS2_6_fmo_input.F26.014
-rw-r--r-- 1 hazwong frank        0 Dec  8 09:10 /scratch/hazwong/826673/1HS2_6/usrc/1HS2_6_fmo_input.F26.015
-rw-r--r-- 1 hazwong frank        0 Dec  8 09:10 /scratch/hazwong/826673/1HS2_6/usrc/1HS2_6_fmo_input.F27.000
-rw-r--r-- 1 hazwong frank        0 Dec  8 09:10 /scratch/hazwong/826673/1HS2_6/usrc/1HS2_6_fmo_input.F27.001
-rw-r--r-- 1 hazwong frank        0 Dec  8 09:10 /scratch/hazwong/826673/1HS2_6/usrc/1HS2_6_fmo_input.F27.002
-rw-r--r-- 1 hazwong frank        0 Dec  8 09:10 /scratch/hazwong/826673/1HS2_6/usrc/1HS2_6_fmo_input.F27.003
-rw-r--r-- 1 hazwong frank        0 Dec  8 09:10 /scratch/hazwong/826673/1HS2_6/usrc/1HS2_6_fmo_input.F27.004
-rw-r--r-- 1 hazwong frank        0 Dec  8 09:10 /scratch/hazwong/826673/1HS2_6/usrc/1HS2_6_fmo_input.F27.005
-rw-r--r-- 1 hazwong frank        0 Dec  8 09:10 /scratch/hazwong/826673/1HS2_6/usrc/1HS2_6_fmo_input.F27.006
-rw-r--r-- 1 hazwong frank        0 Dec  8 09:10 /scratch/hazwong/826673/1HS2_6/usrc/1HS2_6_fmo_input.F27.007
-rw-r--r-- 1 hazwong frank        0 Dec  8 09:10 /scratch/hazwong/826673/1HS2_6/usrc/1HS2_6_fmo_input.F27.008
-rw-r--r-- 1 hazwong frank        0 Dec  8 09:10 /scratch/hazwong/826673/1HS2_6/usrc/1HS2_6_fmo_input.F27.009
-rw-r--r-- 1 hazwong frank        0 Dec  8 09:10 /scratch/hazwong/826673/1HS2_6/usrc/1HS2_6_fmo_input.F27.010
-rw-r--r-- 1 hazwong frank        0 Dec  8 09:10 /scratch/hazwong/826673/1HS2_6/usrc/1HS2_6_fmo_input.F27.011
-rw-r--r-- 1 hazwong frank        0 Dec  8 09:10 /scratch/hazwong/826673/1HS2_6/usrc/1HS2_6_fmo_input.F27.012
-rw-r--r-- 1 hazwong frank        0 Dec  8 09:10 /scratch/hazwong/826673/1HS2_6/usrc/1HS2_6_fmo_input.F27.013
-rw-r--r-- 1 hazwong frank        0 Dec  8 09:10 /scratch/hazwong/826673/1HS2_6/usrc/1HS2_6_fmo_input.F27.014
-rw-r--r-- 1 hazwong frank        0 Dec  8 09:10 /scratch/hazwong/826673/1HS2_6/usrc/1HS2_6_fmo_input.F27.015
-rw-r--r-- 1 hazwong frank 20332544 Dec  8 12:40 /scratch/hazwong/826673/1HS2_6/usrc/1HS2_6_fmo_input.F40.000
-rw-r--r-- 1 hazwong frank 20332544 Dec  8 12:40 /scratch/hazwong/826673/1HS2_6/usrc/1HS2_6_fmo_input.F40.001
-rw-r--r-- 1 hazwong frank 20332544 Dec  8 12:40 /scratch/hazwong/826673/1HS2_6/usrc/1HS2_6_fmo_input.F40.002
-rw-r--r-- 1 hazwong frank 20332544 Dec  8 12:40 /scratch/hazwong/826673/1HS2_6/usrc/1HS2_6_fmo_input.F40.003
-rw-r--r-- 1 hazwong frank 20332544 Dec  8 12:40 /scratch/hazwong/826673/1HS2_6/usrc/1HS2_6_fmo_input.F40.004
-rw-r--r-- 1 hazwong frank 20332544 Dec  8 12:40 /scratch/hazwong/826673/1HS2_6/usrc/1HS2_6_fmo_input.F40.005
-rw-r--r-- 1 hazwong frank 20332544 Dec  8 12:40 /scratch/hazwong/826673/1HS2_6/usrc/1HS2_6_fmo_input.F40.006
-rw-r--r-- 1 hazwong frank 20332544 Dec  8 12:40 /scratch/hazwong/826673/1HS2_6/usrc/1HS2_6_fmo_input.F40.007
-rw-r--r-- 1 hazwong frank 20332544 Dec  8 12:40 /scratch/hazwong/826673/1HS2_6/usrc/1HS2_6_fmo_input.F40.008
-rw-r--r-- 1 hazwong frank 20332544 Dec  8 12:40 /scratch/hazwong/826673/1HS2_6/usrc/1HS2_6_fmo_input.F40.009
-rw-r--r-- 1 hazwong frank 20332544 Dec  8 12:40 /scratch/hazwong/826673/1HS2_6/usrc/1HS2_6_fmo_input.F40.010
-rw-r--r-- 1 hazwong frank 20332544 Dec  8 12:40 /scratch/hazwong/826673/1HS2_6/usrc/1HS2_6_fmo_input.F40.011
-rw-r--r-- 1 hazwong frank 20332544 Dec  8 12:40 /scratch/hazwong/826673/1HS2_6/usrc/1HS2_6_fmo_input.F40.012
-rw-r--r-- 1 hazwong frank 20332544 Dec  8 12:40 /scratch/hazwong/826673/1HS2_6/usrc/1HS2_6_fmo_input.F40.013
-rw-r--r-- 1 hazwong frank 20332544 Dec  8 12:40 /scratch/hazwong/826673/1HS2_6/usrc/1HS2_6_fmo_input.F40.014
-rw-r--r-- 1 hazwong frank 20332544 Dec  8 12:40 /scratch/hazwong/826673/1HS2_6/usrc/1HS2_6_fmo_input.F40.015
Sun Dec  8 18:36:08 EST 2019
0.191u 0.082s 9:26:07.99 0.0%	0+0k 1368+136io 23pf+0w
