----- GAMESS execution script 'rungms' -----
This job is running on host gollum089.lsa.umich.edu
under operating system Linux at Sun Nov 17 21:34:20 EST 2019
Available scratch disk space (Kbyte units) at beginning of the job is
Filesystem     1K-blocks   Used Available Use% Mounted on
/dev/sda4      426933580 311304 426622276   1% /scratch
GAMESS temporary binary files will be written to /scratch/hazwong/638788/1MIS_4/usrc
GAMESS supplementary output files will be written to /scratch/hazwong/638788/1MIS_4/src
Copying input file 1MIS_4_fmo_input.inp to your run's scratch directory...
This is a GDDI run, keeping various output files on local disks
 
Assuming a single but multicore node.
 

 Distributed Data Interface kickoff program.
 Initiating 16 compute processes on 1 nodes to run the following command:
 /export/apps/CentOS7/gamess/src/build//gamess.R3.x 1MIS_4_fmo_input 

          ******************************************************
          *         GAMESS VERSION = 30 SEP 2018 (R3)         *
          *             FROM IOWA STATE UNIVERSITY             *
          * M.W.SCHMIDT, K.K.BALDRIDGE, J.A.BOATZ, S.T.ELBERT, *
          *   M.S.GORDON, J.H.JENSEN, S.KOSEKI, N.MATSUNAGA,   *
          *          K.A.NGUYEN, S.J.SU, T.L.WINDUS,           *
          *       TOGETHER WITH M.DUPUIS, J.A.MONTGOMERY       *
          *         J.COMPUT.CHEM.  14, 1347-1363(1993)        *
          **************** 64 BIT LINUX VERSION ****************

  SINCE 1993, STUDENTS AND POSTDOCS WORKING AT IOWA STATE UNIVERSITY
  AND ALSO IN THEIR VARIOUS JOBS AFTER LEAVING ISU HAVE MADE IMPORTANT
  CONTRIBUTIONS TO THE CODE:
     IVANA ADAMOVIC, CHRISTINE AIKENS, YURI ALEXEEV, POOJA ARORA,
     ANDREY ASADCHEV, ROB BELL, PRADIPTA BANDYOPADHYAY, JONATHAN BENTZ,
     BRETT BODE, KURT BRORSEN, CALEB CARLIN, GALINA CHABAN, WEI CHEN,
     CHEOL HO CHOI, PAUL DAY, ALBERT DEFUSCO, NUWAN DESILVA, TIM DUDLEY,
     DMITRI FEDOROV, ALEX FINDLATER, GRAHAM FLETCHER, MARK FREITAG,
     KURT GLAESEMANN, ANASTASIA GUNINA,
     DAN KEMP, GRANT MERRILL, NORIYUKI MINEZAWA, JONATHAN MULLIN,
     TAKESHI NAGATA, SEAN NEDD, HEATHER NETZLOFF, BOSILJKA NJEGIC, RYAN OLSON,
     MIKE PAK, BUU PHAM,
     SPENCER PRUITT, LUKE ROSKOP, JIM SHOEMAKER, LYUDMILA SLIPCHENKO,
     TONY SMITH, SAROM SOK LEANG, JIE SONG, TETSUYA TAKETSUGU, SIMON WEBB,
     PENG XU, SOOHAENG YOO, FEDERICO ZAHARIEV

  ADDITIONAL CODE HAS BEEN PROVIDED BY COLLABORATORS IN OTHER GROUPS:
     IOWA STATE UNIVERSITY:
          JOE IVANIC, AARON WEST, LAIMUTIS BYTAUTAS, KLAUS RUEDENBERG
     UNIVERSITY OF TOKYO: KIMIHIKO HIRAO, TAKAHITO NAKAJIMA,
          TAKAO TSUNEDA, MUNEAKI KAMIYA, SUSUMU YANAGISAWA,
          KIYOSHI YAGI, MAHITO CHIBA, SEIKEN TOKURA, NAOAKI KAWAKAMI
     UNIVERSITY OF AARHUS: FRANK JENSEN
     UNIVERSITY OF IOWA: VISVALDAS KAIRYS, HUI LI
     NATIONAL INST. OF STANDARDS AND TECHNOLOGY: WALT STEVENS, DAVID GARMER
     UNIVERSITY OF PISA: BENEDETTA MENNUCCI, JACOPO TOMASI
     UNIVERSITY OF MEMPHIS: HENRY KURTZ, PRAKASHAN KORAMBATH
     UNIVERSITY OF ALBERTA: TOBY ZENG, MARIUSZ KLOBUKOWSKI
     UNIVERSITY OF NEW ENGLAND: MARK SPACKMAN
     MIE UNIVERSITY: HIROAKI UMEDA
     NAT. INST. OF ADVANCED INDUSTRIAL SCIENCE AND TECHNOLOGY: KAZUO KITAURA
     MICHIGAN STATE UNIVERSITY:
          KAROL KOWALSKI, MARTA WLOCH, JEFFREY GOUR, JESSE LUTZ,
          WEI LI, JUN SHEN, J. EMILIANO DEUSTUA, PIOTR PIECUCH
     UNIVERSITY OF MINNESOTA:
          YINAN SHU
     UNIVERSITY OF SILESIA: MONIKA MUSIAL, STANISLAW KUCHARSKI
     FACULTES UNIVERSITAIRES NOTRE-DAME DE LA PAIX:
          OLIVIER QUINET, BENOIT CHAMPAGNE
     UNIVERSITY OF CALIFORNIA - SANTA BARBARA: BERNARD KIRTMAN
     INSTITUTE FOR MOLECULAR SCIENCE:
          KAZUYA ISHIMURA, MICHIO KATOUDA, AND SHIGERU NAGASE
     UNIVERSITY OF NOTRE DAME: ANNA POMOGAEVA, DAN CHIPMAN
     KYUSHU UNIVERSITY:
          HARUYUKI NAKANO,
          FENG LONG GU, JACEK KORCHOWIEC, MARCIN MAKOWSKI, AND YURIKO AOKI,
          HIROTOSHI MORI AND EISAKU MIYOSHI
     PENNSYLVANIA STATE UNIVERSITY:
          TZVETELIN IORDANOV, CHET SWALINA, JONATHAN SKONE,
          SHARON HAMMES-SCHIFFER
     WASEDA UNIVERSITY:
          MASATO KOBAYASHI, TOMOKO AKAMA, TSUGUKI TOUMA,
          TAKESHI YOSHIKAWA, YASUHIRO IKABATA, JUNJI SEINO,
          YUYA NAKAJIMA, HIROMI NAKAI
     NANJING UNIVERSITY: SHUHUA LI
     UNIVERSITY OF NEBRASKA:
          PEIFENG SU, DEJUN SI, NANDUN THELLAMUREGE, YALI WANG, HUI LI
     UNIVERSITY OF ZURICH: ROBERTO PEVERATI, KIM BALDRIDGE
     N. COPERNICUS UNIVERSITY AND JACKSON STATE UNIVERSITY:
          MARIA BARYSZ
     UNIVERSITY OF COPENHAGEN: Jimmy Kromann, CASPER STEINMANN
     TOKYO INSTITUTE OF TECHNOLOGY: HIROYA NAKATA
     NAGOYA UNIVERSITY: YOSHIO NISHIMOTO, STEPHAN IRLE
     MOSCOW STATE UNIVERSITY: VLADIMIR MIRONOV


 PARALLEL VERSION RUNNING ON       16 PROCESSORS IN        1 NODES.

 EXECUTION OF GAMESS BEGUN Sun Nov 17 21:34:20 2019

            ECHO OF THE FIRST FEW INPUT CARDS -
 INPUT CARD>!*** FMO 5.3 (Gamess) INPUT generated by Facio 22.1.1.32 ***                    
 INPUT CARD> $CONTRL RUNTYP=ENERGY NPRINT=-5 ISPHER=1 MAXIT=200 $END                        
 INPUT CARD> $SYSTEM MWORDS=63 MEMDDI=63 $END                                               
 INPUT CARD> $GDDI NGROUP=1 $END                                                            
 INPUT CARD> $SCF DIRSCF=.TRUE. NPUNCH=0 $END                                               
 INPUT CARD>!*** NumCPU : 2  MemPerNode : 512MB                                             
 INPUT CARD> $PCM SOLVNT=WATER IEF=-10 ICOMP=2 ICAV=1 IDISP=1 IFMO=-1 $END                  
 INPUT CARD> $PCMCAV RADII=SUAHF $END                                                       
 INPUT CARD> $TESCAV NTSALL=60 $END                                                         
 INPUT CARD> $FMOPRP                                                                        
 INPUT CARD>    NAODIR=200                                                                  
 INPUT CARD>    NGRFMO(1)=1, 1, 0, 0, 0,   0, 0, 0, 0, 0                                    
 INPUT CARD>    IPIEDA=1                                                                    
 INPUT CARD>    NPRINT=9                                                                    
 INPUT CARD> $END                                                                           
 INPUT CARD> $FMO                                                                           
 INPUT CARD>      SCFTYP(1)=RHF                                                             
 INPUT CARD>      MODGRD=10                                                                 
 INPUT CARD>      MODMUL=0                                                                  
 INPUT CARD>      MAXCAO=5                                                                  
 INPUT CARD>      MAXBND=14                                                                 
 INPUT CARD>      NLAYER=1                                                                  
 INPUT CARD>      MPLEVL(1)=2                                                               
 INPUT CARD>      NFRAG=12                                                                  
 INPUT CARD>      ICHARG(1)=-1, -1, -1, -1, -1, 0, -1, -1, -1, -1, -1, 0                    
 INPUT CARD>      FRGNAM(1)=F1, F2, F3, F4, F5, F6, F7, F8, F9, F10, F11, F12               
 INPUT CARD>      indat(1)=0                                                                
 INPUT CARD>               1   -33   0                                                      
 INPUT CARD>               34   -67   0                                                     
 INPUT CARD>               68   -101   0                                                    
 INPUT CARD>               102   -134   0                                                   
 INPUT CARD>               135   -165   0                                                   
 INPUT CARD>               166   -198   0                                                   
 INPUT CARD>               199   -229   0                                                   
 INPUT CARD>               230   -263   0                                                   
 INPUT CARD>               264   -297   0                                                   
 INPUT CARD>               298   -330   0                                                   
 INPUT CARD>               331   -361   0                                                   
 INPUT CARD>               362   -392   0                                                   
 INPUT CARD> $END                                                                           
 INPUT CARD>                                                                                
 INPUT CARD> $FMOBND                                                                        
 INPUT CARD>   -34   33       6-31G*    MINI                                                
 INPUT CARD>   -68   67       6-31G*    MINI                                                
 INPUT CARD>   -102   101       6-31G*    MINI                                              
 INPUT CARD>   -135   134       6-31G*    MINI                                              
 INPUT CARD>   -166   165       6-31G*    MINI                                              
 INPUT CARD>   -199   198       6-31G*    MINI                                              
 INPUT CARD>   -230   229       6-31G*    MINI                                              
 INPUT CARD>   -264   263       6-31G*    MINI                                              


 -------------------------------------------------------------
 GROUP DDI, PROGRAMMED BY: RYAN M. OLSON AND DMITRI G. FEDOROV
        FEDOROV ET AL., J. COMPUT. CHEM., 25 (2004) 872.
 -------------------------------------------------------------

 -------------------------------------------------------
 GDDI: INITIALIZATION COMPLETED FOR GROUP     1 OF     1
 WITH    16 PROCESSES BALTYP=DLB   global rank=        0
 -------------------------------------------------------

   63000000 WORDS OF MEMORY AVAILABLE


     RUN TITLE
     ---------
  FMO calculation                                                                

 THE POINT GROUP OF THE MOLECULE IS C1      
 THE ORDER OF THE PRINCIPAL AXIS IS     0

 ATOM   ATOMIC CHARGE
 H.1-1       1.0
 O.1-1       8.0
 C.1-1       6.0
 N.1-1       7.0
 P.1-1      15.0

     ATOMIC BASIS SET LIBRARY
     ----------------
 THE CONTRACTED PRIMITIVE FUNCTIONS HAVE BEEN UNNORMALIZED
 THE CONTRACTED BASIS FUNCTIONS ARE NOW NORMALIZED TO UNITY

  SHELL TYPE  PRIMITIVE        EXPONENT          CONTRACTION COEFFICIENT(S)

 H.1-1     

      1   S       1            18.7311370    0.033494604338
      1   S       2             2.8253944    0.234726953484
      1   S       3             0.6401217    0.813757326146

      2   S       4             0.1612778    1.000000000000

 O.1-1     

      3   S       5          5484.6716600    0.001831074430
      3   S       6           825.2349460    0.013950172200
      3   S       7           188.0469580    0.068445078098
      3   S       8            52.9645000    0.232714335992
      3   S       9            16.8975704    0.470192897984
      3   S      10             5.7996353    0.358520852987

      4   L      11            15.5396162   -0.110777549525    0.070874268231
      4   L      12             3.5999336   -0.148026262701    0.339752839147
      4   L      13             1.0137618    1.130767015354    0.727158577316

      5   L      14             0.2700058    1.000000000000    1.000000000000

      6   D      15             0.8000000    1.000000000000

 C.1-1     

      7   S      16          3047.5248800    0.001834737132
      7   S      17           457.3695180    0.014037322813
      7   S      18           103.9486850    0.068842622264
      7   S      19            29.2101553    0.232184443216
      7   S      20             9.2866630    0.467941348435
      7   S      21             3.1639270    0.362311985337

      8   L      22             7.8682723   -0.119332419775    0.068999066591
      8   L      23             1.8812885   -0.160854151696    0.316423960957
      8   L      24             0.5442493    1.143456437840    0.744308290898

      9   L      25             0.1687145    1.000000000000    1.000000000000

     10   D      26             0.8000000    1.000000000000

 N.1-1     

     11   S      27          4173.5114600    0.001834772160
     11   S      28           627.4579110    0.013994627002
     11   S      29           142.9020930    0.068586551812
     11   S      30            40.2343293    0.232240873040
     11   S      31            12.8202129    0.469069948082
     11   S      32             4.3904370    0.360455199063

     12   L      33            11.6263619   -0.114961181702    0.067579743878
     12   L      34             2.7162798   -0.169117478561    0.323907295893
     12   L      35             0.7722184    1.145851947027    0.740895139755

     13   L      36             0.2120315    1.000000000000    1.000000000000

     14   D      37             0.8000000    1.000000000000

 P.1-1     

     15   S      38         19413.3000000    0.001851598923
     15   S      39          2909.4200000    0.014206191735
     15   S      40           661.3640000    0.069999459277
     15   S      41           185.7590000    0.240078860331
     15   S      42            59.1943000    0.484761717984
     15   S      43            20.0310000    0.335199804993

     16   L      44           339.4780000   -0.002782170105    0.004564616191
     16   L      45            81.0101000   -0.036049901354    0.033693571881
     16   L      46            25.8780000   -0.116631004382    0.139754883368
     16   L      47             9.4522100    0.096832803638    0.339361716786
     16   L      48             3.6656600    0.614418023082    0.450920623685
     16   L      49             1.4674600    0.403798015170    0.238585800889

     17   L      50             2.1562300   -0.252924113863   -0.017765312733
     17   L      51             0.7489970    0.032851844678    0.274058196433
     17   L      52             0.2831450    1.081254761783    0.785421562957

     18   L      53             0.0998317    1.000000000000    1.000000000000

     19   D      54             0.5500000    1.000000000000

 TOTAL NUMBER OF BASIS SET SHELLS             =   19
 NUMBER OF CARTESIAN GAUSSIAN BASIS FUNCTIONS =   66

     $CONTRL OPTIONS
     ---------------
 SCFTYP=RHF          RUNTYP=ENERGY       EXETYP=RUN     
 MPLEVL=       0     CITYP =NONE         CCTYP =NONE         VBTYP =NONE    
 DFTTYP=NONE         TDDFT =NONE    
 MULT  =       1     ICHARG=       0     NZVAR =       0     COORD =UNIQUE  
 PP    =NONE         RELWFN=NONE         LOCAL =NONE         NUMGRD=       F
 ISPHER=       1     NOSYM =       0     MAXIT =     200     UNITS =ANGS    
 PLTORB=       F     MOLPLT=       F     AIMPAC=       F     FRIEND=        
 NPRINT=      -5     IREST =       0     GEOM  =INPUT   
 NORMF =       0     NORMP =       0     ITOL  =      24     ICUT  =      12
 INTTYP=BEST         GRDTYP=BEST         QMTTOL= 1.0E-06

     $SYSTEM OPTIONS
     ---------------
  REPLICATED MEMORY=    63000000 WORDS (ON EVERY NODE).
 DISTRIBUTED MEMDDI=          63 MILLION WORDS IN AGGREGATE,
 MEMDDI DISTRIBUTED OVER  16 PROCESSORS IS     3937500 WORDS/PROCESSOR.
 TOTAL MEMORY REQUESTED ON EACH PROCESSOR=    66937500 WORDS.
 TIMLIM=      525600.00 MINUTES, OR     365.0 DAYS.
 PARALL= T  BALTYP=  DLB     KDIAG=    0  COREFL= F
 MXSEQ2=     300 MXSEQ3=     150  mem10=         0

 ** LOOKING UP INTERNALLY STORED DATA FOR SOLVENT=WATER    **
 OPTICAL AND PHYSICAL CONSTANTS:
 EPS= 78.390; EPSINF=  1.776; RSOLV=  1.385 A; VMOL=  18.070 ML/MOL;
 TCE= .25700E-03 1/K; STEN= 71.810 DYN/CM;  DSTEN=  0.6500; CMF=  1.2770


     -----------------------------------
     INPUT FOR PCM SOLVATION CALCULATION 
     -----------------------------------
     IEF   =     -10
     ICOMP =       2     IFIELD=       0     ICAV  =       1
     IDISP =       1     IREP  =       0     IDP   =       0

     SOLVNT=WATER        EPS   = 78.3900     EPSINF=  1.7760
     VMOL  = 18.0700     TCE   =  0.00025700 STEN  = 71.8100
     DSTEN =  0.6500     CMF   =  1.2770     RSOLV =  1.3850

     NESFP =       0
     OMEGA = 40.0000     RET   =100.0000     FRO   =  0.7000

     TABS  =298.0000     IPRINT=       0

     --------------------------------
     INPUT FOR ITERATIVE C-PCM METHOD 
     --------------------------------
     IPCMIT  =         1     MXDIIS  =        50
     MXITR1  =       200     MXITR2  =       200
     THRES   = 0.100E-09     IMUL    =         3
     RCUT(1) =   20.0000     RCUT(2) =   50.0000

     IDIRCT  =         1
     IMGABI  =         0     RABI    =    4.0000
     IMGASC  =         0     RASC    =   20.0000
     THRSLS  = 0.500E-03     DENSLS  =    0.0100
     IEFPOL  =         1     REFPOL  =    0.0000

     INPUT FOR ISOTROPIC DIELECTRICS
     -------------------------------
     EPS=    78.39

          ----------------
          PROPERTIES INPUT
          ----------------

     MOMENTS            FIELD           POTENTIAL          DENSITY
 IEMOM =       1   IEFLD =       0   IEPOT =       0   IEDEN =       0
 WHERE =COMASS     WHERE =NUCLEI     WHERE =NUCLEI     WHERE =NUCLEI  
 OUTPUT=BOTH       OUTPUT=BOTH       OUTPUT=NONE       OUTPUT=BOTH    
 IEMINT=       0   IEFINT=       0                     IEDINT=       0
                                                       MORB  =       0
          EXTRAPOLATION IN EFFECT
          SOSCF IN EFFECT
 ORBITAL PRINTING OPTION: NPREO=     1 32767     2     1

     -------------------------------
     INTEGRAL TRANSFORMATION OPTIONS
     -------------------------------
     NWORD  =            0
     CUTOFF = 1.0E-10     MPTRAN =       0
     DIRTRF =       T     AOINTS =DUP     

          ----------------------
          INTEGRAL INPUT OPTIONS
          ----------------------
 NOPK  =       1 NORDER=       0 SCHWRZ=       T

 ..... DONE SETTING UP THE RUN .....
 CPU     0: STEP CPU TIME=     0.04 TOTAL CPU TIME=          0.0 (      0.0 MIN)
 TOTAL WALL CLOCK TIME=          0.1 SECONDS, CPU UTILIZATION IS    57.14%
 CPU     0: STEP CPU TIME=     0.00 TOTAL CPU TIME=          0.0 (      0.0 MIN)
 TOTAL WALL CLOCK TIME=          0.1 SECONDS, CPU UTILIZATION IS    57.14%

                    ----------------------
                    AO INTEGRAL TECHNOLOGY
                    ----------------------
     S,P,L SHELL ROTATED AXIS INTEGRALS, REPROGRAMMED BY
        KAZUYA ISHIMURA (IMS) AND JOSE SIERRA (SYNSTAR).
     S,P,D,L SHELL ROTATED AXIS INTEGRALS PROGRAMMED BY
        KAZUYA ISHIMURA (INSTITUTE FOR MOLECULAR SCIENCE).
     S,P,D,F,G SHELL TO TOTAL QUARTET ANGULAR MOMENTUM SUM 5,
        ERIC PROGRAM BY GRAHAM FLETCHER (ELORET AND NASA ADVANCED
        SUPERCOMPUTING DIVISION, AMES RESEARCH CENTER).
     S,P,D,F,G,L SHELL GENERAL RYS QUADRATURE PROGRAMMED BY
        MICHEL DUPUIS (PACIFIC NORTHWEST NATIONAL LABORATORY).
 Setting modorb=1 flag...
 Setting modorb=1 flag...

          -----------------------
          MP2 CONTROL INFORMATION
          -----------------------
          NACORE =        8  NBCORE =        8
          LMOMP2 =        F  AOINTS = DUP     
          METHOD =        2  NWORD  =               0
          MP2PRP =        F  OSPT   = NONE    
          CUTOFF = 1.00E-12  CPHFBS = BASISAO 
          CODE   = IMS     

          NUMBER OF CORE -A-  ORBITALS =     8
          NUMBER OF CORE -B-  ORBITALS =     8
          NUMBER OF OCC. -A-  ORBITALS =    18
          NUMBER OF OCC. -B-  ORBITALS =    18
          NUMBER OF MOLECULAR ORBITALS =    66
          NUMBER OF   BASIS  FUNCTIONS =    66

 CPU     0: STEP CPU TIME=     0.02 TOTAL CPU TIME=          0.1 (      0.0 MIN)
 TOTAL WALL CLOCK TIME=          0.1 SECONDS, CPU UTILIZATION IS    60.00%
 CPU     0: STEP CPU TIME=     0.00 TOTAL CPU TIME=          0.1 (      0.0 MIN)
 TOTAL WALL CLOCK TIME=          0.1 SECONDS, CPU UTILIZATION IS    60.00%

     INPUT FOR CAVITY DEFINITION 
     ---------------------------
   ATOM               COORDINATES                RADIUS       EPS
      1    -40.1300    112.2780    -49.6860      0.0100     78.3900
      2    -40.0290    113.0100    -50.3230      1.5900     78.3900
      3    -38.9200    113.7990    -49.8670      1.7700     78.3900
      4    -38.0550    113.1310    -49.6600      0.0100     78.3900
      5    -39.1980    114.3070    -48.9140      0.0100     78.3900
      6    -38.4810    114.8700    -50.8700      1.7700     78.3900
      7    -37.6610    115.4880    -50.4480      0.0100     78.3900
      8    -37.9640    114.2410    -52.0830      1.5900     78.3900
      9    -38.3980    114.9950    -53.2130      1.7700     78.3900
     10    -37.4700    115.2670    -53.7690      0.0100     78.3900
     11    -39.2920    114.2240    -54.1230      1.6800     78.3900
     12    -39.9360    113.0940    -53.6730      1.7700     78.3900
     13    -39.7470    112.8100    -52.6370      0.0100     78.3900
     14    -40.7220    112.3710    -54.4800      1.7700     78.3900
     15    -41.2250    111.4670    -54.1440      0.0100     78.3900
     16    -39.4950    114.6550    -55.4330      1.7700     78.3900
     17    -38.9310    115.6890    -55.8220      1.5900     78.3900
     18    -40.2800    113.9340    -56.2650      1.6800     78.3900
     19    -40.8860    112.8180    -55.8210      1.7700     78.3900
     20    -41.6430    112.1140    -56.6610      1.6800     78.3900
     21    -41.7950    112.4540    -57.5920      0.0100     78.3900
     22    -42.0980    111.2700    -56.3770      0.0100     78.3900
     23    -39.0410    116.2670    -52.6900      1.7700     78.3900
     24    -39.8420    116.6470    -53.3590      0.0100     78.3900
     25    -38.0560    117.2640    -52.5060      1.5900     78.3900
     26    -38.4890    117.9890    -52.0410      0.0100     78.3900
     27    -39.5980    115.8040    -51.3480      1.7700     78.3900
     28    -40.4980    115.1640    -51.5090      0.0100     78.3900
     29    -39.8120    116.8580    -50.3670      1.5900     78.3900
     30    -41.2410    117.5410    -50.3700      2.1000     78.3900
     31    -42.2840    116.4970    -50.2870      1.5900     78.3900
     32    -41.2560    118.5770    -49.3160      1.5900     78.3900
     33    -41.3310    118.2310    -51.7760      1.5900     78.3900
     34    -40.6080    119.4560    -52.0300      1.7700     78.3900
     35    -39.5080    119.2970    -51.9730      0.0100     78.3900
     36    -40.8810    120.2420    -51.2820      0.0100     78.3900
     37    -40.9340    119.9860    -53.4310      1.7700     78.3900
     38    -40.3430    120.9050    -53.6510      0.0100     78.3900
     39    -40.5670    119.0110    -54.4500      1.5900     78.3900
     40    -41.5240    119.0590    -55.5000      1.7700     78.3900
     41    -40.9530    119.2940    -56.4280      0.0100     78.3900
     42    -42.2040    117.7670    -55.6710      1.6800     78.3900
     43    -42.8230    117.3190    -56.8070      1.7700     78.3900
     44    -43.8820    117.8300    -60.0690      1.6800     78.3900
     45    -43.5410    118.7460    -60.2750      0.0100     78.3900
     46    -44.4430    117.3480    -60.7500      0.0100     78.3900
     47    -42.9260    117.9870    -57.9740      1.6800     78.3900
     48    -43.6440    117.3160    -58.8740      1.7700     78.3900
     49    -44.1090    116.0460    -58.6670      1.6800     78.3900
     50    -44.6680    115.6230    -59.3930      0.0100     78.3900
     51    -43.9880    115.3160    -57.4920      1.7700     78.3900
     52    -44.4350    114.1660    -57.3910      1.5900     78.3900
     53    -43.2840    116.0490    -56.4960      1.7700     78.3900
     54    -42.9680    115.7150    -55.1800      1.6800     78.3900
     55    -42.3330    116.7700    -54.7300      1.7700     78.3900
     56    -41.9260    116.8850    -53.7230      0.0100     78.3900
     57    -42.4920    120.1930    -55.2040      1.7700     78.3900
     58    -43.5300    119.9720    -55.5400      0.0100     78.3900
     59    -42.0310    121.3830    -55.8130      1.5900     78.3900
     60    -42.6460    122.0850    -55.5500      0.0100     78.3900
     61    -42.4160    120.2900    -53.6800      1.7700     78.3900
     62    -43.0100    119.4770    -53.2080      0.0100     78.3900
     63    -42.7140    121.5730    -53.1120      1.5900     78.3900
     64    -44.1350    122.1980    -52.9650      2.1000     78.3900
     65    -44.9690    121.3070    -52.1240      1.5900     78.3900
     66    -43.9480    123.5870    -52.4820      1.5900     78.3900
     67    -44.7170    122.2680    -54.4190      1.5900     78.3900
     68    -46.1580    122.3520    -54.6010      1.7700     78.3900
     69    -46.5670    123.2660    -54.1080      0.0100     78.3900
     70    -46.6710    121.4770    -54.1330      0.0100     78.3900
     71    -46.5570    122.4170    -56.0960      1.7700     78.3900
     72    -46.3870    123.4390    -56.4940      0.0100     78.3900
     73    -45.7300    121.5170    -56.9090      1.5900     78.3900
     74    -46.5490    120.8190    -57.8360      1.7700     78.3900
     75    -46.0590    120.9540    -58.8240      0.0100     78.3900
     76    -46.6510    119.3640    -57.5570      1.6800     78.3900
     77    -46.4660    118.6860    -56.3710      1.7700     78.3900
     78    -45.7870    118.7460    -52.9900      1.6800     78.3900
     79    -45.7710    118.1210    -52.2110      0.0100     78.3900
     80    -45.5820    119.7200    -52.8490      0.0100     78.3900
     81    -46.1650    119.2250    -55.1840      1.6800     78.3900
     82    -46.0800    118.3480    -54.2130      1.7700     78.3900
     83    -46.2850    117.0070    -54.3930      1.6800     78.3900
     84    -46.2210    116.4020    -53.5950      0.0100     78.3900
     85    -46.5920    116.4050    -55.6070      1.7700     78.3900
     86    -46.7580    115.1770    -55.6950      1.5900     78.3900
     87    -46.6860    117.3550    -56.6570      1.7700     78.3900
     88    -47.0010    117.1930    -57.9920      1.6800     78.3900
     89    -46.9810    118.4040    -58.4870      1.7700     78.3900
     90    -47.1860    118.6490    -59.5310      0.0100     78.3900
     91    -47.8940    121.5030    -57.8450      1.7700     78.3900
     92    -48.7240    120.8130    -58.1010      0.0100     78.3900
     93    -47.8850    122.5870    -58.7550      1.5900     78.3900
     94    -48.6870    123.0870    -58.5630      0.0100     78.3900
     95    -48.0080    121.9940    -56.4040      1.7700     78.3900
     96    -48.2370    121.1410    -55.7240      0.0100     78.3900
     97    -48.9000    123.1190    -56.2190      1.5900     78.3900
     98    -50.4320    122.8590    -55.9600      2.1000     78.3900
     99    -50.5530    121.8300    -54.9080      1.5900     78.3900
    100    -51.0860    124.1600    -55.6970      1.5900     78.3900
    101    -50.9710    122.2670    -57.3170      1.5900     78.3900
    102    -51.2380    123.1140    -58.4580      1.7700     78.3900
    103    -50.2910    123.5310    -58.8700      0.0100     78.3900
    104    -51.8890    123.9730    -58.1800      0.0100     78.3900
    105    -51.9530    122.3330    -59.5750      1.7700     78.3900
    106    -52.0970    122.9740    -60.4700      0.0100     78.3900
    107    -51.1440    121.1980    -59.9900      1.5900     78.3900
    108    -51.9920    120.0950    -60.2730      1.7700     78.3900
    109    -51.7740    119.7900    -61.3230      0.0100     78.3900
    110    -51.7060    118.9720    -59.3800      1.6800     78.3900
    111    -51.6120    116.9700    -58.4860      1.7700     78.3900
    112    -50.8560    117.7980    -57.6660      1.6800     78.3900
    113    -50.9340    118.9690    -58.2450      1.7700     78.3900
    114    -50.4630    119.8830    -57.8810      0.0100     78.3900
    115    -52.7420    115.0990    -59.3920      1.6800     78.3900
    116    -53.2150    115.9290    -60.3180      1.7700     78.3900
    117    -53.8880    115.4650    -61.0410      0.0100     78.3900
    118    -52.9720    117.2310    -60.4940      1.6800     78.3900
    119    -52.1540    117.6890    -59.5360      1.7700     78.3900
    120    -51.9150    115.5950    -58.4340      1.7700     78.3900
    121    -51.4290    114.7750    -57.4890      1.6800     78.3900
    122    -50.7900    115.0790    -56.7820      0.0100     78.3900
    123    -51.7210    113.8130    -57.5130      0.0100     78.3900
    124    -53.4300    120.5670    -60.1690      1.7700     78.3900
    125    -54.1140    119.7860    -59.7680      0.0100     78.3900
    126    -53.8900    120.9910    -61.4410      1.5900     78.3900
    127    -54.7530    121.4160    -61.3110      0.0100     78.3900
    128    -53.3090    121.7240    -59.1850      1.7700     78.3900
    129    -53.1980    121.3390    -58.1450      0.0100     78.3900
    130    -54.3450    122.7160    -59.2990      1.5900     78.3900
    131    -55.6960    122.5650    -58.5060      2.1000     78.3900
    132    -55.3830    122.3410    -57.0790      1.5900     78.3900
    133    -56.5210    123.7450    -58.8440      1.5900     78.3900
    134    -56.3910    121.2820    -59.0980      1.5900     78.3900
    135    -57.4190    120.6240    -58.3090      1.7700     78.3900
    136    -58.3530    121.2340    -58.2960      0.0100     78.3900
    137    -57.0890    120.4820    -57.2510      0.0100     78.3900
    138    -57.7520    119.2280    -58.8600      1.7700     78.3900
    139    -58.3080    119.3080    -59.8230      0.0100     78.3900
    140    -56.5220    118.4970    -59.1400      1.5900     78.3900
    141    -56.6660    117.1400    -58.7480      1.7700     78.3900
    142    -56.3990    116.5400    -59.6480      0.0100     78.3900
    143    -55.7470    116.7750    -57.6320      1.6800     78.3900
    144    -55.1520    117.7640    -56.8710      1.7700     78.3900
    145    -55.4020    118.7950    -57.1320      0.0100     78.3900
    146    -54.3010    117.4640    -55.8820      1.7700     78.3900
    147    -53.8080    118.2290    -55.2860      0.0100     78.3900
    148    -55.4870    115.4350    -57.3470      1.7700     78.3900
    149    -56.0500    114.5510    -58.0140      1.5900     78.3900
    150    -54.6320    115.1210    -56.3500      1.6800     78.3900
    151    -54.0320    116.0890    -55.6340      1.7700     78.3900
    152    -53.1630    115.7510    -54.6810      1.6800     78.3900
    153    -53.0360    114.7800    -54.4730      0.0100     78.3900
    154    -52.6860    116.4370    -54.1280      0.0100     78.3900
    155    -58.1340    116.9200    -58.4180      1.7700     78.3900
    156    -58.2840    116.1390    -57.6430      0.0100     78.3900
    157    -58.8560    116.5770    -59.5930      1.5900     78.3900
    158    -59.8020    116.6290    -59.3830      0.0100     78.3900
    159    -58.5200    118.3000    -57.8970      1.7700     78.3900
    160    -58.0620    118.4450    -56.8880      0.0100     78.3900
    161    -59.9370    118.5880    -57.9380      1.5900     78.3900
    162    -60.7370    118.8220    -56.6010      2.1000     78.3900
    163    -59.8830    119.5490    -55.6370      1.5900     78.3900
    164    -62.0440    119.4490    -56.9160      1.5900     78.3900
    165    -60.9690    117.3520    -56.0810      1.5900     78.3900
    166    -61.9880    116.5230    -56.6940      1.7700     78.3900
    167    -61.8250    116.4180    -57.7930      0.0100     78.3900
    168    -62.9970    116.9600    -56.5310      0.0100     78.3900
    169    -62.0260    115.1250    -56.0670      1.7700     78.3900
    170    -62.8500    114.5140    -56.4970      0.0100     78.3900
    171    -60.7820    114.4310    -56.3490      1.5900     78.3900
    172    -60.4170    113.6550    -55.2210      1.7700     78.3900
    173    -60.3050    112.6080    -55.5790      0.0100     78.3900
    174    -59.1350    114.1030    -54.6620      1.6800     78.3900
    175    -58.3240    113.3780    -53.8340      1.7700     78.3900
    176    -57.6650    110.4870    -52.0480      1.6800     78.3900
    177    -58.4830    109.9370    -52.2110      0.0100     78.3900
    178    -56.9360    110.1230    -51.4630      0.0100     78.3900
    179    -58.5700    112.1360    -53.3800      1.6800     78.3900
    180    -57.5880    111.6810    -52.6040      1.7700     78.3900
    181    -56.4590    112.3990    -52.3220      1.6800     78.3900
    182    -55.7700    111.9850    -51.7140      0.0100     78.3900
    183    -56.1840    113.6840    -52.7680      1.7700     78.3900
    184    -55.1360    114.2530    -52.4520      1.5900     78.3900
    185    -57.2320    114.1860    -53.5850      1.7700     78.3900
    186    -57.3600    115.4060    -54.2390      1.6800     78.3900
    187    -58.5030    115.3080    -54.8750      1.7700     78.3900
    188    -58.9500    116.0770    -55.5100      0.0100     78.3900
    189    -61.5540    113.7240    -54.2130      1.7700     78.3900
    190    -61.1850    113.6940    -53.1650      0.0100     78.3900
    191    -62.4630    112.6540    -54.4400      1.5900     78.3900
    192    -63.2420    112.7710    -53.8650      0.0100     78.3900
    193    -62.1540    115.0890    -54.5370      1.7700     78.3900
    194    -61.5170    115.8970    -54.1190      0.0100     78.3900
    195    -63.5270    115.2600    -54.1400      1.5900     78.3900
    196    -63.6160    115.2080    -53.1690      0.0100     78.3900
    197    -49.3920    108.0510    -47.2600      0.0100     78.3900
    198    -50.2340    107.9960    -47.7530      1.5900     78.3900
    199    -50.9670    106.8860    -47.2140      1.7700     78.3900
    200    -51.1250    107.0550    -46.1270      0.0100     78.3900
    201    -50.3590    105.9610    -47.3340      0.0100     78.3900
    202    -52.3350    106.6630    -47.8730      1.7700     78.3900
    203    -52.8040    105.7340    -47.4780      0.0100     78.3900
    204    -53.2290    107.7650    -47.5440      1.5900     78.3900
    205    -54.0230    108.0740    -48.6850      1.7700     78.3900
    206    -55.0850    108.0160    -48.3450      0.0100     78.3900
    207    -53.7580    109.4380    -49.2210      1.6800     78.3900
    208    -52.5770    110.0860    -48.9340      1.7700     78.3900
    209    -51.8870    109.5640    -48.2690      0.0100     78.3900
    210    -52.3310    111.3200    -49.3930      1.7700     78.3900
    211    -51.4170    111.8560    -49.1380      0.0100     78.3900
    212    -54.6790    110.0380    -50.0760      1.7700     78.3900
    213    -55.7050    109.4150    -50.3900      1.5900     78.3900
    214    -54.4640    111.2930    -50.5240      1.6800     78.3900
    215    -53.3280    111.9370    -50.2010      1.7700     78.3900
    216    -53.1550    113.1850    -50.6290      1.6800     78.3900
    217    -53.7890    113.5510    -51.3140      0.0100     78.3900
    218    -52.3150    113.6910    -50.4300      0.0100     78.3900
    219    -53.7800    106.9910    -49.7140      1.7700     78.3900
    220    -53.8850    107.3600    -50.7560      0.0100     78.3900
    221    -54.6690    105.9090    -49.5000      1.5900     78.3900
    222    -54.3650    105.1850    -50.0620      0.0100     78.3900
    223    -52.3390    106.6020    -49.4070      1.7700     78.3900
    224    -51.6400    107.3910    -49.7690      0.0100     78.3900
    225    -51.9630    105.2790    -49.8400      1.5900     78.3900
    226    -51.3800    105.0670    -51.2860      2.1000     78.3900
    227    -50.1800    105.9150    -51.4480      1.5900     78.3900
    228    -51.2030    103.6120    -51.4950      1.5900     78.3900
    229    -52.5160    105.5950    -52.2420      1.5900     78.3900
    230    -53.6490    104.7430    -52.5310      1.7700     78.3900
    231    -54.2660    104.5720    -51.6230      0.0100     78.3900
    232    -53.3130    103.7480    -52.9070      0.0100     78.3900
    233    -54.5570    105.3500    -53.6040      1.7700     78.3900
    234    -55.4070    104.6690    -53.8260      0.0100     78.3900
    235    -55.1410    106.6000    -53.1440      1.5900     78.3900
    236    -55.2120    107.5040    -54.2400      1.7700     78.3900
    237    -56.2770    107.8160    -54.3270      0.0100     78.3900
    238    -54.3790    108.6980    -54.0120      1.6800     78.3900
    239    -54.5640    109.9270    -54.5860      1.7700     78.3900
    240    -56.2520    111.9960    -56.8060      1.6800     78.3900
    241    -56.9370    111.3890    -57.2020      0.0100     78.3900
    242    -56.1430    112.9270    -57.1690      0.0100     78.3900
    243    -55.5360    110.2580    -55.4570      1.6800     78.3900
    244    -55.4300    111.5170    -55.8830      1.7700     78.3900
    245    -54.5250    112.4030    -55.3700      1.6800     78.3900
    246    -54.4730    113.3200    -55.7900      0.0100     78.3900
    247    -53.5360    112.1060    -54.4370      1.7700     78.3900
    248    -52.7580    112.9700    -54.0250      1.5900     78.3900
    249    -53.5750    110.7350    -54.0580      1.7700     78.3900
    250    -52.7530    110.0110    -53.1990      1.6800     78.3900
    251    -53.2700    108.8040    -53.2020      1.7700     78.3900
    252    -52.9000    107.9530    -52.6270      0.0100     78.3900
    253    -54.7990    106.7500    -55.4930      1.7700     78.3900
    254    -54.2670    107.3960    -56.2280      0.0100     78.3900
    255    -55.9340    106.1580    -56.1090      1.5900     78.3900
    256    -55.6030    105.5810    -56.8140      0.0100     78.3900
    257    -53.8590    105.6950    -54.9180      1.7700     78.3900
    258    -52.8790    106.1540    -54.6530      0.0100     78.3900
    259    -53.7120    104.4940    -55.7030      1.5900     78.3900
    260    -52.6940    104.4630    -56.8880      2.1000     78.3900
    261    -51.3830    104.9630    -56.4160      1.5900     78.3900
    262    -52.7410    103.1030    -57.4760      1.5900     78.3900
    263    -53.2980    105.4430    -57.9560      1.5900     78.3900
    264    -52.3950    105.9700    -58.9660      1.7700     78.3900
    265    -51.9480    105.1570    -59.5820      0.0100     78.3900
    266    -51.5480    106.4990    -58.4750      0.0100     78.3900
    267    -53.0830    106.9810    -59.9100      1.7700     78.3900
    268    -53.7450    106.4490    -60.6200      0.0100     78.3900
    269    -53.9250    107.9060    -59.1510      1.5900     78.3900
    270    -53.7570    109.2200    -59.6550      1.7700     78.3900
    271    -54.7840    109.6000    -59.8420      0.0100     78.3900
    272    -53.0730    110.1350    -58.7130      1.6800     78.3900
    273    -52.2030    109.8690    -57.6690      1.7700     78.3900
    274    -50.4640    107.5810    -55.7430      1.6800     78.3900
    275    -49.7830    107.5720    -55.0160      0.0100     78.3900
    276    -50.8120    106.7090    -56.1080      0.0100     78.3900
    277    -51.7790    108.6610    -57.2690      1.6800     78.3900
    278    -50.9380    108.7050    -56.2560      1.7700     78.3900
    279    -50.4670    109.8790    -55.7330      1.6800     78.3900
    280    -49.8460    109.8400    -54.9460      0.0100     78.3900
    281    -50.8550    111.1520    -56.1410      1.7700     78.3900
    282    -50.3760    112.1640    -55.6160      1.5900     78.3900
    283    -51.8340    111.0950    -57.1690      1.7700     78.3900
    284    -52.4970    112.1110    -57.8310      1.6800     78.3900
    285    -53.2060    111.5050    -58.7450      1.7700     78.3900
    286    -53.8440    112.0150    -59.4720      0.0100     78.3900
    287    -53.0160    109.1030    -60.9630      1.7700     78.3900
    288    -52.4150    110.0040    -61.2060      0.0100     78.3900
    289    -53.9320    108.8500    -62.0100      1.5900     78.3900
    290    -53.3970    108.5780    -62.7640      0.0100     78.3900
    291    -52.1250    107.8950    -60.7040      1.7700     78.3900
    292    -51.2930    108.1640    -60.0110      0.0100     78.3900
    293    -51.6670    107.2230    -61.8990      1.5900     78.3900
    294    -50.3310    107.6840    -62.5970      2.1000     78.3900
    295    -49.2650    107.7510    -61.5760      1.5900     78.3900
    296    -50.0780    106.7960    -63.7500      1.5900     78.3900
    297    -50.6520    109.1360    -63.1290      1.5900     78.3900
    298    -51.4740    109.2890    -64.3180      1.7700     78.3900
    299    -52.5130    108.9350    -64.1330      0.0100     78.3900
    300    -51.0740    108.6800    -65.1560      0.0100     78.3900
    301    -51.5590    110.7530    -64.7860      1.7700     78.3900
    302    -52.2690    110.8640    -65.6320      0.0100     78.3900
    303    -52.0610    111.5770    -63.6970      1.5900     78.3900
    304    -51.3540    112.8020    -63.6670      1.7700     78.3900
    305    -52.1230    113.6040    -63.7230      0.0100     78.3900
    306    -50.6030    112.9550    -62.4210      1.6800     78.3900
    307    -49.4530    113.8190    -60.7680      1.7700     78.3900
    308    -49.6480    112.4820    -60.4420      1.6800     78.3900
    309    -50.3480    112.0170    -61.4500      1.7700     78.3900
    310    -50.7040    110.9920    -61.5470      0.0100     78.3900
    311    -48.7310    116.0760    -60.7440      1.6800     78.3900
    312    -49.2970    116.1850    -61.9460      1.7700     78.3900
    313    -49.2050    117.1620    -62.4190      0.0100     78.3900
    314    -49.9900    115.2860    -62.6440      1.6800     78.3900
    315    -50.0270    114.1170    -61.9930      1.7700     78.3900
    316    -48.7940    114.8740    -60.1080      1.7700     78.3900
    317    -48.2150    114.7340    -58.9050      1.6800     78.3900
    318    -48.3210    113.9170    -58.3360      0.0100     78.3900
    319    -47.7540    115.5480    -58.5360      0.0100     78.3900
    320    -50.4670    112.8710    -64.8960      1.7700     78.3900
    321    -49.5070    113.3980    -64.7040      0.0100     78.3900
    322    -51.1590    113.5140    -65.9530      1.5900     78.3900
    323    -50.6270    113.4040    -66.7560      0.0100     78.3900
    324    -50.2200    111.3950    -65.1900      1.7700     78.3900
    325    -49.4590    110.9840    -64.4870      0.0100     78.3900
    326    -49.9240    111.0930    -66.5730      1.5900     78.3900
    327    -48.4380    111.1690    -67.0880      2.1000     78.3900
    328    -47.5680    110.4050    -66.1680      1.5900     78.3900
    329    -48.4080    110.7470    -68.5040      1.5900     78.3900
    330    -48.0740    112.7030    -67.0120      1.5900     78.3900
    331    -46.6640    113.0740    -66.9940      1.7700     78.3900
    332    -46.2340    112.9890    -68.0170      0.0100     78.3900
    333    -46.0720    112.4120    -66.3160      0.0100     78.3900
    334    -46.4230    114.5130    -66.4940      1.7700     78.3900
    335    -46.7620    115.2510    -67.2520      0.0100     78.3900
    336    -47.2060    114.7620    -65.2930      1.5900     78.3900
    337    -46.4340    115.5110    -64.3660      1.7700     78.3900
    338    -47.0600    116.3920    -64.0950      0.0100     78.3900
    339    -46.1190    114.7380    -63.1330      1.6800     78.3900
    340    -46.2320    113.3630    -63.1250      1.7700     78.3900
    341    -46.5770    112.8990    -64.0520      0.0100     78.3900
    342    -45.9500    112.6500    -62.0270      1.7700     78.3900
    343    -46.0350    111.5650    -62.0030      0.0100     78.3900
    344    -45.6540    115.4000    -61.9980      1.7700     78.3900
    345    -45.4880    116.6300    -62.0370      1.5900     78.3900
    346    -45.3870    114.6950    -60.8790      1.6800     78.3900
    347    -45.5250    113.3580    -60.8660      1.7700     78.3900
    348    -45.2500    112.6920    -59.7470      1.6800     78.3900
    349    -44.9200    113.2080    -58.9540      0.0100     78.3900
    350    -45.2970    111.6940    -59.6980      0.0100     78.3900
    351    -45.1890    115.9870    -65.0930      1.7700     78.3900
    352    -44.3150    116.1040    -64.4190      0.0100     78.3900
    353    -45.4490    117.2140    -65.7490      1.5900     78.3900
    354    -44.7220    117.3750    -66.3690      0.0100     78.3900
    355    -44.9780    114.8520    -66.0840      1.7700     78.3900
    356    -44.5870    113.9620    -65.5370      0.0100     78.3900
    357    -44.1930    115.2140    -67.2430      1.5900     78.3900
    358    -42.8060    114.5240    -67.5110      2.1000     78.3900
    359    -42.8570    113.1110    -67.0730      1.5900     78.3900
    360    -42.3840    114.7700    -68.9090      1.5900     78.3900
    361    -41.8440    115.3200    -66.5420      1.5900     78.3900
    362    -41.5190    116.6930    -66.8770      1.7700     78.3900
    363    -42.4400    117.3120    -67.0190      0.0100     78.3900
    364    -40.9360    116.7290    -67.8270      0.0100     78.3900
    365    -40.6620    117.3500    -65.7860      1.7700     78.3900
    366    -40.3140    118.3540    -66.1170      0.0100     78.3900
    367    -41.4640    117.5460    -64.5860      1.5900     78.3900
    368    -40.6580    117.3020    -63.4410      1.7700     78.3900
    369    -40.7190    118.2070    -62.7950      0.0100     78.3900
    370    -41.1520    116.1410    -62.6860      1.6800     78.3900
    371    -40.8710    115.8580    -61.3790      1.7700     78.3900
    372    -39.2510    116.6500    -58.4250      1.6800     78.3900
    373    -38.7410    117.4690    -58.6740      0.0100     78.3900
    374    -39.1730    116.2840    -57.4930      0.0100     78.3900
    375    -40.0890    116.5920    -60.5690      1.6800     78.3900
    376    -40.0090    116.0790    -59.3440      1.7700     78.3900
    377    -40.6650    114.9380    -58.9630      1.6800     78.3900
    378    -40.5370    114.6080    -58.0190      0.0100     78.3900
    379    -41.4680    114.1520    -59.7830      1.7700     78.3900
    380    -42.0110    113.1290    -59.3520      1.5900     78.3900
    381    -41.5520    114.6900    -61.0960      1.7700     78.3900
    382    -42.2420    114.2360    -62.2170      1.6800     78.3900
    383    -41.9770    115.1330    -63.1370      1.7700     78.3900
    384    -42.3520    115.1290    -64.1630      0.0100     78.3900
    385    -39.2220    117.1140    -63.9120      1.7700     78.3900
    386    -38.6680    116.3940    -63.2730      0.0100     78.3900
    387    -38.5460    118.3650    -63.9300      1.5900     78.3900
    388    -37.6730    118.2600    -64.3530      0.0100     78.3900
    389    -39.4420    116.5450    -65.3110      1.7700     78.3900
    390    -39.7340    115.4740    -65.2480      0.0100     78.3900
    391    -38.3340    116.7180    -66.2110      1.5900     78.3900
    392    -37.5650    116.2170    -65.8850      0.0100     78.3900

     ----------------------------
     INPUT FOR TESSERA DEFINITION
     ----------------------------
     NTSALL  =        60     MTHALL  =         4
     MTHAUT  =         0     AUTFRE  =    2.0000
     NTSFRZ  =        60     KEEPSM  =         0
     AREAKP  =   10.0000     BONDRY  =    1.0000
     AREATL  =    0.0100

     SPHERE     INITS       METHOD
          1        60       FIXPVA
          2        60       FIXPVA
          3        60       FIXPVA
          4        60       FIXPVA
          5        60       FIXPVA
          6        60       FIXPVA
          7        60       FIXPVA
          8        60       FIXPVA
          9        60       FIXPVA
         10        60       FIXPVA
         11        60       FIXPVA
         12        60       FIXPVA
         13        60       FIXPVA
         14        60       FIXPVA
         15        60       FIXPVA
         16        60       FIXPVA
         17        60       FIXPVA
         18        60       FIXPVA
         19        60       FIXPVA
         20        60       FIXPVA
         21        60       FIXPVA
         22        60       FIXPVA
         23        60       FIXPVA
         24        60       FIXPVA
         25        60       FIXPVA
         26        60       FIXPVA
         27        60       FIXPVA
         28        60       FIXPVA
         29        60       FIXPVA
         30        60       FIXPVA
         31        60       FIXPVA
         32        60       FIXPVA
         33        60       FIXPVA
         34        60       FIXPVA
         35        60       FIXPVA
         36        60       FIXPVA
         37        60       FIXPVA
         38        60       FIXPVA
         39        60       FIXPVA
         40        60       FIXPVA
         41        60       FIXPVA
         42        60       FIXPVA
         43        60       FIXPVA
         44        60       FIXPVA
         45        60       FIXPVA
         46        60       FIXPVA
         47        60       FIXPVA
         48        60       FIXPVA
         49        60       FIXPVA
         50        60       FIXPVA
         51        60       FIXPVA
         52        60       FIXPVA
         53        60       FIXPVA
         54        60       FIXPVA
         55        60       FIXPVA
         56        60       FIXPVA
         57        60       FIXPVA
         58        60       FIXPVA
         59        60       FIXPVA
         60        60       FIXPVA
         61        60       FIXPVA
         62        60       FIXPVA
         63        60       FIXPVA
         64        60       FIXPVA
         65        60       FIXPVA
         66        60       FIXPVA
         67        60       FIXPVA
         68        60       FIXPVA
         69        60       FIXPVA
         70        60       FIXPVA
         71        60       FIXPVA
         72        60       FIXPVA
         73        60       FIXPVA
         74        60       FIXPVA
         75        60       FIXPVA
         76        60       FIXPVA
         77        60       FIXPVA
         78        60       FIXPVA
         79        60       FIXPVA
         80        60       FIXPVA
         81        60       FIXPVA
         82        60       FIXPVA
         83        60       FIXPVA
         84        60       FIXPVA
         85        60       FIXPVA
         86        60       FIXPVA
         87        60       FIXPVA
         88        60       FIXPVA
         89        60       FIXPVA
         90        60       FIXPVA
         91        60       FIXPVA
         92        60       FIXPVA
         93        60       FIXPVA
         94        60       FIXPVA
         95        60       FIXPVA
         96        60       FIXPVA
         97        60       FIXPVA
         98        60       FIXPVA
         99        60       FIXPVA
        100        60       FIXPVA
        101        60       FIXPVA
        102        60       FIXPVA
        103        60       FIXPVA
        104        60       FIXPVA
        105        60       FIXPVA
        106        60       FIXPVA
        107        60       FIXPVA
        108        60       FIXPVA
        109        60       FIXPVA
        110        60       FIXPVA
        111        60       FIXPVA
        112        60       FIXPVA
        113        60       FIXPVA
        114        60       FIXPVA
        115        60       FIXPVA
        116        60       FIXPVA
        117        60       FIXPVA
        118        60       FIXPVA
        119        60       FIXPVA
        120        60       FIXPVA
        121        60       FIXPVA
        122        60       FIXPVA
        123        60       FIXPVA
        124        60       FIXPVA
        125        60       FIXPVA
        126        60       FIXPVA
        127        60       FIXPVA
        128        60       FIXPVA
        129        60       FIXPVA
        130        60       FIXPVA
        131        60       FIXPVA
        132        60       FIXPVA
        133        60       FIXPVA
        134        60       FIXPVA
        135        60       FIXPVA
        136        60       FIXPVA
        137        60       FIXPVA
        138        60       FIXPVA
        139        60       FIXPVA
        140        60       FIXPVA
        141        60       FIXPVA
        142        60       FIXPVA
        143        60       FIXPVA
        144        60       FIXPVA
        145        60       FIXPVA
        146        60       FIXPVA
        147        60       FIXPVA
        148        60       FIXPVA
        149        60       FIXPVA
        150        60       FIXPVA
        151        60       FIXPVA
        152        60       FIXPVA
        153        60       FIXPVA
        154        60       FIXPVA
        155        60       FIXPVA
        156        60       FIXPVA
        157        60       FIXPVA
        158        60       FIXPVA
        159        60       FIXPVA
        160        60       FIXPVA
        161        60       FIXPVA
        162        60       FIXPVA
        163        60       FIXPVA
        164        60       FIXPVA
        165        60       FIXPVA
        166        60       FIXPVA
        167        60       FIXPVA
        168        60       FIXPVA
        169        60       FIXPVA
        170        60       FIXPVA
        171        60       FIXPVA
        172        60       FIXPVA
        173        60       FIXPVA
        174        60       FIXPVA
        175        60       FIXPVA
        176        60       FIXPVA
        177        60       FIXPVA
        178        60       FIXPVA
        179        60       FIXPVA
        180        60       FIXPVA
        181        60       FIXPVA
        182        60       FIXPVA
        183        60       FIXPVA
        184        60       FIXPVA
        185        60       FIXPVA
        186        60       FIXPVA
        187        60       FIXPVA
        188        60       FIXPVA
        189        60       FIXPVA
        190        60       FIXPVA
        191        60       FIXPVA
        192        60       FIXPVA
        193        60       FIXPVA
        194        60       FIXPVA
        195        60       FIXPVA
        196        60       FIXPVA
        197        60       FIXPVA
        198        60       FIXPVA
        199        60       FIXPVA
        200        60       FIXPVA
        201        60       FIXPVA
        202        60       FIXPVA
        203        60       FIXPVA
        204        60       FIXPVA
        205        60       FIXPVA
        206        60       FIXPVA
        207        60       FIXPVA
        208        60       FIXPVA
        209        60       FIXPVA
        210        60       FIXPVA
        211        60       FIXPVA
        212        60       FIXPVA
        213        60       FIXPVA
        214        60       FIXPVA
        215        60       FIXPVA
        216        60       FIXPVA
        217        60       FIXPVA
        218        60       FIXPVA
        219        60       FIXPVA
        220        60       FIXPVA
        221        60       FIXPVA
        222        60       FIXPVA
        223        60       FIXPVA
        224        60       FIXPVA
        225        60       FIXPVA
        226        60       FIXPVA
        227        60       FIXPVA
        228        60       FIXPVA
        229        60       FIXPVA
        230        60       FIXPVA
        231        60       FIXPVA
        232        60       FIXPVA
        233        60       FIXPVA
        234        60       FIXPVA
        235        60       FIXPVA
        236        60       FIXPVA
        237        60       FIXPVA
        238        60       FIXPVA
        239        60       FIXPVA
        240        60       FIXPVA
        241        60       FIXPVA
        242        60       FIXPVA
        243        60       FIXPVA
        244        60       FIXPVA
        245        60       FIXPVA
        246        60       FIXPVA
        247        60       FIXPVA
        248        60       FIXPVA
        249        60       FIXPVA
        250        60       FIXPVA
        251        60       FIXPVA
        252        60       FIXPVA
        253        60       FIXPVA
        254        60       FIXPVA
        255        60       FIXPVA
        256        60       FIXPVA
        257        60       FIXPVA
        258        60       FIXPVA
        259        60       FIXPVA
        260        60       FIXPVA
        261        60       FIXPVA
        262        60       FIXPVA
        263        60       FIXPVA
        264        60       FIXPVA
        265        60       FIXPVA
        266        60       FIXPVA
        267        60       FIXPVA
        268        60       FIXPVA
        269        60       FIXPVA
        270        60       FIXPVA
        271        60       FIXPVA
        272        60       FIXPVA
        273        60       FIXPVA
        274        60       FIXPVA
        275        60       FIXPVA
        276        60       FIXPVA
        277        60       FIXPVA
        278        60       FIXPVA
        279        60       FIXPVA
        280        60       FIXPVA
        281        60       FIXPVA
        282        60       FIXPVA
        283        60       FIXPVA
        284        60       FIXPVA
        285        60       FIXPVA
        286        60       FIXPVA
        287        60       FIXPVA
        288        60       FIXPVA
        289        60       FIXPVA
        290        60       FIXPVA
        291        60       FIXPVA
        292        60       FIXPVA
        293        60       FIXPVA
        294        60       FIXPVA
        295        60       FIXPVA
        296        60       FIXPVA
        297        60       FIXPVA
        298        60       FIXPVA
        299        60       FIXPVA
        300        60       FIXPVA
        301        60       FIXPVA
        302        60       FIXPVA
        303        60       FIXPVA
        304        60       FIXPVA
        305        60       FIXPVA
        306        60       FIXPVA
        307        60       FIXPVA
        308        60       FIXPVA
        309        60       FIXPVA
        310        60       FIXPVA
        311        60       FIXPVA
        312        60       FIXPVA
        313        60       FIXPVA
        314        60       FIXPVA
        315        60       FIXPVA
        316        60       FIXPVA
        317        60       FIXPVA
        318        60       FIXPVA
        319        60       FIXPVA
        320        60       FIXPVA
        321        60       FIXPVA
        322        60       FIXPVA
        323        60       FIXPVA
        324        60       FIXPVA
        325        60       FIXPVA
        326        60       FIXPVA
        327        60       FIXPVA
        328        60       FIXPVA
        329        60       FIXPVA
        330        60       FIXPVA
        331        60       FIXPVA
        332        60       FIXPVA
        333        60       FIXPVA
        334        60       FIXPVA
        335        60       FIXPVA
        336        60       FIXPVA
        337        60       FIXPVA
        338        60       FIXPVA
        339        60       FIXPVA
        340        60       FIXPVA
        341        60       FIXPVA
        342        60       FIXPVA
        343        60       FIXPVA
        344        60       FIXPVA
        345        60       FIXPVA
        346        60       FIXPVA
        347        60       FIXPVA
        348        60       FIXPVA
        349        60       FIXPVA
        350        60       FIXPVA
        351        60       FIXPVA
        352        60       FIXPVA
        353        60       FIXPVA
        354        60       FIXPVA
        355        60       FIXPVA
        356        60       FIXPVA
        357        60       FIXPVA
        358        60       FIXPVA
        359        60       FIXPVA
        360        60       FIXPVA
        361        60       FIXPVA
        362        60       FIXPVA
        363        60       FIXPVA
        364        60       FIXPVA
        365        60       FIXPVA
        366        60       FIXPVA
        367        60       FIXPVA
        368        60       FIXPVA
        369        60       FIXPVA
        370        60       FIXPVA
        371        60       FIXPVA
        372        60       FIXPVA
        373        60       FIXPVA
        374        60       FIXPVA
        375        60       FIXPVA
        376        60       FIXPVA
        377        60       FIXPVA
        378        60       FIXPVA
        379        60       FIXPVA
        380        60       FIXPVA
        381        60       FIXPVA
        382        60       FIXPVA
        383        60       FIXPVA
        384        60       FIXPVA
        385        60       FIXPVA
        386        60       FIXPVA
        387        60       FIXPVA
        388        60       FIXPVA
        389        60       FIXPVA
        390        60       FIXPVA
        391        60       FIXPVA
        392        60       FIXPVA

     ------------------------------
      FIXPVA TESSELLATION FOR PCM
         PEIFENG SU AND HUI LI
     UNIVERSITY OF NEBRASKA-LINCOLN
     ------------------------------


 PCM DIMENSIONS: MXSP=   392, MXTS=     15680, MEMORY=        161115

     INPUT FOR CAVITY DEFINITION 
     ---------------------------
   ATOM               COORDINATES                RADIUS       EPS
      1    -40.1300    112.2780    -49.6860      0.0100     78.3900
      2    -40.0290    113.0100    -50.3230      1.5900     78.3900
      3    -38.9200    113.7990    -49.8670      1.7700     78.3900
      4    -38.0550    113.1310    -49.6600      0.0100     78.3900
      5    -39.1980    114.3070    -48.9140      0.0100     78.3900
      6    -38.4810    114.8700    -50.8700      1.7700     78.3900
      7    -37.6610    115.4880    -50.4480      0.0100     78.3900
      8    -37.9640    114.2410    -52.0830      1.5900     78.3900
      9    -38.3980    114.9950    -53.2130      1.7700     78.3900
     10    -37.4700    115.2670    -53.7690      0.0100     78.3900
     11    -39.2920    114.2240    -54.1230      1.6800     78.3900
     12    -39.9360    113.0940    -53.6730      1.7700     78.3900
     13    -39.7470    112.8100    -52.6370      0.0100     78.3900
     14    -40.7220    112.3710    -54.4800      1.7700     78.3900
     15    -41.2250    111.4670    -54.1440      0.0100     78.3900
     16    -39.4950    114.6550    -55.4330      1.7700     78.3900
     17    -38.9310    115.6890    -55.8220      1.5900     78.3900
     18    -40.2800    113.9340    -56.2650      1.6800     78.3900
     19    -40.8860    112.8180    -55.8210      1.7700     78.3900
     20    -41.6430    112.1140    -56.6610      1.6800     78.3900
     21    -41.7950    112.4540    -57.5920      0.0100     78.3900
     22    -42.0980    111.2700    -56.3770      0.0100     78.3900
     23    -39.0410    116.2670    -52.6900      1.7700     78.3900
     24    -39.8420    116.6470    -53.3590      0.0100     78.3900
     25    -38.0560    117.2640    -52.5060      1.5900     78.3900
     26    -38.4890    117.9890    -52.0410      0.0100     78.3900
     27    -39.5980    115.8040    -51.3480      1.7700     78.3900
     28    -40.4980    115.1640    -51.5090      0.0100     78.3900
     29    -39.8120    116.8580    -50.3670      1.5900     78.3900
     30    -41.2410    117.5410    -50.3700      2.1000     78.3900
     31    -42.2840    116.4970    -50.2870      1.5900     78.3900
     32    -41.2560    118.5770    -49.3160      1.5900     78.3900
     33    -41.3310    118.2310    -51.7760      1.5900     78.3900
     34    -40.6080    119.4560    -52.0300      1.7700     78.3900
     35    -39.5080    119.2970    -51.9730      0.0100     78.3900
     36    -40.8810    120.2420    -51.2820      0.0100     78.3900
     37    -40.9340    119.9860    -53.4310      1.7700     78.3900
     38    -40.3430    120.9050    -53.6510      0.0100     78.3900
     39    -40.5670    119.0110    -54.4500      1.5900     78.3900
     40    -41.5240    119.0590    -55.5000      1.7700     78.3900
     41    -40.9530    119.2940    -56.4280      0.0100     78.3900
     42    -42.2040    117.7670    -55.6710      1.6800     78.3900
     43    -42.8230    117.3190    -56.8070      1.7700     78.3900
     44    -43.8820    117.8300    -60.0690      1.6800     78.3900
     45    -43.5410    118.7460    -60.2750      0.0100     78.3900
     46    -44.4430    117.3480    -60.7500      0.0100     78.3900
     47    -42.9260    117.9870    -57.9740      1.6800     78.3900
     48    -43.6440    117.3160    -58.8740      1.7700     78.3900
     49    -44.1090    116.0460    -58.6670      1.6800     78.3900
     50    -44.6680    115.6230    -59.3930      0.0100     78.3900
     51    -43.9880    115.3160    -57.4920      1.7700     78.3900
     52    -44.4350    114.1660    -57.3910      1.5900     78.3900
     53    -43.2840    116.0490    -56.4960      1.7700     78.3900
     54    -42.9680    115.7150    -55.1800      1.6800     78.3900
     55    -42.3330    116.7700    -54.7300      1.7700     78.3900
     56    -41.9260    116.8850    -53.7230      0.0100     78.3900
     57    -42.4920    120.1930    -55.2040      1.7700     78.3900
     58    -43.5300    119.9720    -55.5400      0.0100     78.3900
     59    -42.0310    121.3830    -55.8130      1.5900     78.3900
     60    -42.6460    122.0850    -55.5500      0.0100     78.3900
     61    -42.4160    120.2900    -53.6800      1.7700     78.3900
     62    -43.0100    119.4770    -53.2080      0.0100     78.3900
     63    -42.7140    121.5730    -53.1120      1.5900     78.3900
     64    -44.1350    122.1980    -52.9650      2.1000     78.3900
     65    -44.9690    121.3070    -52.1240      1.5900     78.3900
     66    -43.9480    123.5870    -52.4820      1.5900     78.3900
     67    -44.7170    122.2680    -54.4190      1.5900     78.3900
     68    -46.1580    122.3520    -54.6010      1.7700     78.3900
     69    -46.5670    123.2660    -54.1080      0.0100     78.3900
     70    -46.6710    121.4770    -54.1330      0.0100     78.3900
     71    -46.5570    122.4170    -56.0960      1.7700     78.3900
     72    -46.3870    123.4390    -56.4940      0.0100     78.3900
     73    -45.7300    121.5170    -56.9090      1.5900     78.3900
     74    -46.5490    120.8190    -57.8360      1.7700     78.3900
     75    -46.0590    120.9540    -58.8240      0.0100     78.3900
     76    -46.6510    119.3640    -57.5570      1.6800     78.3900
     77    -46.4660    118.6860    -56.3710      1.7700     78.3900
     78    -45.7870    118.7460    -52.9900      1.6800     78.3900
     79    -45.7710    118.1210    -52.2110      0.0100     78.3900
     80    -45.5820    119.7200    -52.8490      0.0100     78.3900
     81    -46.1650    119.2250    -55.1840      1.6800     78.3900
     82    -46.0800    118.3480    -54.2130      1.7700     78.3900
     83    -46.2850    117.0070    -54.3930      1.6800     78.3900
     84    -46.2210    116.4020    -53.5950      0.0100     78.3900
     85    -46.5920    116.4050    -55.6070      1.7700     78.3900
     86    -46.7580    115.1770    -55.6950      1.5900     78.3900
     87    -46.6860    117.3550    -56.6570      1.7700     78.3900
     88    -47.0010    117.1930    -57.9920      1.6800     78.3900
     89    -46.9810    118.4040    -58.4870      1.7700     78.3900
     90    -47.1860    118.6490    -59.5310      0.0100     78.3900
     91    -47.8940    121.5030    -57.8450      1.7700     78.3900
     92    -48.7240    120.8130    -58.1010      0.0100     78.3900
     93    -47.8850    122.5870    -58.7550      1.5900     78.3900
     94    -48.6870    123.0870    -58.5630      0.0100     78.3900
     95    -48.0080    121.9940    -56.4040      1.7700     78.3900
     96    -48.2370    121.1410    -55.7240      0.0100     78.3900
     97    -48.9000    123.1190    -56.2190      1.5900     78.3900
     98    -50.4320    122.8590    -55.9600      2.1000     78.3900
     99    -50.5530    121.8300    -54.9080      1.5900     78.3900
    100    -51.0860    124.1600    -55.6970      1.5900     78.3900
    101    -50.9710    122.2670    -57.3170      1.5900     78.3900
    102    -51.2380    123.1140    -58.4580      1.7700     78.3900
    103    -50.2910    123.5310    -58.8700      0.0100     78.3900
    104    -51.8890    123.9730    -58.1800      0.0100     78.3900
    105    -51.9530    122.3330    -59.5750      1.7700     78.3900
    106    -52.0970    122.9740    -60.4700      0.0100     78.3900
    107    -51.1440    121.1980    -59.9900      1.5900     78.3900
    108    -51.9920    120.0950    -60.2730      1.7700     78.3900
    109    -51.7740    119.7900    -61.3230      0.0100     78.3900
    110    -51.7060    118.9720    -59.3800      1.6800     78.3900
    111    -51.6120    116.9700    -58.4860      1.7700     78.3900
    112    -50.8560    117.7980    -57.6660      1.6800     78.3900
    113    -50.9340    118.9690    -58.2450      1.7700     78.3900
    114    -50.4630    119.8830    -57.8810      0.0100     78.3900
    115    -52.7420    115.0990    -59.3920      1.6800     78.3900
    116    -53.2150    115.9290    -60.3180      1.7700     78.3900
    117    -53.8880    115.4650    -61.0410      0.0100     78.3900
    118    -52.9720    117.2310    -60.4940      1.6800     78.3900
    119    -52.1540    117.6890    -59.5360      1.7700     78.3900
    120    -51.9150    115.5950    -58.4340      1.7700     78.3900
    121    -51.4290    114.7750    -57.4890      1.6800     78.3900
    122    -50.7900    115.0790    -56.7820      0.0100     78.3900
    123    -51.7210    113.8130    -57.5130      0.0100     78.3900
    124    -53.4300    120.5670    -60.1690      1.7700     78.3900
    125    -54.1140    119.7860    -59.7680      0.0100     78.3900
    126    -53.8900    120.9910    -61.4410      1.5900     78.3900
    127    -54.7530    121.4160    -61.3110      0.0100     78.3900
    128    -53.3090    121.7240    -59.1850      1.7700     78.3900
    129    -53.1980    121.3390    -58.1450      0.0100     78.3900
    130    -54.3450    122.7160    -59.2990      1.5900     78.3900
    131    -55.6960    122.5650    -58.5060      2.1000     78.3900
    132    -55.3830    122.3410    -57.0790      1.5900     78.3900
    133    -56.5210    123.7450    -58.8440      1.5900     78.3900
    134    -56.3910    121.2820    -59.0980      1.5900     78.3900
    135    -57.4190    120.6240    -58.3090      1.7700     78.3900
    136    -58.3530    121.2340    -58.2960      0.0100     78.3900
    137    -57.0890    120.4820    -57.2510      0.0100     78.3900
    138    -57.7520    119.2280    -58.8600      1.7700     78.3900
    139    -58.3080    119.3080    -59.8230      0.0100     78.3900
    140    -56.5220    118.4970    -59.1400      1.5900     78.3900
    141    -56.6660    117.1400    -58.7480      1.7700     78.3900
    142    -56.3990    116.5400    -59.6480      0.0100     78.3900
    143    -55.7470    116.7750    -57.6320      1.6800     78.3900
    144    -55.1520    117.7640    -56.8710      1.7700     78.3900
    145    -55.4020    118.7950    -57.1320      0.0100     78.3900
    146    -54.3010    117.4640    -55.8820      1.7700     78.3900
    147    -53.8080    118.2290    -55.2860      0.0100     78.3900
    148    -55.4870    115.4350    -57.3470      1.7700     78.3900
    149    -56.0500    114.5510    -58.0140      1.5900     78.3900
    150    -54.6320    115.1210    -56.3500      1.6800     78.3900
    151    -54.0320    116.0890    -55.6340      1.7700     78.3900
    152    -53.1630    115.7510    -54.6810      1.6800     78.3900
    153    -53.0360    114.7800    -54.4730      0.0100     78.3900
    154    -52.6860    116.4370    -54.1280      0.0100     78.3900
    155    -58.1340    116.9200    -58.4180      1.7700     78.3900
    156    -58.2840    116.1390    -57.6430      0.0100     78.3900
    157    -58.8560    116.5770    -59.5930      1.5900     78.3900
    158    -59.8020    116.6290    -59.3830      0.0100     78.3900
    159    -58.5200    118.3000    -57.8970      1.7700     78.3900
    160    -58.0620    118.4450    -56.8880      0.0100     78.3900
    161    -59.9370    118.5880    -57.9380      1.5900     78.3900
    162    -60.7370    118.8220    -56.6010      2.1000     78.3900
    163    -59.8830    119.5490    -55.6370      1.5900     78.3900
    164    -62.0440    119.4490    -56.9160      1.5900     78.3900
    165    -60.9690    117.3520    -56.0810      1.5900     78.3900
    166    -61.9880    116.5230    -56.6940      1.7700     78.3900
    167    -61.8250    116.4180    -57.7930      0.0100     78.3900
    168    -62.9970    116.9600    -56.5310      0.0100     78.3900
    169    -62.0260    115.1250    -56.0670      1.7700     78.3900
    170    -62.8500    114.5140    -56.4970      0.0100     78.3900
    171    -60.7820    114.4310    -56.3490      1.5900     78.3900
    172    -60.4170    113.6550    -55.2210      1.7700     78.3900
    173    -60.3050    112.6080    -55.5790      0.0100     78.3900
    174    -59.1350    114.1030    -54.6620      1.6800     78.3900
    175    -58.3240    113.3780    -53.8340      1.7700     78.3900
    176    -57.6650    110.4870    -52.0480      1.6800     78.3900
    177    -58.4830    109.9370    -52.2110      0.0100     78.3900
    178    -56.9360    110.1230    -51.4630      0.0100     78.3900
    179    -58.5700    112.1360    -53.3800      1.6800     78.3900
    180    -57.5880    111.6810    -52.6040      1.7700     78.3900
    181    -56.4590    112.3990    -52.3220      1.6800     78.3900
    182    -55.7700    111.9850    -51.7140      0.0100     78.3900
    183    -56.1840    113.6840    -52.7680      1.7700     78.3900
    184    -55.1360    114.2530    -52.4520      1.5900     78.3900
    185    -57.2320    114.1860    -53.5850      1.7700     78.3900
    186    -57.3600    115.4060    -54.2390      1.6800     78.3900
    187    -58.5030    115.3080    -54.8750      1.7700     78.3900
    188    -58.9500    116.0770    -55.5100      0.0100     78.3900
    189    -61.5540    113.7240    -54.2130      1.7700     78.3900
    190    -61.1850    113.6940    -53.1650      0.0100     78.3900
    191    -62.4630    112.6540    -54.4400      1.5900     78.3900
    192    -63.2420    112.7710    -53.8650      0.0100     78.3900
    193    -62.1540    115.0890    -54.5370      1.7700     78.3900
    194    -61.5170    115.8970    -54.1190      0.0100     78.3900
    195    -63.5270    115.2600    -54.1400      1.5900     78.3900
    196    -63.6160    115.2080    -53.1690      0.0100     78.3900
    197    -49.3920    108.0510    -47.2600      0.0100     78.3900
    198    -50.2340    107.9960    -47.7530      1.5900     78.3900
    199    -50.9670    106.8860    -47.2140      1.7700     78.3900
    200    -51.1250    107.0550    -46.1270      0.0100     78.3900
    201    -50.3590    105.9610    -47.3340      0.0100     78.3900
    202    -52.3350    106.6630    -47.8730      1.7700     78.3900
    203    -52.8040    105.7340    -47.4780      0.0100     78.3900
    204    -53.2290    107.7650    -47.5440      1.5900     78.3900
    205    -54.0230    108.0740    -48.6850      1.7700     78.3900
    206    -55.0850    108.0160    -48.3450      0.0100     78.3900
    207    -53.7580    109.4380    -49.2210      1.6800     78.3900
    208    -52.5770    110.0860    -48.9340      1.7700     78.3900
    209    -51.8870    109.5640    -48.2690      0.0100     78.3900
    210    -52.3310    111.3200    -49.3930      1.7700     78.3900
    211    -51.4170    111.8560    -49.1380      0.0100     78.3900
    212    -54.6790    110.0380    -50.0760      1.7700     78.3900
    213    -55.7050    109.4150    -50.3900      1.5900     78.3900
    214    -54.4640    111.2930    -50.5240      1.6800     78.3900
    215    -53.3280    111.9370    -50.2010      1.7700     78.3900
    216    -53.1550    113.1850    -50.6290      1.6800     78.3900
    217    -53.7890    113.5510    -51.3140      0.0100     78.3900
    218    -52.3150    113.6910    -50.4300      0.0100     78.3900
    219    -53.7800    106.9910    -49.7140      1.7700     78.3900
    220    -53.8850    107.3600    -50.7560      0.0100     78.3900
    221    -54.6690    105.9090    -49.5000      1.5900     78.3900
    222    -54.3650    105.1850    -50.0620      0.0100     78.3900
    223    -52.3390    106.6020    -49.4070      1.7700     78.3900
    224    -51.6400    107.3910    -49.7690      0.0100     78.3900
    225    -51.9630    105.2790    -49.8400      1.5900     78.3900
    226    -51.3800    105.0670    -51.2860      2.1000     78.3900
    227    -50.1800    105.9150    -51.4480      1.5900     78.3900
    228    -51.2030    103.6120    -51.4950      1.5900     78.3900
    229    -52.5160    105.5950    -52.2420      1.5900     78.3900
    230    -53.6490    104.7430    -52.5310      1.7700     78.3900
    231    -54.2660    104.5720    -51.6230      0.0100     78.3900
    232    -53.3130    103.7480    -52.9070      0.0100     78.3900
    233    -54.5570    105.3500    -53.6040      1.7700     78.3900
    234    -55.4070    104.6690    -53.8260      0.0100     78.3900
    235    -55.1410    106.6000    -53.1440      1.5900     78.3900
    236    -55.2120    107.5040    -54.2400      1.7700     78.3900
    237    -56.2770    107.8160    -54.3270      0.0100     78.3900
    238    -54.3790    108.6980    -54.0120      1.6800     78.3900
    239    -54.5640    109.9270    -54.5860      1.7700     78.3900
    240    -56.2520    111.9960    -56.8060      1.6800     78.3900
    241    -56.9370    111.3890    -57.2020      0.0100     78.3900
    242    -56.1430    112.9270    -57.1690      0.0100     78.3900
    243    -55.5360    110.2580    -55.4570      1.6800     78.3900
    244    -55.4300    111.5170    -55.8830      1.7700     78.3900
    245    -54.5250    112.4030    -55.3700      1.6800     78.3900
    246    -54.4730    113.3200    -55.7900      0.0100     78.3900
    247    -53.5360    112.1060    -54.4370      1.7700     78.3900
    248    -52.7580    112.9700    -54.0250      1.5900     78.3900
    249    -53.5750    110.7350    -54.0580      1.7700     78.3900
    250    -52.7530    110.0110    -53.1990      1.6800     78.3900
    251    -53.2700    108.8040    -53.2020      1.7700     78.3900
    252    -52.9000    107.9530    -52.6270      0.0100     78.3900
    253    -54.7990    106.7500    -55.4930      1.7700     78.3900
    254    -54.2670    107.3960    -56.2280      0.0100     78.3900
    255    -55.9340    106.1580    -56.1090      1.5900     78.3900
    256    -55.6030    105.5810    -56.8140      0.0100     78.3900
    257    -53.8590    105.6950    -54.9180      1.7700     78.3900
    258    -52.8790    106.1540    -54.6530      0.0100     78.3900
    259    -53.7120    104.4940    -55.7030      1.5900     78.3900
    260    -52.6940    104.4630    -56.8880      2.1000     78.3900
    261    -51.3830    104.9630    -56.4160      1.5900     78.3900
    262    -52.7410    103.1030    -57.4760      1.5900     78.3900
    263    -53.2980    105.4430    -57.9560      1.5900     78.3900
    264    -52.3950    105.9700    -58.9660      1.7700     78.3900
    265    -51.9480    105.1570    -59.5820      0.0100     78.3900
    266    -51.5480    106.4990    -58.4750      0.0100     78.3900
    267    -53.0830    106.9810    -59.9100      1.7700     78.3900
    268    -53.7450    106.4490    -60.6200      0.0100     78.3900
    269    -53.9250    107.9060    -59.1510      1.5900     78.3900
    270    -53.7570    109.2200    -59.6550      1.7700     78.3900
    271    -54.7840    109.6000    -59.8420      0.0100     78.3900
    272    -53.0730    110.1350    -58.7130      1.6800     78.3900
    273    -52.2030    109.8690    -57.6690      1.7700     78.3900
[...]
   340   11   6.0   3.41    6.0   -0.024530    0.192617    0.184115
   341   11   1.0   0.00    0.0    0.000000    0.283447    0.296001
   342   11   6.0  12.23   21.6   -0.038568   -0.392442   -0.395861
   343   11   1.0   0.00    0.0    0.000000    0.263292    0.268817
   344   11   6.0   0.00    0.0    0.000000    1.087354    1.106828
   345   11   8.0   6.29   13.8    0.119337   -0.802283   -0.781545
   346   11   7.0   0.00    0.0    0.000000   -0.857363   -0.856484
   347   11   6.0   0.51    0.9    0.013713    0.759332    0.770481
   348   11   7.0  12.99   25.4   -0.078153   -0.954082   -1.014695
   349   11   1.0   0.00    0.0    0.000000    0.469278    0.512670
   350   11   1.0   0.00    0.0    0.000000    0.439056    0.437454
   351   11   6.0   0.42    0.7    0.001648    0.147451    0.132884
   352   11   1.0   0.00    0.0    0.000000    0.204634    0.222703
   353   11   8.0  17.74   38.8    0.081873   -0.829273   -0.837502
   354   11   1.0   0.00    0.0    0.000000    0.493232    0.504794
   355   11   6.0   1.16    2.1   -0.018716    0.147201    0.104106
   356   11   1.0   0.00    0.0    0.000000    0.230325    0.230439
   357   11   8.0   3.99    8.7    0.047586   -0.801178   -0.803391
   358   11  15.0   8.92   11.2    0.115167    1.614870    1.665086
   359   11   8.0  15.44   33.8    0.331015   -0.901035   -0.897625
   360   11   8.0  18.48   40.4    0.367431   -0.897838   -0.888150
   361   11   8.0   1.63    3.6    0.030622   -0.969122   -0.784466
   362   12   6.0  13.30   23.5   -0.078829    0.182386   -0.008920
   363   12   1.0   0.00    0.0    0.000000    0.196924    0.186877
   364   12   1.0   0.00    0.0    0.000000    0.224895    0.207270
   365   12   6.0   6.63   11.7   -0.040140    0.100461    0.154416
   366   12   1.0   0.00    0.0    0.000000    0.241029    0.212157
   367   12   8.0   5.95   13.0    0.066435   -0.728208   -0.732865
   368   12   6.0   5.55    9.8   -0.046500    0.414377    0.416676
   369   12   1.0   0.00    0.0    0.000000    0.251654    0.245355
   370   12   7.0   0.04    0.1    0.000104   -0.796192   -0.803975
   371   12   6.0   1.00    1.8    0.002348    0.710390    0.712821
   372   12   7.0  16.13   31.6   -0.080657   -0.972611   -1.056643
   373   12   1.0   0.00    0.0    0.000000    0.444016    0.436171
   374   12   1.0   0.00    0.0    0.000000    0.477395    0.523455
   375   12   7.0   7.64   15.0    0.113724   -0.759302   -0.762490
   376   12   6.0   2.84    5.0   -0.005356    0.980302    0.976841
   377   12   7.0   2.26    4.4    0.009007   -0.937963   -1.028820
   378   12   1.0   0.00    0.0    0.000000    0.486553    0.544041
   379   12   6.0   2.83    5.0    0.006499    0.872057    0.875994
   380   12   8.0   7.23   15.8    0.128240   -0.750316   -0.733817
   381   12   6.0   1.89    3.3    0.009949   -0.050960   -0.042137
   382   12   7.0   7.16   14.0    0.116559   -0.587899   -0.591080
   383   12   6.0   5.27    9.3    0.017540    0.271559    0.268014
   384   12   1.0   0.00    0.0    0.000000    0.262548    0.280234
   385   12   6.0   7.00   12.4   -0.056244    0.116906    0.117083
   386   12   1.0   0.00    0.0    0.000000    0.224992    0.223276
   387   12   8.0  21.78   47.6    0.034441   -0.844318   -0.847551
   388   12   1.0   0.00    0.0    0.000000    0.507741    0.507149
   389   12   6.0   4.74    8.4   -0.035559    0.171259    0.153516
   390   12   1.0   0.00    0.0    0.000000    0.215357    0.217564
   391   12   8.0  21.99   48.1   -0.009645   -0.849833   -0.853337
   392   12   1.0   0.00    0.0    0.000000    0.506662    0.505469

 Done with FMO properties.
 CPU     0: STEP CPU TIME=     0.01 TOTAL CPU TIME=      23252.8 (    387.5 MIN)
 TOTAL WALL CLOCK TIME=      50140.8 SECONDS, CPU UTILIZATION IS    46.37%
 CPU     0: STEP CPU TIME=     0.01 TOTAL CPU TIME=      23252.8 (    387.5 MIN)
 TOTAL WALL CLOCK TIME=      50140.9 SECONDS, CPU UTILIZATION IS    46.37%

 Total timing statistics in pairs (CPU,wall) for each rank, sec

    Rank   total     SCF    corr     DFT    CPHF     EFP    solv     ESP    geom
 -------------------------------------------------------------------------------
       1   23252.8   6147.2   9197.8      0.0    0.0   0.0  203.3  7291.5    0.0
       1   50141.0  12857.8  21729.4      0.0    0.0   0.0  542.5 14027.1    0.0
       2   23453.5   6045.8   9437.4      0.0    0.0   0.0  205.9  7309.1    0.0
       2   50141.0  12855.0  21728.6      0.0    0.0   0.0  542.6 14026.5    0.0
       3   22463.4   6046.1   8640.0      0.0    0.0   0.0  205.8  7111.6    0.0
       3   50141.0  12855.0  21728.6      0.0    0.0   0.0  542.8 14026.3    0.0
       4   19964.2   5913.8   6602.5      0.0    0.0   0.0  205.0  6884.5    0.0
       4   50141.0  12856.0  21728.6      0.0    0.0   0.0  541.6 14026.1    0.0
       5   21965.1   5973.1   8256.0      0.0    0.0   0.0  204.1  7090.3    0.0
       5   50141.0  12855.5  21728.6      0.0    0.0   0.0  542.5 14026.4    0.0
       6   22466.3   5986.8   8912.2      0.0    0.0   0.0  202.9  6971.7    0.0
       6   50141.0  12856.6  21728.6      0.0    0.0   0.0  541.0 14026.2    0.0
       7   21024.4   5957.2   7582.3      0.0    0.0   0.0  203.6  6880.8    0.0
       7   50141.0  12856.4  21728.6      0.0    0.0   0.0  541.3 14026.2    0.0
       8   23736.0   6077.9   9974.5      0.0    0.0   0.0  203.0  7004.8    0.0
       8   50141.0  12856.6  21728.6      0.0    0.0   0.0  540.4 14026.2    0.0
       9   21376.0   6098.1   7586.2      0.0    0.0   0.0  199.3  7059.4    0.0
       9   50141.0  12857.3  21728.6      0.0    0.0   0.0  540.5 14026.5    0.0
      10   21251.8   6043.6   7681.8      0.0    0.0   0.0  200.6  6934.6    0.0
      10   50141.0  12857.2  21728.6      0.0    0.0   0.0  540.3 14026.5    0.0
      11   23991.7   6110.0  10285.7      0.0    0.0   0.0  200.1  6941.8    0.0
      11   50141.0  12857.8  21728.6      0.0    0.0   0.0  540.2 14026.4    0.0
      12   23566.4   6125.7  10006.4      0.0    0.0   0.0  200.7  6811.8    0.0
      12   50141.0  12857.8  21728.6      0.0    0.0   0.0  539.5 14026.4    0.0
      13   23433.5   6208.0   9740.6      0.0    0.0   0.0  198.5  6913.9    0.0
      13   50141.0  12859.4  21728.5      0.0    0.0   0.0  538.9 14026.3    0.0
      14   20927.9   6025.7   7620.2      0.0    0.0   0.0  199.6  6700.9    0.0
      14   50141.0  12858.5  21728.5      0.0    0.0   0.0  539.1 14026.1    0.0
      15   20793.8   5910.3   7619.4      0.0    0.0   0.0  199.1  6658.7    0.0
      15   50141.0  12858.9  21728.5      0.0    0.0   0.0  538.7 14026.2    0.0
      16   20376.9   5914.6   7240.3      0.0    0.0   0.0  199.9  6589.9    0.0
      16   50141.0  12859.4  21728.5      0.0    0.0   0.0  537.7 14026.0    0.0
averaged   22127.7   6036.5   8524.0      0.0    0.0   0.0  202.0  6947.2    0.0
averaged   50141.0  12857.2  21728.6      0.0    0.0   0.0  540.6 14026.3    0.0

  FMO  timing statistics in pairs (CPU,wall) for each rank, sec

    Rank  FMOini FMOscf1  FMOdm1 FMOsyn1 FMOscf2  FMOes2 FMOsyn2 FMOscf3 FMOsyn3
 -------------------------------------------------------------------------------
       1    2.5    8431.0    0.3    0.0   14531.3     287.6    0.0    0.0    0.0
       1    6.2   17307.3    0.8    0.0   32211.8     614.5    0.0    0.0    0.0
       2    1.9    8321.8    0.1    0.0   14796.2     333.5    0.0    0.0    0.0
       2    6.2   17307.3    0.8    0.0   32217.1     609.2    0.0    0.0    0.0
       3    2.1    8369.0    0.2    0.0   13755.9     336.2    0.0    0.0    0.0
       3    6.2   17307.3    0.8    0.0   32217.4     608.9    0.0    0.0    0.0
       4    1.9    8260.6    0.1    0.0   11463.7     238.0    0.0    0.0    0.0
       4    6.2   17307.3    0.8    0.0   32219.2     607.1    0.0    0.0    0.0
       5    2.2    8382.4    0.2    0.0   13261.6     318.6    0.0    0.0    0.0
       5    6.2   17307.3    0.8    0.0   32217.3     609.0    0.0    0.0    0.0
       6    1.9    8486.6    0.1    0.0   13703.4     274.2    0.0    0.0    0.0
       6    6.2   17307.3    0.8    0.0   32220.1     606.2    0.0    0.0    0.0
       7    2.0    8382.3    0.1    0.0   12359.5     280.5    0.0    0.0    0.0
       7    6.2   17307.3    0.8    0.0   32219.0     607.3    0.0    0.0    0.0
       8    1.7    8345.0    0.1    0.0   15032.0     357.0    0.0    0.0    0.0
       8    6.2   17307.3    0.8    0.0   32219.1     607.2    0.0    0.0    0.0
       9    2.2    8301.2    0.3    0.0   12757.8     314.6    0.0    0.0    0.0
       9    6.2   17307.3    0.8    0.0   32217.9     608.4    0.0    0.0    0.0
      10    1.8    8286.0    0.1    0.0   12689.1     274.8    0.0    0.0    0.0
      10    6.2   17307.3    0.8    0.0   32218.7     607.6    0.0    0.0    0.0
      11    1.9    8261.0    0.2    0.0   15391.5     337.1    0.0    0.0    0.0
      11    6.2   17307.3    0.8    0.0   32217.7     608.6    0.0    0.0    0.0
      12    1.7    8172.4    0.1    0.0   15087.2     305.0    0.0    0.0    0.0
      12    6.2   17307.3    0.8    0.0   32219.5     606.8    0.0    0.0    0.0
      13    2.0    8228.3    0.2    0.0   14947.0     256.0    0.0    0.0    0.0
      13    6.2   17307.3    0.8    0.0   32218.3     608.0    0.0    0.0    0.0
      14    1.7    8338.1    0.1    0.0   12321.4     266.7    0.0    0.0    0.0
      14    6.2   17307.3    0.8    0.0   32219.5     606.8    0.0    0.0    0.0
      15    1.8    8181.8    0.2    0.0   12318.6     291.4    0.0    0.0    0.0
      15    6.2   17307.3    0.8    0.0   32218.0     608.3    0.0    0.0    0.0
      16    1.7    8094.6    0.1    0.0   11962.9     317.6    0.0    0.0    0.0
      16    6.2   17307.3    0.8    0.0   32217.3     609.0    0.0    0.0    0.0
averaged    1.9    8302.6    0.2    0.0   13523.7     299.3    0.0    0.0    0.0
averaged    6.2   17307.3    0.8    0.0   32218.0     608.3    0.0    0.0    0.0
             62752251  WORDS OF DYNAMIC MEMORY USED
 EXECUTION OF GAMESS TERMINATED NORMALLY Mon Nov 18 11:30:01 2019
 DDI: 263640 bytes (0.3 MB / 0 MWords) used by master data server.

 ----------------------------------------
 CPU timing information for all processes
 ========================================
 0: 22693.983 + 558.828 = 23252.811
 1: 22933.730 + 519.773 = 23453.504
 2: 21955.396 + 508.72 = 22463.469
 3: 19574.107 + 390.154 = 19964.261
 4: 21455.675 + 509.420 = 21965.95
 5: 21958.926 + 507.362 = 22466.288
 6: 20572.624 + 451.842 = 21024.467
 7: 23197.149 + 538.920 = 23736.69
 8: 20909.382 + 466.609 = 21375.991
 9: 20815.911 + 435.994 = 21251.905
 10: 23429.908 + 561.792 = 23991.700
 11: 23010.913 + 555.510 = 23566.424
 12: 22868.840 + 564.676 = 23433.516
 13: 20480.462 + 447.440 = 20927.903
 14: 20352.642 + 441.231 = 20793.873
 15: 19967.159 + 409.754 = 20376.913
 ----------------------------------------
 ddikick.x: exited gracefully.
----- accounting info -----
Files used on the master node gollum089.lsa.umich.edu were:
-rw-r--r-- 1 hazwong frank    21017 Nov 17 21:34 /scratch/hazwong/638788/1MIS_4/usrc/1MIS_4_fmo_input.F05
-rw-r--r-- 1 hazwong frank      634 Nov 18 11:30 /scratch/hazwong/638788/1MIS_4/usrc/1MIS_4_fmo_input.F06.001
-rw-r--r-- 1 hazwong frank      634 Nov 18 11:30 /scratch/hazwong/638788/1MIS_4/usrc/1MIS_4_fmo_input.F06.002
-rw-r--r-- 1 hazwong frank      634 Nov 18 11:30 /scratch/hazwong/638788/1MIS_4/usrc/1MIS_4_fmo_input.F06.003
-rw-r--r-- 1 hazwong frank      634 Nov 18 11:30 /scratch/hazwong/638788/1MIS_4/usrc/1MIS_4_fmo_input.F06.004
-rw-r--r-- 1 hazwong frank      634 Nov 18 11:30 /scratch/hazwong/638788/1MIS_4/usrc/1MIS_4_fmo_input.F06.005
-rw-r--r-- 1 hazwong frank      634 Nov 18 11:30 /scratch/hazwong/638788/1MIS_4/usrc/1MIS_4_fmo_input.F06.006
-rw-r--r-- 1 hazwong frank      634 Nov 18 11:30 /scratch/hazwong/638788/1MIS_4/usrc/1MIS_4_fmo_input.F06.007
-rw-r--r-- 1 hazwong frank      634 Nov 18 11:30 /scratch/hazwong/638788/1MIS_4/usrc/1MIS_4_fmo_input.F06.008
-rw-r--r-- 1 hazwong frank      634 Nov 18 11:30 /scratch/hazwong/638788/1MIS_4/usrc/1MIS_4_fmo_input.F06.009
-rw-r--r-- 1 hazwong frank      634 Nov 18 11:30 /scratch/hazwong/638788/1MIS_4/usrc/1MIS_4_fmo_input.F06.010
-rw-r--r-- 1 hazwong frank      634 Nov 18 11:30 /scratch/hazwong/638788/1MIS_4/usrc/1MIS_4_fmo_input.F06.011
-rw-r--r-- 1 hazwong frank      634 Nov 18 11:30 /scratch/hazwong/638788/1MIS_4/usrc/1MIS_4_fmo_input.F06.012
-rw-r--r-- 1 hazwong frank      634 Nov 18 11:30 /scratch/hazwong/638788/1MIS_4/usrc/1MIS_4_fmo_input.F06.013
-rw-r--r-- 1 hazwong frank      634 Nov 18 11:30 /scratch/hazwong/638788/1MIS_4/usrc/1MIS_4_fmo_input.F06.014
-rw-r--r-- 1 hazwong frank      634 Nov 18 11:30 /scratch/hazwong/638788/1MIS_4/usrc/1MIS_4_fmo_input.F06.015
-rw-r--r-- 1 hazwong frank    12735 Nov 18 11:30 /scratch/hazwong/638788/1MIS_4/usrc/1MIS_4_fmo_input.F07
-rw-r--r-- 1 hazwong frank        0 Nov 17 21:34 /scratch/hazwong/638788/1MIS_4/usrc/1MIS_4_fmo_input.F07.001
-rw-r--r-- 1 hazwong frank        0 Nov 17 21:34 /scratch/hazwong/638788/1MIS_4/usrc/1MIS_4_fmo_input.F07.002
-rw-r--r-- 1 hazwong frank        0 Nov 17 21:34 /scratch/hazwong/638788/1MIS_4/usrc/1MIS_4_fmo_input.F07.003
-rw-r--r-- 1 hazwong frank        0 Nov 17 21:34 /scratch/hazwong/638788/1MIS_4/usrc/1MIS_4_fmo_input.F07.004
-rw-r--r-- 1 hazwong frank        0 Nov 17 21:34 /scratch/hazwong/638788/1MIS_4/usrc/1MIS_4_fmo_input.F07.005
-rw-r--r-- 1 hazwong frank        0 Nov 17 21:34 /scratch/hazwong/638788/1MIS_4/usrc/1MIS_4_fmo_input.F07.006
-rw-r--r-- 1 hazwong frank        0 Nov 17 21:34 /scratch/hazwong/638788/1MIS_4/usrc/1MIS_4_fmo_input.F07.007
-rw-r--r-- 1 hazwong frank        0 Nov 17 21:34 /scratch/hazwong/638788/1MIS_4/usrc/1MIS_4_fmo_input.F07.008
-rw-r--r-- 1 hazwong frank        0 Nov 17 21:34 /scratch/hazwong/638788/1MIS_4/usrc/1MIS_4_fmo_input.F07.009
-rw-r--r-- 1 hazwong frank        0 Nov 17 21:34 /scratch/hazwong/638788/1MIS_4/usrc/1MIS_4_fmo_input.F07.010
-rw-r--r-- 1 hazwong frank        0 Nov 17 21:34 /scratch/hazwong/638788/1MIS_4/usrc/1MIS_4_fmo_input.F07.011
-rw-r--r-- 1 hazwong frank        0 Nov 17 21:34 /scratch/hazwong/638788/1MIS_4/usrc/1MIS_4_fmo_input.F07.012
-rw-r--r-- 1 hazwong frank        0 Nov 17 21:34 /scratch/hazwong/638788/1MIS_4/usrc/1MIS_4_fmo_input.F07.013
-rw-r--r-- 1 hazwong frank        0 Nov 17 21:34 /scratch/hazwong/638788/1MIS_4/usrc/1MIS_4_fmo_input.F07.014
-rw-r--r-- 1 hazwong frank        0 Nov 17 21:34 /scratch/hazwong/638788/1MIS_4/usrc/1MIS_4_fmo_input.F07.015
-rw-r--r-- 1 hazwong frank    65440 Nov 18 11:30 /scratch/hazwong/638788/1MIS_4/usrc/1MIS_4_fmo_input.F10.000
-rw-r--r-- 1 hazwong frank        0 Nov 17 21:34 /scratch/hazwong/638788/1MIS_4/usrc/1MIS_4_fmo_input.F26.000
-rw-r--r-- 1 hazwong frank        0 Nov 17 21:34 /scratch/hazwong/638788/1MIS_4/usrc/1MIS_4_fmo_input.F26.001
-rw-r--r-- 1 hazwong frank        0 Nov 17 21:34 /scratch/hazwong/638788/1MIS_4/usrc/1MIS_4_fmo_input.F26.002
-rw-r--r-- 1 hazwong frank        0 Nov 17 21:34 /scratch/hazwong/638788/1MIS_4/usrc/1MIS_4_fmo_input.F26.003
-rw-r--r-- 1 hazwong frank        0 Nov 17 21:34 /scratch/hazwong/638788/1MIS_4/usrc/1MIS_4_fmo_input.F26.004
-rw-r--r-- 1 hazwong frank        0 Nov 17 21:34 /scratch/hazwong/638788/1MIS_4/usrc/1MIS_4_fmo_input.F26.005
-rw-r--r-- 1 hazwong frank        0 Nov 17 21:34 /scratch/hazwong/638788/1MIS_4/usrc/1MIS_4_fmo_input.F26.006
-rw-r--r-- 1 hazwong frank        0 Nov 17 21:34 /scratch/hazwong/638788/1MIS_4/usrc/1MIS_4_fmo_input.F26.007
-rw-r--r-- 1 hazwong frank        0 Nov 17 21:34 /scratch/hazwong/638788/1MIS_4/usrc/1MIS_4_fmo_input.F26.008
-rw-r--r-- 1 hazwong frank        0 Nov 17 21:34 /scratch/hazwong/638788/1MIS_4/usrc/1MIS_4_fmo_input.F26.009
-rw-r--r-- 1 hazwong frank        0 Nov 17 21:34 /scratch/hazwong/638788/1MIS_4/usrc/1MIS_4_fmo_input.F26.010
-rw-r--r-- 1 hazwong frank        0 Nov 17 21:34 /scratch/hazwong/638788/1MIS_4/usrc/1MIS_4_fmo_input.F26.011
-rw-r--r-- 1 hazwong frank        0 Nov 17 21:34 /scratch/hazwong/638788/1MIS_4/usrc/1MIS_4_fmo_input.F26.012
-rw-r--r-- 1 hazwong frank        0 Nov 17 21:34 /scratch/hazwong/638788/1MIS_4/usrc/1MIS_4_fmo_input.F26.013
-rw-r--r-- 1 hazwong frank        0 Nov 17 21:34 /scratch/hazwong/638788/1MIS_4/usrc/1MIS_4_fmo_input.F26.014
-rw-r--r-- 1 hazwong frank        0 Nov 17 21:34 /scratch/hazwong/638788/1MIS_4/usrc/1MIS_4_fmo_input.F26.015
-rw-r--r-- 1 hazwong frank        0 Nov 17 21:34 /scratch/hazwong/638788/1MIS_4/usrc/1MIS_4_fmo_input.F27.000
-rw-r--r-- 1 hazwong frank        0 Nov 17 21:34 /scratch/hazwong/638788/1MIS_4/usrc/1MIS_4_fmo_input.F27.001
-rw-r--r-- 1 hazwong frank        0 Nov 17 21:34 /scratch/hazwong/638788/1MIS_4/usrc/1MIS_4_fmo_input.F27.002
-rw-r--r-- 1 hazwong frank        0 Nov 17 21:34 /scratch/hazwong/638788/1MIS_4/usrc/1MIS_4_fmo_input.F27.003
-rw-r--r-- 1 hazwong frank        0 Nov 17 21:34 /scratch/hazwong/638788/1MIS_4/usrc/1MIS_4_fmo_input.F27.004
-rw-r--r-- 1 hazwong frank        0 Nov 17 21:34 /scratch/hazwong/638788/1MIS_4/usrc/1MIS_4_fmo_input.F27.005
-rw-r--r-- 1 hazwong frank        0 Nov 17 21:34 /scratch/hazwong/638788/1MIS_4/usrc/1MIS_4_fmo_input.F27.006
-rw-r--r-- 1 hazwong frank        0 Nov 17 21:34 /scratch/hazwong/638788/1MIS_4/usrc/1MIS_4_fmo_input.F27.007
-rw-r--r-- 1 hazwong frank        0 Nov 17 21:34 /scratch/hazwong/638788/1MIS_4/usrc/1MIS_4_fmo_input.F27.008
-rw-r--r-- 1 hazwong frank        0 Nov 17 21:34 /scratch/hazwong/638788/1MIS_4/usrc/1MIS_4_fmo_input.F27.009
-rw-r--r-- 1 hazwong frank        0 Nov 17 21:34 /scratch/hazwong/638788/1MIS_4/usrc/1MIS_4_fmo_input.F27.010
-rw-r--r-- 1 hazwong frank        0 Nov 17 21:34 /scratch/hazwong/638788/1MIS_4/usrc/1MIS_4_fmo_input.F27.011
-rw-r--r-- 1 hazwong frank        0 Nov 17 21:34 /scratch/hazwong/638788/1MIS_4/usrc/1MIS_4_fmo_input.F27.012
-rw-r--r-- 1 hazwong frank        0 Nov 17 21:34 /scratch/hazwong/638788/1MIS_4/usrc/1MIS_4_fmo_input.F27.013
-rw-r--r-- 1 hazwong frank        0 Nov 17 21:34 /scratch/hazwong/638788/1MIS_4/usrc/1MIS_4_fmo_input.F27.014
-rw-r--r-- 1 hazwong frank        0 Nov 17 21:34 /scratch/hazwong/638788/1MIS_4/usrc/1MIS_4_fmo_input.F27.015
-rw-r--r-- 1 hazwong frank 25116672 Nov 18 02:22 /scratch/hazwong/638788/1MIS_4/usrc/1MIS_4_fmo_input.F40.000
-rw-r--r-- 1 hazwong frank 25116672 Nov 18 02:22 /scratch/hazwong/638788/1MIS_4/usrc/1MIS_4_fmo_input.F40.001
-rw-r--r-- 1 hazwong frank 25116672 Nov 18 02:22 /scratch/hazwong/638788/1MIS_4/usrc/1MIS_4_fmo_input.F40.002
-rw-r--r-- 1 hazwong frank 25116672 Nov 18 02:22 /scratch/hazwong/638788/1MIS_4/usrc/1MIS_4_fmo_input.F40.003
-rw-r--r-- 1 hazwong frank 25116672 Nov 18 02:22 /scratch/hazwong/638788/1MIS_4/usrc/1MIS_4_fmo_input.F40.004
-rw-r--r-- 1 hazwong frank 25116672 Nov 18 02:22 /scratch/hazwong/638788/1MIS_4/usrc/1MIS_4_fmo_input.F40.005
-rw-r--r-- 1 hazwong frank 25116672 Nov 18 02:22 /scratch/hazwong/638788/1MIS_4/usrc/1MIS_4_fmo_input.F40.006
-rw-r--r-- 1 hazwong frank 25116672 Nov 18 02:22 /scratch/hazwong/638788/1MIS_4/usrc/1MIS_4_fmo_input.F40.007
-rw-r--r-- 1 hazwong frank 25116672 Nov 18 02:22 /scratch/hazwong/638788/1MIS_4/usrc/1MIS_4_fmo_input.F40.008
-rw-r--r-- 1 hazwong frank 25116672 Nov 18 02:22 /scratch/hazwong/638788/1MIS_4/usrc/1MIS_4_fmo_input.F40.009
-rw-r--r-- 1 hazwong frank 25116672 Nov 18 02:22 /scratch/hazwong/638788/1MIS_4/usrc/1MIS_4_fmo_input.F40.010
-rw-r--r-- 1 hazwong frank 25116672 Nov 18 02:22 /scratch/hazwong/638788/1MIS_4/usrc/1MIS_4_fmo_input.F40.011
-rw-r--r-- 1 hazwong frank 25116672 Nov 18 02:22 /scratch/hazwong/638788/1MIS_4/usrc/1MIS_4_fmo_input.F40.012
-rw-r--r-- 1 hazwong frank 25116672 Nov 18 02:22 /scratch/hazwong/638788/1MIS_4/usrc/1MIS_4_fmo_input.F40.013
-rw-r--r-- 1 hazwong frank 25116672 Nov 18 02:22 /scratch/hazwong/638788/1MIS_4/usrc/1MIS_4_fmo_input.F40.014
-rw-r--r-- 1 hazwong frank 25116672 Nov 18 02:22 /scratch/hazwong/638788/1MIS_4/usrc/1MIS_4_fmo_input.F40.015
Mon Nov 18 11:30:04 EST 2019
0.184u 0.113s 13:55:44.55 0.0%	0+0k 1152+152io 25pf+0w
