----- GAMESS execution script 'rungms' -----
This job is running on host gollum090.lsa.umich.edu
under operating system Linux at Sun Nov 17 21:37:44 EST 2019
Available scratch disk space (Kbyte units) at beginning of the job is
Filesystem     1K-blocks   Used Available Use% Mounted on
/dev/sda4      426933580 311368 426622212   1% /scratch
GAMESS temporary binary files will be written to /scratch/hazwong/638800/1P5M_1/usrc
GAMESS supplementary output files will be written to /scratch/hazwong/638800/1P5M_1/src
Copying input file 1P5M_1_fmo_input.inp to your run's scratch directory...
This is a GDDI run, keeping various output files on local disks
 
Assuming a single but multicore node.
 

 Distributed Data Interface kickoff program.
 Initiating 16 compute processes on 1 nodes to run the following command:
 /export/apps/CentOS7/gamess/src/build//gamess.R3.x 1P5M_1_fmo_input 

          ******************************************************
          *         GAMESS VERSION = 30 SEP 2018 (R3)         *
          *             FROM IOWA STATE UNIVERSITY             *
          * M.W.SCHMIDT, K.K.BALDRIDGE, J.A.BOATZ, S.T.ELBERT, *
          *   M.S.GORDON, J.H.JENSEN, S.KOSEKI, N.MATSUNAGA,   *
          *          K.A.NGUYEN, S.J.SU, T.L.WINDUS,           *
          *       TOGETHER WITH M.DUPUIS, J.A.MONTGOMERY       *
          *         J.COMPUT.CHEM.  14, 1347-1363(1993)        *
          **************** 64 BIT LINUX VERSION ****************

  SINCE 1993, STUDENTS AND POSTDOCS WORKING AT IOWA STATE UNIVERSITY
  AND ALSO IN THEIR VARIOUS JOBS AFTER LEAVING ISU HAVE MADE IMPORTANT
  CONTRIBUTIONS TO THE CODE:
     IVANA ADAMOVIC, CHRISTINE AIKENS, YURI ALEXEEV, POOJA ARORA,
     ANDREY ASADCHEV, ROB BELL, PRADIPTA BANDYOPADHYAY, JONATHAN BENTZ,
     BRETT BODE, KURT BRORSEN, CALEB CARLIN, GALINA CHABAN, WEI CHEN,
     CHEOL HO CHOI, PAUL DAY, ALBERT DEFUSCO, NUWAN DESILVA, TIM DUDLEY,
     DMITRI FEDOROV, ALEX FINDLATER, GRAHAM FLETCHER, MARK FREITAG,
     KURT GLAESEMANN, ANASTASIA GUNINA,
     DAN KEMP, GRANT MERRILL, NORIYUKI MINEZAWA, JONATHAN MULLIN,
     TAKESHI NAGATA, SEAN NEDD, HEATHER NETZLOFF, BOSILJKA NJEGIC, RYAN OLSON,
     MIKE PAK, BUU PHAM,
     SPENCER PRUITT, LUKE ROSKOP, JIM SHOEMAKER, LYUDMILA SLIPCHENKO,
     TONY SMITH, SAROM SOK LEANG, JIE SONG, TETSUYA TAKETSUGU, SIMON WEBB,
     PENG XU, SOOHAENG YOO, FEDERICO ZAHARIEV

  ADDITIONAL CODE HAS BEEN PROVIDED BY COLLABORATORS IN OTHER GROUPS:
     IOWA STATE UNIVERSITY:
          JOE IVANIC, AARON WEST, LAIMUTIS BYTAUTAS, KLAUS RUEDENBERG
     UNIVERSITY OF TOKYO: KIMIHIKO HIRAO, TAKAHITO NAKAJIMA,
          TAKAO TSUNEDA, MUNEAKI KAMIYA, SUSUMU YANAGISAWA,
          KIYOSHI YAGI, MAHITO CHIBA, SEIKEN TOKURA, NAOAKI KAWAKAMI
     UNIVERSITY OF AARHUS: FRANK JENSEN
     UNIVERSITY OF IOWA: VISVALDAS KAIRYS, HUI LI
     NATIONAL INST. OF STANDARDS AND TECHNOLOGY: WALT STEVENS, DAVID GARMER
     UNIVERSITY OF PISA: BENEDETTA MENNUCCI, JACOPO TOMASI
     UNIVERSITY OF MEMPHIS: HENRY KURTZ, PRAKASHAN KORAMBATH
     UNIVERSITY OF ALBERTA: TOBY ZENG, MARIUSZ KLOBUKOWSKI
     UNIVERSITY OF NEW ENGLAND: MARK SPACKMAN
     MIE UNIVERSITY: HIROAKI UMEDA
     NAT. INST. OF ADVANCED INDUSTRIAL SCIENCE AND TECHNOLOGY: KAZUO KITAURA
     MICHIGAN STATE UNIVERSITY:
          KAROL KOWALSKI, MARTA WLOCH, JEFFREY GOUR, JESSE LUTZ,
          WEI LI, JUN SHEN, J. EMILIANO DEUSTUA, PIOTR PIECUCH
     UNIVERSITY OF MINNESOTA:
          YINAN SHU
     UNIVERSITY OF SILESIA: MONIKA MUSIAL, STANISLAW KUCHARSKI
     FACULTES UNIVERSITAIRES NOTRE-DAME DE LA PAIX:
          OLIVIER QUINET, BENOIT CHAMPAGNE
     UNIVERSITY OF CALIFORNIA - SANTA BARBARA: BERNARD KIRTMAN
     INSTITUTE FOR MOLECULAR SCIENCE:
          KAZUYA ISHIMURA, MICHIO KATOUDA, AND SHIGERU NAGASE
     UNIVERSITY OF NOTRE DAME: ANNA POMOGAEVA, DAN CHIPMAN
     KYUSHU UNIVERSITY:
          HARUYUKI NAKANO,
          FENG LONG GU, JACEK KORCHOWIEC, MARCIN MAKOWSKI, AND YURIKO AOKI,
          HIROTOSHI MORI AND EISAKU MIYOSHI
     PENNSYLVANIA STATE UNIVERSITY:
          TZVETELIN IORDANOV, CHET SWALINA, JONATHAN SKONE,
          SHARON HAMMES-SCHIFFER
     WASEDA UNIVERSITY:
          MASATO KOBAYASHI, TOMOKO AKAMA, TSUGUKI TOUMA,
          TAKESHI YOSHIKAWA, YASUHIRO IKABATA, JUNJI SEINO,
          YUYA NAKAJIMA, HIROMI NAKAI
     NANJING UNIVERSITY: SHUHUA LI
     UNIVERSITY OF NEBRASKA:
          PEIFENG SU, DEJUN SI, NANDUN THELLAMUREGE, YALI WANG, HUI LI
     UNIVERSITY OF ZURICH: ROBERTO PEVERATI, KIM BALDRIDGE
     N. COPERNICUS UNIVERSITY AND JACKSON STATE UNIVERSITY:
          MARIA BARYSZ
     UNIVERSITY OF COPENHAGEN: Jimmy Kromann, CASPER STEINMANN
     TOKYO INSTITUTE OF TECHNOLOGY: HIROYA NAKATA
     NAGOYA UNIVERSITY: YOSHIO NISHIMOTO, STEPHAN IRLE
     MOSCOW STATE UNIVERSITY: VLADIMIR MIRONOV


 PARALLEL VERSION RUNNING ON       16 PROCESSORS IN        1 NODES.

 EXECUTION OF GAMESS BEGUN Sun Nov 17 21:37:44 2019

            ECHO OF THE FIRST FEW INPUT CARDS -
 INPUT CARD>!*** FMO 5.3 (Gamess) INPUT generated by Facio 22.1.1.32 ***                    
 INPUT CARD> $CONTRL RUNTYP=ENERGY NPRINT=-5 ISPHER=1 MAXIT=200 $END                        
 INPUT CARD> $SYSTEM MWORDS=63 MEMDDI=63 $END                                               
 INPUT CARD> $GDDI NGROUP=1 $END                                                            
 INPUT CARD> $SCF DIRSCF=.TRUE. NPUNCH=0 $END                                               
 INPUT CARD>!*** NumCPU : 2  MemPerNode : 512MB                                             
 INPUT CARD> $PCM SOLVNT=WATER IEF=-10 ICOMP=2 ICAV=1 IDISP=1 IFMO=-1 $END                  
 INPUT CARD> $PCMCAV RADII=SUAHF $END                                                       
 INPUT CARD> $TESCAV NTSALL=60 $END                                                         
 INPUT CARD> $FMOPRP                                                                        
 INPUT CARD>    NAODIR=200                                                                  
 INPUT CARD>    NGRFMO(1)=1, 1, 0, 0, 0,   0, 0, 0, 0, 0                                    
 INPUT CARD>    IPIEDA=1                                                                    
 INPUT CARD>    NPRINT=9                                                                    
 INPUT CARD> $END                                                                           
 INPUT CARD> $FMO                                                                           
 INPUT CARD>      SCFTYP(1)=RHF                                                             
 INPUT CARD>      MODGRD=10                                                                 
 INPUT CARD>      MODMUL=0                                                                  
 INPUT CARD>      MAXCAO=5                                                                  
 INPUT CARD>      MAXBND=19                                                                 
 INPUT CARD>      NLAYER=1                                                                  
 INPUT CARD>      MPLEVL(1)=2                                                               
 INPUT CARD>      NFRAG=17                                                                  
 INPUT CARD>      ICHARG(1)=-1, -1, -1, -1, -1, -1, -1, -1, -1, -1, 0, -1, -1, -1,          
 INPUT CARD>-1, -1, 0                                                                       
 INPUT CARD>      FRGNAM(1)=F1, F2, F3, F4, F5, F6, F7, F8, F9, F10, F11, F12, F13,         
 INPUT CARD>F14, F15, F16, F17                                                              
 INPUT CARD>      indat(1)=0                                                                
 INPUT CARD>               1   -35   0                                                      
 INPUT CARD>               36   -69   0                                                     
 INPUT CARD>               70   -103   0                                                    
 INPUT CARD>               104   -136   0                                                   
 INPUT CARD>               137   -169   0                                                   
 INPUT CARD>               170   -200   0                                                   
 INPUT CARD>               201   -230   0                                                   
 INPUT CARD>               231   -263   0                                                   
 INPUT CARD>               264   -294   0                                                   
 INPUT CARD>               295   -324   0                                                   
 INPUT CARD>               325   -357   0                                                   
 INPUT CARD>               358   -388   0                                                   
 INPUT CARD>               389   -421   0                                                   
 INPUT CARD>               422   -455   0                                                   
 INPUT CARD>               456   -486   0                                                   
 INPUT CARD>               487   -517   0                                                   
 INPUT CARD>               518   -544   0                                                   
 INPUT CARD> $END                                                                           
 INPUT CARD>                                                                                
 INPUT CARD> $FMOBND                                                                        
 INPUT CARD>   -36   35       6-31G*    MINI                                                


 -------------------------------------------------------------
 GROUP DDI, PROGRAMMED BY: RYAN M. OLSON AND DMITRI G. FEDOROV
        FEDOROV ET AL., J. COMPUT. CHEM., 25 (2004) 872.
 -------------------------------------------------------------

 -------------------------------------------------------
 GDDI: INITIALIZATION COMPLETED FOR GROUP     1 OF     1
 WITH    16 PROCESSES BALTYP=DLB   global rank=        0
 -------------------------------------------------------

   63000000 WORDS OF MEMORY AVAILABLE


     RUN TITLE
     ---------
  FMO calculation                                                                

 THE POINT GROUP OF THE MOLECULE IS C1      
 THE ORDER OF THE PRINCIPAL AXIS IS     0

 ATOM   ATOMIC CHARGE
 H.1-1       1.0
 O.1-1       8.0
 C.1-1       6.0
 N.1-1       7.0
 P.1-1      15.0

     ATOMIC BASIS SET LIBRARY
     ----------------
 THE CONTRACTED PRIMITIVE FUNCTIONS HAVE BEEN UNNORMALIZED
 THE CONTRACTED BASIS FUNCTIONS ARE NOW NORMALIZED TO UNITY

  SHELL TYPE  PRIMITIVE        EXPONENT          CONTRACTION COEFFICIENT(S)

 H.1-1     

      1   S       1            18.7311370    0.033494604338
      1   S       2             2.8253944    0.234726953484
      1   S       3             0.6401217    0.813757326146

      2   S       4             0.1612778    1.000000000000

 O.1-1     

      3   S       5          5484.6716600    0.001831074430
      3   S       6           825.2349460    0.013950172200
      3   S       7           188.0469580    0.068445078098
      3   S       8            52.9645000    0.232714335992
      3   S       9            16.8975704    0.470192897984
      3   S      10             5.7996353    0.358520852987

      4   L      11            15.5396162   -0.110777549525    0.070874268231
      4   L      12             3.5999336   -0.148026262701    0.339752839147
      4   L      13             1.0137618    1.130767015354    0.727158577316

      5   L      14             0.2700058    1.000000000000    1.000000000000

      6   D      15             0.8000000    1.000000000000

 C.1-1     

      7   S      16          3047.5248800    0.001834737132
      7   S      17           457.3695180    0.014037322813
      7   S      18           103.9486850    0.068842622264
      7   S      19            29.2101553    0.232184443216
      7   S      20             9.2866630    0.467941348435
      7   S      21             3.1639270    0.362311985337

      8   L      22             7.8682723   -0.119332419775    0.068999066591
      8   L      23             1.8812885   -0.160854151696    0.316423960957
      8   L      24             0.5442493    1.143456437840    0.744308290898

      9   L      25             0.1687145    1.000000000000    1.000000000000

     10   D      26             0.8000000    1.000000000000

 N.1-1     

     11   S      27          4173.5114600    0.001834772160
     11   S      28           627.4579110    0.013994627002
     11   S      29           142.9020930    0.068586551812
     11   S      30            40.2343293    0.232240873040
     11   S      31            12.8202129    0.469069948082
     11   S      32             4.3904370    0.360455199063

     12   L      33            11.6263619   -0.114961181702    0.067579743878
     12   L      34             2.7162798   -0.169117478561    0.323907295893
     12   L      35             0.7722184    1.145851947027    0.740895139755

     13   L      36             0.2120315    1.000000000000    1.000000000000

     14   D      37             0.8000000    1.000000000000

 P.1-1     

     15   S      38         19413.3000000    0.001851598923
     15   S      39          2909.4200000    0.014206191735
     15   S      40           661.3640000    0.069999459277
     15   S      41           185.7590000    0.240078860331
     15   S      42            59.1943000    0.484761717984
     15   S      43            20.0310000    0.335199804993

     16   L      44           339.4780000   -0.002782170105    0.004564616191
     16   L      45            81.0101000   -0.036049901354    0.033693571881
     16   L      46            25.8780000   -0.116631004382    0.139754883368
     16   L      47             9.4522100    0.096832803638    0.339361716786
     16   L      48             3.6656600    0.614418023082    0.450920623685
     16   L      49             1.4674600    0.403798015170    0.238585800889

     17   L      50             2.1562300   -0.252924113863   -0.017765312733
     17   L      51             0.7489970    0.032851844678    0.274058196433
     17   L      52             0.2831450    1.081254761783    0.785421562957

     18   L      53             0.0998317    1.000000000000    1.000000000000

     19   D      54             0.5500000    1.000000000000

 TOTAL NUMBER OF BASIS SET SHELLS             =   19
 NUMBER OF CARTESIAN GAUSSIAN BASIS FUNCTIONS =   66

     $CONTRL OPTIONS
     ---------------
 SCFTYP=RHF          RUNTYP=ENERGY       EXETYP=RUN     
 MPLEVL=       0     CITYP =NONE         CCTYP =NONE         VBTYP =NONE    
 DFTTYP=NONE         TDDFT =NONE    
 MULT  =       1     ICHARG=       0     NZVAR =       0     COORD =UNIQUE  
 PP    =NONE         RELWFN=NONE         LOCAL =NONE         NUMGRD=       F
 ISPHER=       1     NOSYM =       0     MAXIT =     200     UNITS =ANGS    
 PLTORB=       F     MOLPLT=       F     AIMPAC=       F     FRIEND=        
 NPRINT=      -5     IREST =       0     GEOM  =INPUT   
 NORMF =       0     NORMP =       0     ITOL  =      24     ICUT  =      12
 INTTYP=BEST         GRDTYP=BEST         QMTTOL= 1.0E-06

     $SYSTEM OPTIONS
     ---------------
  REPLICATED MEMORY=    63000000 WORDS (ON EVERY NODE).
 DISTRIBUTED MEMDDI=          63 MILLION WORDS IN AGGREGATE,
 MEMDDI DISTRIBUTED OVER  16 PROCESSORS IS     3937500 WORDS/PROCESSOR.
 TOTAL MEMORY REQUESTED ON EACH PROCESSOR=    66937500 WORDS.
 TIMLIM=      525600.00 MINUTES, OR     365.0 DAYS.
 PARALL= T  BALTYP=  DLB     KDIAG=    0  COREFL= F
 MXSEQ2=     300 MXSEQ3=     150  mem10=         0

 ** LOOKING UP INTERNALLY STORED DATA FOR SOLVENT=WATER    **
 OPTICAL AND PHYSICAL CONSTANTS:
 EPS= 78.390; EPSINF=  1.776; RSOLV=  1.385 A; VMOL=  18.070 ML/MOL;
 TCE= .25700E-03 1/K; STEN= 71.810 DYN/CM;  DSTEN=  0.6500; CMF=  1.2770


     -----------------------------------
     INPUT FOR PCM SOLVATION CALCULATION 
     -----------------------------------
     IEF   =     -10
     ICOMP =       2     IFIELD=       0     ICAV  =       1
     IDISP =       1     IREP  =       0     IDP   =       0

     SOLVNT=WATER        EPS   = 78.3900     EPSINF=  1.7760
     VMOL  = 18.0700     TCE   =  0.00025700 STEN  = 71.8100
     DSTEN =  0.6500     CMF   =  1.2770     RSOLV =  1.3850

     NESFP =       0
     OMEGA = 40.0000     RET   =100.0000     FRO   =  0.7000

     TABS  =298.0000     IPRINT=       0

     --------------------------------
     INPUT FOR ITERATIVE C-PCM METHOD 
     --------------------------------
     IPCMIT  =         1     MXDIIS  =        50
     MXITR1  =       200     MXITR2  =       200
     THRES   = 0.100E-09     IMUL    =         3
     RCUT(1) =   20.0000     RCUT(2) =   50.0000

     IDIRCT  =         1
     IMGABI  =         0     RABI    =    4.0000
     IMGASC  =         0     RASC    =   20.0000
     THRSLS  = 0.500E-03     DENSLS  =    0.0100
     IEFPOL  =         1     REFPOL  =    0.0000

     INPUT FOR ISOTROPIC DIELECTRICS
     -------------------------------
     EPS=    78.39

          ----------------
          PROPERTIES INPUT
          ----------------

     MOMENTS            FIELD           POTENTIAL          DENSITY
 IEMOM =       1   IEFLD =       0   IEPOT =       0   IEDEN =       0
 WHERE =COMASS     WHERE =NUCLEI     WHERE =NUCLEI     WHERE =NUCLEI  
 OUTPUT=BOTH       OUTPUT=BOTH       OUTPUT=NONE       OUTPUT=BOTH    
 IEMINT=       0   IEFINT=       0                     IEDINT=       0
                                                       MORB  =       0
          EXTRAPOLATION IN EFFECT
          SOSCF IN EFFECT
 ORBITAL PRINTING OPTION: NPREO=     1 32767     2     1

     -------------------------------
     INTEGRAL TRANSFORMATION OPTIONS
     -------------------------------
     NWORD  =            0
     CUTOFF = 1.0E-10     MPTRAN =       0
     DIRTRF =       T     AOINTS =DUP     

          ----------------------
          INTEGRAL INPUT OPTIONS
          ----------------------
 NOPK  =       1 NORDER=       0 SCHWRZ=       T

 ..... DONE SETTING UP THE RUN .....
 CPU     0: STEP CPU TIME=     0.04 TOTAL CPU TIME=          0.0 (      0.0 MIN)
 TOTAL WALL CLOCK TIME=          0.1 SECONDS, CPU UTILIZATION IS    57.14%
 CPU     0: STEP CPU TIME=     0.00 TOTAL CPU TIME=          0.0 (      0.0 MIN)
 TOTAL WALL CLOCK TIME=          0.1 SECONDS, CPU UTILIZATION IS    57.14%

                    ----------------------
                    AO INTEGRAL TECHNOLOGY
                    ----------------------
     S,P,L SHELL ROTATED AXIS INTEGRALS, REPROGRAMMED BY
        KAZUYA ISHIMURA (IMS) AND JOSE SIERRA (SYNSTAR).
     S,P,D,L SHELL ROTATED AXIS INTEGRALS PROGRAMMED BY
        KAZUYA ISHIMURA (INSTITUTE FOR MOLECULAR SCIENCE).
     S,P,D,F,G SHELL TO TOTAL QUARTET ANGULAR MOMENTUM SUM 5,
        ERIC PROGRAM BY GRAHAM FLETCHER (ELORET AND NASA ADVANCED
        SUPERCOMPUTING DIVISION, AMES RESEARCH CENTER).
     S,P,D,F,G,L SHELL GENERAL RYS QUADRATURE PROGRAMMED BY
        MICHEL DUPUIS (PACIFIC NORTHWEST NATIONAL LABORATORY).
 Setting modorb=1 flag...
 Setting modorb=1 flag...

          -----------------------
          MP2 CONTROL INFORMATION
          -----------------------
          NACORE =        8  NBCORE =        8
          LMOMP2 =        F  AOINTS = DUP     
          METHOD =        2  NWORD  =               0
          MP2PRP =        F  OSPT   = NONE    
          CUTOFF = 1.00E-12  CPHFBS = BASISAO 
          CODE   = IMS     

          NUMBER OF CORE -A-  ORBITALS =     8
          NUMBER OF CORE -B-  ORBITALS =     8
          NUMBER OF OCC. -A-  ORBITALS =    18
          NUMBER OF OCC. -B-  ORBITALS =    18
          NUMBER OF MOLECULAR ORBITALS =    66
          NUMBER OF   BASIS  FUNCTIONS =    66

 CPU     0: STEP CPU TIME=     0.04 TOTAL CPU TIME=          0.1 (      0.0 MIN)
 TOTAL WALL CLOCK TIME=          0.1 SECONDS, CPU UTILIZATION IS    72.73%
 CPU     0: STEP CPU TIME=     0.00 TOTAL CPU TIME=          0.1 (      0.0 MIN)
 TOTAL WALL CLOCK TIME=          0.1 SECONDS, CPU UTILIZATION IS    72.73%

     INPUT FOR CAVITY DEFINITION 
     ---------------------------
   ATOM               COORDINATES                RADIUS       EPS
      1     18.0310      7.4970      2.0520      0.0100     78.3900
      2     18.2330      8.3270      1.5760      1.5900     78.3900
      3     19.1400      9.0710      2.4030      1.7700     78.3900
      4     20.0360      8.4440      2.6150      0.0100     78.3900
      5     18.6520      9.3020      3.3770      0.0100     78.3900
      6     19.6000     10.3820      1.7580      1.7700     78.3900
      7     20.2660     10.9480      2.4450      0.0100     78.3900
      8     20.3680     10.0960      0.5520      1.5900     78.3900
      9     20.0770     11.0790     -0.4280      1.7700     78.3900
     10     21.0540     11.5270     -0.7180      0.0100     78.3900
     11     19.4500     10.4850     -1.6170      1.6800     78.3900
     12     18.7200     10.1000     -3.6580      1.7700     78.3900
     13     18.4210      8.9620     -2.9180      1.6800     78.3900
     14     18.8710      9.2420     -1.7170      1.7700     78.3900
     15     18.8190      8.5790     -0.8500      0.0100     78.3900
     16     18.9320     11.6510     -5.4380      1.6800     78.3900
     17     19.4950     12.4750     -4.5460      1.7700     78.3900
     18     19.8130     13.4460     -4.9420      0.0100     78.3900
     19     19.7790     12.2620     -3.2570      1.6800     78.3900
     20     19.3500     11.0470     -2.8690      1.7700     78.3900
     21     18.5240     10.4250     -5.0190      1.7700     78.3900
     22     17.9790      9.5730     -5.9090      1.6800     78.3900
     23     17.6420      8.6700     -5.6260      0.0100     78.3900
     24     17.8090      9.8620     -6.8550      0.0100     78.3900
     25     19.2120     12.1330      0.2260      1.7700     78.3900
     26     18.5100     12.6100     -0.4860      0.0100     78.3900
     27     20.0320     13.1230      0.8140      1.5900     78.3900
     28     19.4350     13.7670      1.2140      0.0100     78.3900
     29     18.4770     11.3180      1.2870      1.7700     78.3900
     30     17.6980     10.6750      0.8130      0.0100     78.3900
     31     17.9740     12.0780      2.4100      1.5900     78.3900
     32     16.5080     12.6610      2.3510      2.1000     78.3900
     33     15.5860     11.6090      1.8750      1.5900     78.3900
     34     16.1980     13.2390      3.6780      1.5900     78.3900
     35     16.6040     13.7920      1.2650      1.5900     78.3900
     36     17.3320     15.0110      1.5390      1.7700     78.3900
     37     18.3750     14.8050      1.8680      0.0100     78.3900
     38     16.8350     15.5820      2.3530      0.0100     78.3900
     39     17.3880     15.9070      0.2950      1.7700     78.3900
     40     17.9760     16.8300      0.4940      0.0100     78.3900
     41     18.0480     15.2000     -0.7960      1.5900     78.3900
     42     17.4150     15.5390     -2.0230      1.7700     78.3900
     43     18.1990     15.9530     -2.6990      0.0100     78.3900
     44     16.8100     14.3620     -2.6720      1.6800     78.3900
     45     16.4740     14.2360     -3.9960      1.7700     78.3900
     46     16.1890     15.5810     -7.1760      1.6800     78.3900
     47     16.5280     16.5130     -7.0460      0.0100     78.3900
     48     15.8380     15.3090     -8.0770      0.0100     78.3900
     49     16.6180     15.1800     -4.9460      1.6800     78.3900
     50     16.1620     14.7730     -6.1280      1.7700     78.3900
     51     15.6780     13.5140     -6.3570      1.6800     78.3900
     52     15.3610     13.2880     -7.2870      0.0100     78.3900
     53     15.5390     12.5150     -5.4050      1.7700     78.3900
     54     15.0820     11.4070     -5.7040      1.5900     78.3900
     55     15.9730     12.9520     -4.1270      1.7700     78.3900
     56     15.9810     12.2880     -2.9060      1.6800     78.3900
     57     16.4760     13.1690     -2.0720      1.7700     78.3900
     58     16.6270     13.0100     -1.0030      0.0100     78.3900
     59     16.3990     16.6140     -1.7190      1.7700     78.3900
     60     15.5190     16.5610     -2.3890      0.0100     78.3900
     61     17.0020     17.8880     -1.8060      1.5900     78.3900
     62     16.3170     18.5220     -1.5620      0.0100     78.3900
     63     16.0190     16.3030     -0.2790      1.7700     78.3900
     64     15.3790     15.3910     -0.2320      0.0100     78.3900
     65     15.4710     17.4290      0.4560      1.5900     78.3900
     66     13.9030     17.6130      0.4710      2.1000     78.3900
     67     13.2700     16.3030      0.7260      1.5900     78.3900
     68     13.5670     18.7140      1.4030      1.5900     78.3900
     69     13.5370     18.0600     -0.9950      1.5900     78.3900
     70     13.9450     19.3500     -1.5120      1.7700     78.3900
     71     15.0150     19.5600     -1.2880      0.0100     78.3900
     72     13.3460     20.1630     -1.0410      0.0100     78.3900
     73     13.7480     19.4310     -3.0360      1.7700     78.3900
     74     14.1590     20.3790     -3.4450      0.0100     78.3900
     75     14.4510     18.3330     -3.6900      1.5900     78.3900
     76     13.6900     17.8610     -4.7850      1.7700     78.3900
     77     14.3460     17.9330     -5.6830      0.0100     78.3900
     78     13.2720     16.4560     -4.6180      1.6800     78.3900
     79     12.8520     15.6250     -5.6230      1.7700     78.3900
     80     12.0280     15.1110     -8.9550      1.6800     78.3900
     81     12.2050     16.0020     -9.3680      0.0100     78.3900
     82     11.6120     14.3850     -9.5100      0.0100     78.3900
     83     12.7360     15.9550     -6.9230      1.6800     78.3900
     84     12.2790     14.9540     -7.6690      1.7700     78.3900
     85     12.0260     13.7080     -7.1630      1.6800     78.3900
     86     11.6800     13.0080     -7.8030      0.0100     78.3900
     87     12.1640     13.3280     -5.8360      1.7700     78.3900
     88     11.9060     12.1730     -5.4920      1.5900     78.3900
     89     12.6000     14.4090     -5.0210      1.7700     78.3900
     90     12.8390     14.4740     -3.6500      1.6800     78.3900
     91     13.2270     15.7150     -3.4560      1.7700     78.3900
     92     13.4950     16.1530     -2.4940      0.0100     78.3900
     93     12.5200     18.7910     -4.9410      1.7700     78.3900
     94     11.6210     18.2640     -5.3060      0.0100     78.3900
     95     12.8640     19.8510     -5.8130      1.5900     78.3900
     96     12.1470     20.4950     -5.7600      0.0100     78.3900
     97     12.2970     19.2890     -3.5180      1.7700     78.3900
     98     11.8210     18.4990     -2.8920      0.0100     78.3900
     99     11.6110     20.5570     -3.4280      1.5900     78.3900
    100     10.0370     20.6210     -3.4620      2.1000     78.3900
    101      9.5310     19.9000     -2.2770      1.5900     78.3900
    102      9.6190     22.0310     -3.6170      1.5900     78.3900
    103      9.6060     19.8110     -4.7420      1.5900     78.3900
    104      9.6210     20.4060     -6.0610      1.7700     78.3900
    105     10.6090     20.8550     -6.2950      0.0100     78.3900
    106      8.8560     21.2130     -6.1410      0.0100     78.3900
    107      9.2830     19.3830     -7.1560      1.7700     78.3900
    108      9.4470     19.8120     -8.1700      0.0100     78.3900
    109     10.1190     18.1990     -7.0580      1.5900     78.3900
    110      9.3400     17.0530     -7.3350      1.7700     78.3900
    111      9.8530     16.5110     -8.1620      0.0100     78.3900
    112      9.2310     16.1760     -6.1670      1.6800     78.3900
    113      8.9270     14.4020     -4.9050      1.7700     78.3900
    114      9.2890     15.4290     -4.0490      1.6800     78.3900
    115      9.4540     16.4620     -4.8410      1.7700     78.3900
    116      9.7480     17.4630     -4.5240      0.0100     78.3900
    117      8.3830     12.2880     -5.7860      1.6800     78.3900
    118      8.3750     12.8660     -6.9830      1.7700     78.3900
    119      8.1360     12.2060     -7.8250      0.0100     78.3900
    120      8.6000     14.1390     -7.3080      1.6800     78.3900
    121      8.8860     14.8570     -6.2120      1.7700     78.3900
    122      8.6370     13.0360     -4.6910      1.7700     78.3900
    123      8.5890     12.4530     -3.4790      1.6800     78.3900
    124      8.9350     12.8960     -2.6480      0.0100     78.3900
    125      8.2720     11.4950     -3.3990      0.0100     78.3900
    126      7.9970     17.5270     -7.8180      1.7700     78.3900
    127      7.1810     16.8360     -7.5350      0.0100     78.3900
    128      8.0240     17.6880     -9.2270      1.5900     78.3900
    129      7.2470     18.2080     -9.4750      0.0100     78.3900
    130      7.8580     18.8490     -7.0820      1.7700     78.3900
    131      7.6320     18.6870     -6.0020      0.0100     78.3900
    132      6.9690     19.7820     -7.7010      1.5900     78.3900
    133      5.4630     19.8670     -7.2880      2.1000     78.3900
    134      5.3800     20.4060     -5.9130      1.5900     78.3900
    135      4.7790     20.6330     -8.3480      1.5900     78.3900
    136      4.9420     18.3800     -7.2850      1.5900     78.3900
    137      4.5750     17.7310     -8.5260      1.7700     78.3900
    138      5.4360     17.6980     -9.2300      0.0100     78.3900
    139      3.7420     18.2730     -9.0320      0.0100     78.3900
    140      4.1330     16.2820     -8.2840      1.7700     78.3900
    141      3.9190     15.7710     -9.2470      0.0100     78.3900
    142      5.2100     15.5370     -7.6380      1.5900     78.3900
    143      4.6550     14.6510     -6.6860      1.7700     78.3900
    144      5.0370     13.6470     -6.9650      0.0100     78.3900
    145      5.0820     14.9340     -5.3330      1.6800     78.3900
    146      5.5590     14.7580     -3.2040      1.7700     78.3900
    147      5.8970     16.0560     -3.5820      1.6800     78.3900
    148      5.5830     16.1100     -4.8500      1.7700     78.3900
    149      5.7020     16.9790     -5.5000      0.0100     78.3900
    150      5.2530     12.7720     -1.9520      1.6800     78.3900
    151      4.7840     12.2270     -3.0770      1.7700     78.3900
    152      4.4650     11.1820     -2.9990      0.0100     78.3900
    153      4.5950     12.7950     -4.2730      1.6800     78.3900
    154      5.0430     14.0570     -4.2770      1.7700     78.3900
    155      5.6620     14.0660     -1.9810      1.7700     78.3900
    156      6.1730     14.6200     -0.8690      1.6800     78.3900
    157      6.4570     15.5820     -0.8190      0.0100     78.3900
    158      6.1800     14.0830     -0.0230      0.0100     78.3900
    159      3.1610     14.6920     -6.8090      1.7700     78.3900
    160      2.6520     14.5760     -5.8340      0.0100     78.3900
    161      2.7510     13.6660     -7.6760      1.5900     78.3900
    162      1.8590     13.8660     -7.9800      0.0100     78.3900
    163      2.9270     16.0840     -7.3700      1.7700     78.3900
    164      3.0430     16.8330     -6.5510      0.0100     78.3900
    165      1.6970     16.2260     -8.1170      1.5900     78.3900
    166      0.5270     17.1040     -7.5380      2.1000     78.3900
    167      1.0940     18.3560     -7.0230      1.5900     78.3900
    168     -0.5650     17.1870     -8.5220      1.5900     78.3900
    169      0.0400     16.2500     -6.3120      1.5900     78.3900
    170     -0.5670     14.9600     -6.4800      1.7700     78.3900
    171     -0.0370     14.3440     -7.2430      0.0100     78.3900
    172     -1.6200     15.0910     -6.8210      0.0100     78.3900
    173     -0.6030     14.1780     -5.1640      1.7700     78.3900
    174     -1.0580     13.1770     -5.3300      0.0100     78.3900
    175      0.7350     13.9610     -4.6570      1.5900     78.3900
    176      0.7470     14.1030     -3.2510      1.7700     78.3900
    177      1.1670     13.1450     -2.8720      0.0100     78.3900
    178      1.6270     15.2040     -2.7850      1.6800     78.3900
    179      1.8770     16.2920     -3.5900      1.7700     78.3900
    180      1.4320     16.2630     -4.5830      0.0100     78.3900
    181      2.6630     17.2980     -3.1840      1.7700     78.3900
    182      2.8830     18.1620     -3.8110      0.0100     78.3900
    183      2.1370     15.1700     -1.4890      1.7700     78.3900
    184      1.8080     14.2450     -0.7310      1.5900     78.3900
    185      2.9630     16.1590     -1.0770      1.6800     78.3900
    186      3.2270     17.2010     -1.8790      1.7700     78.3900
    187      4.0260     18.1600     -1.4240      1.6800     78.3900
    188      4.4020     18.0720     -0.4990      0.0100     78.3900
    189      4.2870     18.9510     -1.9720      0.0100     78.3900
    190     -0.6930     14.2350     -2.7910      1.7700     78.3900
    191     -0.8080     14.8750     -1.8910      0.0100     78.3900
    192     -1.2260     12.9470     -2.5490      1.5900     78.3900
    193     -1.6640     12.6510     -3.3620      0.0100     78.3900
    194     -1.3360     14.8760     -4.0180      1.7700     78.3900
    195     -1.0450     15.9500     -4.0720      0.0100     78.3900
    196     -2.7510     14.6550     -4.1650      1.5900     78.3900
    197     -3.8020     15.6580     -3.5610      2.1000     78.3900
    198     -5.0270     15.5590     -4.3840      1.5900     78.3900
    199     -3.9650     15.4010     -2.1170      1.5900     78.3900
    200     -3.1780     17.0880     -3.7520      1.5900     78.3900
    201     -3.0030     17.6880     -5.0610      1.7700     78.3900
    202     -3.7840     17.3550     -5.7890      0.0100     78.3900
    203     -2.0220     17.3800     -5.4790      0.0100     78.3900
    204     -3.0370     19.2390     -5.0210      1.7700     78.3900
    205     -4.0780     19.5580     -5.2190      0.0100     78.3900
    206     -2.6500     19.7840     -3.7210      1.5900     78.3900
    207     -1.4100     20.4660     -3.8350      1.7700     78.3900
    208     -1.6830     21.5460     -3.8420      0.0100     78.3900
    209     -0.4910     20.1700     -2.7030      1.6800     78.3900
    210     -0.6690     19.0510     -1.9170      1.7700     78.3900
    211     -1.5140     18.4140     -2.1940      0.0100     78.3900
    212      0.5140     21.0760     -2.4280      1.7700     78.3900
    213      0.6750     22.1150     -3.0600      1.5900     78.3900
    214      1.3100     20.7480     -1.3620      1.6800     78.3900
    215      2.0140     21.4290     -1.1250      0.0100     78.3900
    216      1.1470     19.6950     -0.4880      1.7700     78.3900
    217      1.8860     19.5870      0.4900      1.5900     78.3900
    218      0.0850     18.7970     -0.8350      1.7700     78.3900
    219     -0.1130     17.9540     -0.1750      0.0100     78.3900
    220     -0.8290     20.1090     -5.1860      1.7700     78.3900
    221     -0.2560     19.1560     -5.1420      0.0100     78.3900
    222     -0.0380     21.1590     -5.7020      1.5900     78.3900
    223     -0.6560     21.8670     -5.9350      0.0100     78.3900
    224     -2.0950     19.9510     -6.0180      1.7700     78.3900
    225     -1.8790     19.2680     -6.8740      0.0100     78.3900
    226     -2.6240     21.2340     -6.4500      1.5900     78.3900
    227     -3.5400     21.3990     -7.7160      2.1000     78.3900
    228     -4.9190     21.0810     -7.2850      1.5900     78.3900
    229     -3.3290     22.7580     -8.2750      1.5900     78.3900
    230     -3.0600     20.3400     -8.7730      1.5900     78.3900
    231     -1.7730     20.4030     -9.4260      1.7700     78.3900
    232     -1.1550     19.5430     -9.0930      0.0100     78.3900
    233     -1.2050     21.3280     -9.1740      0.0100     78.3900
    234     -1.9560     20.3200    -10.9440      1.7700     78.3900
    235     -2.5890     21.1570    -11.3050      0.0100     78.3900
    236     -0.6510     20.4530    -11.5910      1.5900     78.3900
    237     -0.6220     19.6210    -12.7500      1.7700     78.3900
    238     -0.3800     20.2860    -13.6120      0.0100     78.3900
    239      0.4130     18.5820    -12.6430      1.6800     78.3900
    240      1.7770     16.9180    -13.1150      1.7700     78.3900
    241      2.1140     17.3460    -11.8350      1.6800     78.3900
    242      1.2820     18.3370    -11.5980      1.7700     78.3900
    243      1.2530     18.9310    -10.6760      0.0100     78.3900
    244      1.7490     15.7630    -15.1860      1.6800     78.3900
    245      0.7290     16.5560    -15.5270      1.7700     78.3900
    246      0.3180     16.3890    -16.5280      0.0100     78.3900
    247      0.1780     17.5620    -14.8410      1.6800     78.3900
    248      0.7360     17.6740    -13.6240      1.7700     78.3900
    249      2.3070     15.9140    -13.9570      1.7700     78.3900
    250      3.3410     15.1210    -13.6220      1.6800     78.3900
    251      3.8350     15.2370    -12.7610      0.0100     78.3900
    252      3.6830     14.4530    -14.2840      0.0100     78.3900
    253     -2.0140     19.0380    -12.9380      1.7700     78.3900
    254     -2.0050     18.0110    -13.3640      0.0100     78.3900
    255     -2.7870     19.8890    -13.7680      1.5900     78.3900
    256     -3.7150     19.6350    -13.6530      0.0100     78.3900
    257     -2.5360     19.0160    -11.5100      1.7700     78.3900
    258     -2.0650     18.1890    -10.9300      0.0100     78.3900
    259     -3.9720     19.0240    -11.4270      1.5900     78.3900
    260     -4.7780     17.7150    -11.1080      2.1000     78.3900
    261     -4.4780     17.2680     -9.7330      1.5900     78.3900
    262     -6.1980     17.9860    -11.4370      1.5900     78.3900
    263     -4.2290     16.6460    -12.1250      1.5900     78.3900
    264     -4.7110     16.6140    -13.4920      1.7700     78.3900
    265     -4.4150     17.5390    -14.0350      0.0100     78.3900
    266     -5.8250     16.5370    -13.5160      0.0100     78.3900
    267     -4.1630     15.4030    -14.2680      1.7700     78.3900
    268     -4.6270     15.3390    -15.2780      0.0100     78.3900
    269     -2.7300     15.5560    -14.4770      1.5900     78.3900
    270     -2.0930     14.2910    -14.3340      1.7700     78.3900
    271     -1.5200     14.1260    -15.2760      0.0100     78.3900
    272     -1.1510     14.2560    -13.1820      1.6800     78.3900
    273     -1.3120     15.1540    -12.1600      1.7700     78.3900
    274     -2.1260     15.8670    -12.2630      0.0100     78.3900
    275     -0.4900     15.1720    -11.1080      1.7700     78.3900
    276     -0.5970     15.8950    -10.3090      0.0100     78.3900
    277     -0.1390     13.2980    -13.1100      1.7700     78.3900
    278     -0.0320     12.4590    -14.0110      1.5900     78.3900
    279      0.7090     13.3060    -12.0530      1.6800     78.3900
    280      0.5660     14.2230    -11.0850      1.7700     78.3900
    281      1.4440     14.2720    -10.1020      1.6800     78.3900
    282      2.1720     13.5820    -10.0300      0.0100     78.3900
    283      1.4830     15.0680     -9.4930      0.0100     78.3900
    284     -3.1820     13.2450    -14.2290      1.7700     78.3900
    285     -2.8800     12.3770    -13.6090      0.0100     78.3900
    286     -3.5540     12.7980    -15.5200      1.5900     78.3900
    287     -4.3150     12.2160    -15.4020      0.0100     78.3900
    288     -4.3040     14.0400    -13.5690      1.7700     78.3900
    289     -4.0680     14.2140    -12.4910      0.0100     78.3900
    290     -5.6290     13.5080    -13.7880      1.5900     78.3900
    291     -6.3210     12.6460    -12.6680      2.1000     78.3900
    292     -5.9450     13.1790    -11.3420      1.5900     78.3900
    293     -7.7640     12.5440    -12.9530      1.5900     78.3900
    294     -5.6660     11.2330    -12.8160      1.5900     78.3900
    295     -5.7400     10.4720    -14.0360      1.7700     78.3900
    296     -5.4710     11.0800    -14.9280      0.0100     78.3900
    297     -6.7830     10.1240    -14.1890      0.0100     78.3900
    298     -4.8090      9.2470    -13.9770      1.7700     78.3900
    299     -4.9280      8.6140    -14.8830      0.0100     78.3900
    300     -3.4220      9.7020    -13.9460      1.5900     78.3900
    301     -2.6570      8.8740    -13.0800      1.7700     78.3900
    302     -1.8110      8.4850    -13.6970      0.0100     78.3900
    303     -2.1270      9.6370    -11.9060      1.6800     78.3900
    304     -2.7020     10.8300    -11.5290      1.7700     78.3900
    305     -3.5470     11.1480    -12.1310      0.0100     78.3900
    306     -1.0570      9.1280    -11.2010      1.7700     78.3900
    307     -0.5350      8.0520    -11.4820      1.5900     78.3900
    308     -0.6110      9.9170    -10.1730      1.6800     78.3900
    309      0.1410      9.5300     -9.6130      0.0100     78.3900
    310     -1.1100     11.1390     -9.7730      1.7700     78.3900
    311     -0.5880     11.7520     -8.8450      1.5900     78.3900
    312     -2.2330     11.5910    -10.5330      1.7700     78.3900
    313     -2.6840     12.5510    -10.2910      0.0100     78.3900
    314     -3.5530      7.7150    -12.6750      1.7700     78.3900
    315     -3.3190      7.3340    -11.6620      0.0100     78.3900
    316     -3.4340      6.6660    -13.6160      1.5900     78.3900
    317     -4.0990      6.0050    -13.3900      0.0100     78.3900
    318     -4.9380      8.3530    -12.7290      1.7700     78.3900
    319     -5.0690      9.0360    -11.8580      0.0100     78.3900
    320     -6.0320      7.4150    -12.8950      1.5900     78.3900
    321     -6.8440      6.9610    -11.6240      2.1000     78.3900
    322     -7.1070      8.1190    -10.7480      1.5900     78.3900
    323     -8.0300      6.1790    -12.0450      1.5900     78.3900
    324     -5.8420      6.0120    -10.8750      1.5900     78.3900
    325     -5.5010      4.7280    -11.4450      1.7700     78.3900
    326     -5.0860      4.8430    -12.4690      0.0100     78.3900
    327     -6.4020      4.0720    -11.5150      0.0100     78.3900
    328     -4.4550      4.0140    -10.5860      1.7700     78.3900
    329     -4.2010      3.0160    -11.0010      0.0100     78.3900
    330     -3.2320      4.8020    -10.5560      1.5900     78.3900
    331     -2.6530      4.7170     -9.2620      1.7700     78.3900
    332     -1.6200      4.3260     -9.3930      0.0100     78.3900
    333     -2.5700      6.0410     -8.6230      1.6800     78.3900
    334     -1.7630      6.3760     -7.5690      1.7700     78.3900
    335      0.6150      5.4920     -5.2070      1.6800     78.3900
    336      0.7090      4.5090     -5.3510      0.0100     78.3900
    337      1.1120      5.9210     -4.4470      0.0100     78.3900
    338     -0.9320      5.5430     -6.9150      1.6800     78.3900
    339     -0.2420      6.1580     -5.9590      1.7700     78.3900
    340     -0.3930      7.4880     -5.6680      1.6800     78.3900
    341      0.1550      7.8760     -4.9150      0.0100     78.3900
    342     -1.2520      8.3680     -6.3130      1.7700     78.3900
    343     -1.3250      9.5490     -5.9620      1.5900     78.3900
    344     -1.9930      7.7190     -7.3400      1.7700     78.3900
    345     -2.9530      8.2190     -8.2200      1.6800     78.3900
    346     -3.2700      7.1810     -8.9600      1.7700     78.3900
    347     -4.0030      7.1770     -9.7680      0.0100     78.3900
    348     -3.4670      3.7230     -8.4550      1.7700     78.3900
    349     -3.5130      3.9920     -7.3760      0.0100     78.3900
    350     -2.9220      2.4220     -8.6110      1.5900     78.3900
    351     -3.5330      1.7820     -8.2050      0.0100     78.3900
    352     -4.8370      3.8470     -9.1070      1.7700     78.3900
    353     -5.3450      4.7760     -8.7670      0.0100     78.3900
    354     -5.6860      2.6990     -8.9190      1.5900     78.3900
    355     -5.9680      2.6510     -7.9880      0.0100     78.3900
    356      5.3560     11.3630      1.0950      0.0100     78.3900
    357      5.1030     10.5980      0.5490      1.5900     78.3900
    358      5.6650      9.4310      1.1600      1.7700     78.3900
    359      5.2190      9.3010      2.1730      0.0100     78.3900
    360      6.7630      9.5690      1.2840      0.0100     78.3900
    361      5.4020      8.1550      0.3570      1.7700     78.3900
    362      5.8930      7.2900      0.8490      0.0100     78.3900
    363      3.9670      7.8820      0.3360      1.5900     78.3900
    364      3.6040      7.3680     -0.9360      1.7700     78.3900
    365      3.0810      6.4020     -0.7430      0.0100     78.3900
    366      2.6930      8.2770     -1.6970      1.6800     78.3900
    367      2.5960      9.6100     -1.3690      1.7700     78.3900
    368      3.2040      9.9460     -0.5290      0.0100     78.3900
    369      1.7760     10.4380     -2.0320      1.7700     78.3900
    370      1.6760     11.4870     -1.7660      0.0100     78.3900
    371      1.9590      7.7790     -2.7750      1.7700     78.3900
    372      2.0800      6.5920     -3.0920      1.5900     78.3900
    373      1.1190      8.5980     -3.4490      1.6800     78.3900
    374      1.0200      9.8920     -3.1100      1.7700     78.3900
    375      0.1950     10.6760     -3.7980      1.6800     78.3900
    376     -0.3410     10.2920     -4.5560      0.0100     78.3900
    377      0.0570     11.6280     -3.5330      0.0100     78.3900
    378      4.8900      7.0910     -1.6810      1.7700     78.3900
    379      4.7750      7.1940     -2.7760      0.0100     78.3900
    380      5.3720      5.7970     -1.3730      1.5900     78.3900
    381      6.2380      5.7500     -1.7950      0.0100     78.3900
    382      5.8160      8.1690     -1.1250      1.7700     78.3900
    383      5.5390      9.1720     -1.5300      0.0100     78.3900
    384      7.2330      7.8790     -1.2540      1.5900     78.3900
    385      7.9630      8.3550     -2.5750      2.1000     78.3900
    386      7.6840      9.7870     -2.7990      1.5900     78.3900
    387      9.3910      7.9650     -2.4990      1.5900     78.3900
    388      7.2610      7.4850     -3.6910      1.5900     78.3900
    389      7.5990      6.0750     -3.8240      1.7700     78.3900
    390      7.3930      5.5210     -2.8830      0.0100     78.3900
    391      8.6840      5.9450     -4.0450      0.0100     78.3900
    392      6.8050      5.3800     -4.9440      1.7700     78.3900
    393      6.9960      4.2860     -4.9520      0.0100     78.3900
    394      5.3760      5.5650     -4.7440      1.5900     78.3900
    395      4.7470      5.7660     -5.9990      1.7700     78.3900
    396      3.9530      4.9890     -6.0850      0.0100     78.3900
    397      4.1330      7.0900     -6.0790      1.6800     78.3900
    398      2.8950      8.7960     -6.6770      1.7700     78.3900
    399      3.6160      9.2080     -5.5660      1.6800     78.3900
    400      4.3460      8.1700     -5.2590      1.7700     78.3900
    401      5.0490      8.1130     -4.4270      0.0100     78.3900
    402      1.4290      8.7490     -8.5370      1.6800     78.3900
    403      1.8510      7.4990     -8.7400      1.7700     78.3900
    404      1.4060      6.9910     -9.6040      0.0100     78.3900
    405      2.7020      6.7690     -8.0150      1.6800     78.3900
    406      3.2070      7.4920     -7.0030      1.7700     78.3900
    407      1.9380      9.4420     -7.4850      1.7700     78.3900
    408      1.5120     10.6890     -7.2290      1.6800     78.3900
    409      1.9850     11.2510     -6.5520      0.0100     78.3900
    410      0.8400     11.1290     -7.8310      0.0100     78.3900
    411      5.7840      5.5520     -7.0790      1.7700     78.3900
    412      5.6300      6.2020     -7.9700      0.0100     78.3900
    413      5.7910      4.1950     -7.4750      1.5900     78.3900
    414      6.5530      4.0900     -8.0570      0.0100     78.3900
    415      7.0690      5.9200     -6.3530      1.7700     78.3900
    416      7.1500      7.0230     -6.2310      0.0100     78.3900
    417      8.2630      5.3250     -6.9040      1.5900     78.3900
    418      9.1340      6.1390     -7.9350      2.1000     78.3900
    419      9.3590      7.5000     -7.4060      1.5900     78.3900
    420     10.3320      5.3310     -8.2410      1.5900     78.3900
    421      8.2130      6.2410     -9.2130      1.5900     78.3900
    422      8.0400      5.0920    -10.0760      1.7700     78.3900
    423      7.6340      4.2270     -9.5050      0.0100     78.3900
    424      9.0160      4.7840    -10.5160      0.0100     78.3900
    425      7.0660      5.3850    -11.2320      1.7700     78.3900
    426      6.8400      4.4530    -11.7920      0.0100     78.3900
    427      5.8010      5.8810    -10.7090      1.5900     78.3900
    428      5.2510      6.8240    -11.6180      1.7700     78.3900
    429      4.2560      6.4310    -11.9260      0.0100     78.3900
    430      5.0650      8.1300    -10.9900      1.6800     78.3900
    431      4.1450      9.0780    -11.3560      1.7700     78.3900
    432      1.6060     10.2050    -13.4470      1.6800     78.3900
    433      1.5230      9.4710    -14.1160      0.0100     78.3900
    434      1.0900     11.0540    -13.5850      0.0100     78.3900
    435      3.2550      8.9830    -12.3680      1.6800     78.3900
    436      2.5080     10.0830    -12.4940      1.7700     78.3900
    437      2.6510     11.1710    -11.6900      1.6800     78.3900
    438      2.0400     11.9590    -11.8350      0.0100     78.3900
    439      3.5520     11.2940    -10.6550      1.7700     78.3900
    440      3.5830     12.3480    -10.0280      1.5900     78.3900
    441      4.3540     10.1340    -10.4960      1.7700     78.3900
    442      5.3890      9.8550     -9.6020      1.6800     78.3900
    443      5.7840      8.6520     -9.9380      1.7700     78.3900
    444      6.5930      8.0870     -9.4660      0.0100     78.3900
    445      6.1620      6.8980    -12.8290      1.7700     78.3900
    446      6.2540      7.9290    -13.2340      0.0100     78.3900
    447      5.6990      6.0180    -13.8440      1.5900     78.3900
    448      6.4200      5.9180    -14.4870      0.0100     78.3900
    449      7.4990      6.4540    -12.2480      1.7700     78.3900
    450      7.9550      7.2850    -11.6610      0.0100     78.3900
    451      8.3810      5.9010    -13.2440      1.5900     78.3900
    452      9.8690      6.3670    -13.4090      2.1000     78.3900
    453     10.6520      5.9600    -12.2230      1.5900     78.3900
    454     10.3580      5.8740    -14.7160      1.5900     78.3900
    455      9.7810      7.9370    -13.4360      1.5900     78.3900
    456      9.2690      8.6630    -14.5760      1.7700     78.3900
    457      8.1680      8.5180    -14.6660      0.0100     78.3900
    458      9.7380      8.3020    -15.5210      0.0100     78.3900
    459      9.5460     10.1740    -14.4580      1.7700     78.3900
    460      9.1860     10.7170    -15.3580      0.0100     78.3900
    461      8.8270     10.7190    -13.3090      1.5900     78.3900
    462      9.6500     11.6850    -12.6540      1.7700     78.3900
    463      9.0490     12.6210    -12.6070      0.0100     78.3900
    464     10.0340     11.2870    -11.2690      1.6800     78.3900
    465      9.8900      9.9830    -10.8580      1.7700     78.3900
    466      9.4470      9.2910    -11.5780      0.0100     78.3900
    467     10.2260      9.6000     -9.6200      1.7700     78.3900
    468     10.1000      8.5780     -9.2830      0.0100     78.3900
    469     10.5590     12.2350    -10.3890      1.7700     78.3900
    470     10.7040     13.4030    -10.7680      1.5900     78.3900
    471     10.9080     11.8590     -9.1340      1.6800     78.3900
    472     10.7420     10.5880     -8.7380      1.7700     78.3900
    473     11.0680     10.2430     -7.4960      1.6800     78.3900
    474     11.3170     10.9540     -6.8340      0.0100     78.3900
    475     10.7810      9.3510     -7.1460      0.0100     78.3900
    476     10.8550     11.9220    -13.5430      1.7700     78.3900
    477     11.7580     12.2000    -12.9670      0.0100     78.3900
    478     10.5650     12.9350    -14.4890      1.5900     78.3900
    479     11.3200     12.9850    -15.0900      0.0100     78.3900
    480     11.0150     10.5610    -14.2060      1.7700     78.3900
    481     11.3990      9.8190    -13.4710      0.0100     78.3900
    482     11.7630     10.5740    -15.4480      1.5900     78.3900
    483     13.3140     10.2800    -15.3950      2.1000     78.3900
    484     13.5780      9.2230    -14.3930      1.5900     78.3900
    485     13.8180     10.0460    -16.7620      1.5900     78.3900
    486     13.9390     11.6020    -14.8420      1.5900     78.3900
    487     13.9490     12.8430    -15.5740      1.7700     78.3900
    488     12.9310     13.1020    -15.9430      0.0100     78.3900
    489     14.6240     12.7710    -16.4580      0.0100     78.3900
    490     14.4480     13.9920    -14.6800      1.7700     78.3900
    491     14.4190     14.9560    -15.2300      0.0100     78.3900
    492     13.5840     14.1270    -13.5090      1.5900     78.3900
    493     14.3770     14.4760    -12.3750      1.7700     78.3900
    494     13.9420     15.4230    -11.9790      0.0100     78.3900
    495     14.3550     13.4430    -11.2910      1.6800     78.3900
    496     13.9860     12.1530    -11.5830      1.7700     78.3900
    497     13.6990     11.9630    -12.6150      0.0100     78.3900
    498     13.9330     11.2030    -10.6400      1.7700     78.3900
    499     13.6000     10.1910    -10.8510      0.0100     78.3900
    500     14.7720     13.7590     -9.9950      1.7700     78.3900
    501     15.1760     14.9000     -9.7460      1.5900     78.3900
    502     14.7210     12.8100     -9.0250      1.6800     78.3900
    503     14.3050     11.5680     -9.3150      1.7700     78.3900
    504     14.2390     10.6580     -8.3440      1.6800     78.3900
    505     14.5370     10.9010     -7.4160      0.0100     78.3900
    506     13.9460      9.7170     -8.5200      0.0100     78.3900
    507     15.7780     14.7550    -12.8830      1.7700     78.3900
    508     16.5560     14.5140    -12.1330      0.0100     78.3900
    509     15.8950     16.1120    -13.2630      1.5900     78.3900
    510     16.7860     16.2230    -13.6140      0.0100     78.3900
    511     15.8610     13.8290    -14.0920      1.7700     78.3900
    512     15.9460     12.7690    -13.7610      0.0100     78.3900
    513     16.8530     14.1990    -15.0750      1.5900     78.3900
    514     18.2750     13.5290    -15.0700      2.1000     78.3900
    515     18.1170     12.0780    -14.8380      1.5900     78.3900
    516     18.9870     13.9330    -16.3010      1.5900     78.3900
    517     18.9940     14.1710    -13.8200      1.5900     78.3900
    518     19.2840     15.5890    -13.7900      1.7700     78.3900
    519     18.3810     16.1980    -14.0120      0.0100     78.3900
    520     20.0530     15.8410    -14.5570      0.0100     78.3900
    521     19.8250     16.0250    -12.4160      1.7700     78.3900
    522     20.1200     17.0950    -12.4270      0.0100     78.3900
    523     18.7950     15.8780    -11.3940      1.5900     78.3900
    524     19.3890     15.4260    -10.1810      1.7700     78.3900
    525     19.1190     16.1800     -9.4050      0.0100     78.3900
    526     18.8840     14.0760     -9.7830      1.6800     78.3900
    527     18.2890     13.2420    -10.7010      1.7700     78.3900
    528     18.2590     13.6210    -11.7210      0.0100     78.3900
    529     19.0370     13.6780     -8.4730      1.7700     78.3900
    530     19.5690     14.3850     -7.6250      1.5900     78.3900
    531     18.5540     12.4270     -8.1870      1.6800     78.3900
    532     18.6820     12.1170     -7.2300      0.0100     78.3900
    533     17.9290     11.5510     -9.0470      1.7700     78.3900
    534     17.5350     10.4590     -8.6380      1.5900     78.3900
    535     17.8020     12.0340    -10.3880      1.7700     78.3900
    536     17.3220     11.4040    -11.1330      0.0100     78.3900
    537     20.8990     15.4390    -10.3870      1.7700     78.3900
    538     21.3960     14.6220     -9.8230      0.0100     78.3900
    539     21.4430     16.6920     -9.9960      1.5900     78.3900
    540     22.3740     16.7310    -10.2790      0.0100     78.3900
    541     21.0080     15.2040    -11.8890      1.7700     78.3900
    542     20.8220     14.1340    -12.1260      0.0100     78.3900
    543     22.2430     15.6550    -12.4750      1.5900     78.3900
    544     22.9830     15.1250    -12.1300      0.0100     78.3900

     ----------------------------
     INPUT FOR TESSERA DEFINITION
     ----------------------------
     NTSALL  =        60     MTHALL  =         4
     MTHAUT  =         0     AUTFRE  =    2.0000
     NTSFRZ  =        60     KEEPSM  =         0
     AREAKP  =   10.0000     BONDRY  =    1.0000
     AREATL  =    0.0100

     SPHERE     INITS       METHOD
          1        60       FIXPVA
          2        60       FIXPVA
          3        60       FIXPVA
          4        60       FIXPVA
          5        60       FIXPVA
          6        60       FIXPVA
          7        60       FIXPVA
          8        60       FIXPVA
          9        60       FIXPVA
         10        60       FIXPVA
         11        60       FIXPVA
         12        60       FIXPVA
         13        60       FIXPVA
         14        60       FIXPVA
         15        60       FIXPVA
         16        60       FIXPVA
         17        60       FIXPVA
         18        60       FIXPVA
         19        60       FIXPVA
         20        60       FIXPVA
         21        60       FIXPVA
         22        60       FIXPVA
         23        60       FIXPVA
         24        60       FIXPVA
         25        60       FIXPVA
         26        60       FIXPVA
         27        60       FIXPVA
         28        60       FIXPVA
         29        60       FIXPVA
         30        60       FIXPVA
         31        60       FIXPVA
         32        60       FIXPVA
         33        60       FIXPVA
         34        60       FIXPVA
         35        60       FIXPVA
         36        60       FIXPVA
         37        60       FIXPVA
         38        60       FIXPVA
         39        60       FIXPVA
         40        60       FIXPVA
         41        60       FIXPVA
         42        60       FIXPVA
         43        60       FIXPVA
         44        60       FIXPVA
         45        60       FIXPVA
         46        60       FIXPVA
         47        60       FIXPVA
         48        60       FIXPVA
         49        60       FIXPVA
         50        60       FIXPVA
         51        60       FIXPVA
         52        60       FIXPVA
         53        60       FIXPVA
         54        60       FIXPVA
         55        60       FIXPVA
         56        60       FIXPVA
         57        60       FIXPVA
         58        60       FIXPVA
         59        60       FIXPVA
         60        60       FIXPVA
         61        60       FIXPVA
         62        60       FIXPVA
         63        60       FIXPVA
         64        60       FIXPVA
         65        60       FIXPVA
         66        60       FIXPVA
         67        60       FIXPVA
         68        60       FIXPVA
         69        60       FIXPVA
         70        60       FIXPVA
         71        60       FIXPVA
         72        60       FIXPVA
         73        60       FIXPVA
         74        60       FIXPVA
         75        60       FIXPVA
         76        60       FIXPVA
         77        60       FIXPVA
         78        60       FIXPVA
         79        60       FIXPVA
         80        60       FIXPVA
         81        60       FIXPVA
         82        60       FIXPVA
         83        60       FIXPVA
         84        60       FIXPVA
         85        60       FIXPVA
         86        60       FIXPVA
         87        60       FIXPVA
         88        60       FIXPVA
         89        60       FIXPVA
         90        60       FIXPVA
         91        60       FIXPVA
         92        60       FIXPVA
         93        60       FIXPVA
         94        60       FIXPVA
         95        60       FIXPVA
         96        60       FIXPVA
         97        60       FIXPVA
         98        60       FIXPVA
         99        60       FIXPVA
        100        60       FIXPVA
        101        60       FIXPVA
        102        60       FIXPVA
        103        60       FIXPVA
        104        60       FIXPVA
        105        60       FIXPVA
        106        60       FIXPVA
        107        60       FIXPVA
        108        60       FIXPVA
        109        60       FIXPVA
        110        60       FIXPVA
        111        60       FIXPVA
        112        60       FIXPVA
        113        60       FIXPVA
        114        60       FIXPVA
        115        60       FIXPVA
        116        60       FIXPVA
        117        60       FIXPVA
        118        60       FIXPVA
        119        60       FIXPVA
        120        60       FIXPVA
        121        60       FIXPVA
        122        60       FIXPVA
        123        60       FIXPVA
        124        60       FIXPVA
        125        60       FIXPVA
        126        60       FIXPVA
        127        60       FIXPVA
        128        60       FIXPVA
        129        60       FIXPVA
        130        60       FIXPVA
        131        60       FIXPVA
        132        60       FIXPVA
        133        60       FIXPVA
        134        60       FIXPVA
        135        60       FIXPVA
        136        60       FIXPVA
        137        60       FIXPVA
        138        60       FIXPVA
        139        60       FIXPVA
        140        60       FIXPVA
        141        60       FIXPVA
        142        60       FIXPVA
        143        60       FIXPVA
        144        60       FIXPVA
        145        60       FIXPVA
        146        60       FIXPVA
        147        60       FIXPVA
        148        60       FIXPVA
        149        60       FIXPVA
        150        60       FIXPVA
        151        60       FIXPVA
        152        60       FIXPVA
        153        60       FIXPVA
        154        60       FIXPVA
        155        60       FIXPVA
        156        60       FIXPVA
        157        60       FIXPVA
        158        60       FIXPVA
        159        60       FIXPVA
        160        60       FIXPVA
        161        60       FIXPVA
        162        60       FIXPVA
        163        60       FIXPVA
        164        60       FIXPVA
        165        60       FIXPVA
        166        60       FIXPVA
        167        60       FIXPVA
        168        60       FIXPVA
        169        60       FIXPVA
        170        60       FIXPVA
        171        60       FIXPVA
        172        60       FIXPVA
        173        60       FIXPVA
        174        60       FIXPVA
        175        60       FIXPVA
        176        60       FIXPVA
        177        60       FIXPVA
        178        60       FIXPVA
        179        60       FIXPVA
        180        60       FIXPVA
        181        60       FIXPVA
        182        60       FIXPVA
        183        60       FIXPVA
        184        60       FIXPVA
        185        60       FIXPVA
        186        60       FIXPVA
        187        60       FIXPVA
        188        60       FIXPVA
        189        60       FIXPVA
        190        60       FIXPVA
        191        60       FIXPVA
        192        60       FIXPVA
        193        60       FIXPVA
        194        60       FIXPVA
        195        60       FIXPVA
        196        60       FIXPVA
        197        60       FIXPVA
        198        60       FIXPVA
        199        60       FIXPVA
        200        60       FIXPVA
        201        60       FIXPVA
        202        60       FIXPVA
        203        60       FIXPVA
        204        60       FIXPVA
        205        60       FIXPVA
        206        60       FIXPVA
        207        60       FIXPVA
        208        60       FIXPVA
        209        60       FIXPVA
        210        60       FIXPVA
        211        60       FIXPVA
        212        60       FIXPVA
        213        60       FIXPVA
        214        60       FIXPVA
        215        60       FIXPVA
        216        60       FIXPVA
        217        60       FIXPVA
        218        60       FIXPVA
        219        60       FIXPVA
        220        60       FIXPVA
        221        60       FIXPVA
        222        60       FIXPVA
        223        60       FIXPVA
        224        60       FIXPVA
        225        60       FIXPVA
        226        60       FIXPVA
        227        60       FIXPVA
        228        60       FIXPVA
        229        60       FIXPVA
        230        60       FIXPVA
        231        60       FIXPVA
        232        60       FIXPVA
        233        60       FIXPVA
        234        60       FIXPVA
        235        60       FIXPVA
        236        60       FIXPVA
        237        60       FIXPVA
        238        60       FIXPVA
        239        60       FIXPVA
        240        60       FIXPVA
        241        60       FIXPVA
        242        60       FIXPVA
        243        60       FIXPVA
        244        60       FIXPVA
        245        60       FIXPVA
        246        60       FIXPVA
        247        60       FIXPVA
        248        60       FIXPVA
        249        60       FIXPVA
        250        60       FIXPVA
        251        60       FIXPVA
        252        60       FIXPVA
        253        60       FIXPVA
        254        60       FIXPVA
        255        60       FIXPVA
        256        60       FIXPVA
        257        60       FIXPVA
        258        60       FIXPVA
        259        60       FIXPVA
        260        60       FIXPVA
        261        60       FIXPVA
        262        60       FIXPVA
        263        60       FIXPVA
        264        60       FIXPVA
        265        60       FIXPVA
        266        60       FIXPVA
        267        60       FIXPVA
        268        60       FIXPVA
        269        60       FIXPVA
        270        60       FIXPVA
        271        60       FIXPVA
        272        60       FIXPVA
        273        60       FIXPVA
        274        60       FIXPVA
        275        60       FIXPVA
        276        60       FIXPVA
        277        60       FIXPVA
        278        60       FIXPVA
        279        60       FIXPVA
        280        60       FIXPVA
        281        60       FIXPVA
        282        60       FIXPVA
        283        60       FIXPVA
        284        60       FIXPVA
        285        60       FIXPVA
        286        60       FIXPVA
        287        60       FIXPVA
        288        60       FIXPVA
        289        60       FIXPVA
        290        60       FIXPVA
        291        60       FIXPVA
        292        60       FIXPVA
        293        60       FIXPVA
        294        60       FIXPVA
        295        60       FIXPVA
        296        60       FIXPVA
        297        60       FIXPVA
        298        60       FIXPVA
        299        60       FIXPVA
        300        60       FIXPVA
        301        60       FIXPVA
        302        60       FIXPVA
        303        60       FIXPVA
        304        60       FIXPVA
        305        60       FIXPVA
        306        60       FIXPVA
        307        60       FIXPVA
        308        60       FIXPVA
        309        60       FIXPVA
        310        60       FIXPVA
        311        60       FIXPVA
        312        60       FIXPVA
        313        60       FIXPVA
        314        60       FIXPVA
        315        60       FIXPVA
        316        60       FIXPVA
        317        60       FIXPVA
        318        60       FIXPVA
        319        60       FIXPVA
        320        60       FIXPVA
        321        60       FIXPVA
        322        60       FIXPVA
        323        60       FIXPVA
        324        60       FIXPVA
        325        60       FIXPVA
        326        60       FIXPVA
        327        60       FIXPVA
        328        60       FIXPVA
        329        60       FIXPVA
        330        60       FIXPVA
        331        60       FIXPVA
        332        60       FIXPVA
        333        60       FIXPVA
        334        60       FIXPVA
        335        60       FIXPVA
        336        60       FIXPVA
        337        60       FIXPVA
        338        60       FIXPVA
        339        60       FIXPVA
        340        60       FIXPVA
        341        60       FIXPVA
        342        60       FIXPVA
        343        60       FIXPVA
        344        60       FIXPVA
        345        60       FIXPVA
        346        60       FIXPVA
        347        60       FIXPVA
        348        60       FIXPVA
        349        60       FIXPVA
        350        60       FIXPVA
        351        60       FIXPVA
        352        60       FIXPVA
        353        60       FIXPVA
        354        60       FIXPVA
        355        60       FIXPVA
        356        60       FIXPVA
        357        60       FIXPVA
        358        60       FIXPVA
        359        60       FIXPVA
        360        60       FIXPVA
        361        60       FIXPVA
        362        60       FIXPVA
        363        60       FIXPVA
        364        60       FIXPVA
        365        60       FIXPVA
        366        60       FIXPVA
        367        60       FIXPVA
        368        60       FIXPVA
        369        60       FIXPVA
        370        60       FIXPVA
        371        60       FIXPVA
        372        60       FIXPVA
        373        60       FIXPVA
        374        60       FIXPVA
        375        60       FIXPVA
        376        60       FIXPVA
        377        60       FIXPVA
        378        60       FIXPVA
        379        60       FIXPVA
        380        60       FIXPVA
        381        60       FIXPVA
        382        60       FIXPVA
        383        60       FIXPVA
        384        60       FIXPVA
        385        60       FIXPVA
        386        60       FIXPVA
        387        60       FIXPVA
        388        60       FIXPVA
        389        60       FIXPVA
        390        60       FIXPVA
        391        60       FIXPVA
        392        60       FIXPVA
        393        60       FIXPVA
        394        60       FIXPVA
        395        60       FIXPVA
        396        60       FIXPVA
        397        60       FIXPVA
        398        60       FIXPVA
        399        60       FIXPVA
        400        60       FIXPVA
        401        60       FIXPVA
        402        60       FIXPVA
        403        60       FIXPVA
        404        60       FIXPVA
        405        60       FIXPVA
        406        60       FIXPVA
        407        60       FIXPVA
        408        60       FIXPVA
        409        60       FIXPVA
        410        60       FIXPVA
        411        60       FIXPVA
        412        60       FIXPVA
        413        60       FIXPVA
        414        60       FIXPVA
        415        60       FIXPVA
        416        60       FIXPVA
        417        60       FIXPVA
        418        60       FIXPVA
        419        60       FIXPVA
        420        60       FIXPVA
        421        60       FIXPVA
        422        60       FIXPVA
        423        60       FIXPVA
        424        60       FIXPVA
        425        60       FIXPVA
        426        60       FIXPVA
        427        60       FIXPVA
        428        60       FIXPVA
        429        60       FIXPVA
        430        60       FIXPVA
        431        60       FIXPVA
        432        60       FIXPVA
        433        60       FIXPVA
        434        60       FIXPVA
        435        60       FIXPVA
        436        60       FIXPVA
        437        60       FIXPVA
        438        60       FIXPVA
        439        60       FIXPVA
        440        60       FIXPVA
        441        60       FIXPVA
        442        60       FIXPVA
        443        60       FIXPVA
        444        60       FIXPVA
        445        60       FIXPVA
        446        60       FIXPVA
        447        60       FIXPVA
        448        60       FIXPVA
        449        60       FIXPVA
        450        60       FIXPVA
        451        60       FIXPVA
        452        60       FIXPVA
        453        60       FIXPVA
        454        60       FIXPVA
        455        60       FIXPVA
        456        60       FIXPVA
        457        60       FIXPVA
        458        60       FIXPVA
        459        60       FIXPVA
        460        60       FIXPVA
        461        60       FIXPVA
        462        60       FIXPVA
        463        60       FIXPVA
        464        60       FIXPVA
        465        60       FIXPVA
        466        60       FIXPVA
        467        60       FIXPVA
        468        60       FIXPVA
        469        60       FIXPVA
        470        60       FIXPVA
        471        60       FIXPVA
        472        60       FIXPVA
        473        60       FIXPVA
        474        60       FIXPVA
        475        60       FIXPVA
        476        60       FIXPVA
        477        60       FIXPVA
        478        60       FIXPVA
        479        60       FIXPVA
        480        60       FIXPVA
        481        60       FIXPVA
        482        60       FIXPVA
        483        60       FIXPVA
        484        60       FIXPVA
        485        60       FIXPVA
        486        60       FIXPVA
        487        60       FIXPVA
        488        60       FIXPVA
        489        60       FIXPVA
        490        60       FIXPVA
        491        60       FIXPVA
        492        60       FIXPVA
        493        60       FIXPVA
        494        60       FIXPVA
        495        60       FIXPVA
        496        60       FIXPVA
        497        60       FIXPVA
        498        60       FIXPVA
        499        60       FIXPVA
        500        60       FIXPVA
        501        60       FIXPVA
        502        60       FIXPVA
        503        60       FIXPVA
        504        60       FIXPVA
        505        60       FIXPVA
        506        60       FIXPVA
        507        60       FIXPVA
        508        60       FIXPVA
        509        60       FIXPVA
        510        60       FIXPVA
        511        60       FIXPVA
        512        60       FIXPVA
        513        60       FIXPVA
        514        60       FIXPVA
        515        60       FIXPVA
        516        60       FIXPVA
        517        60       FIXPVA
        518        60       FIXPVA
        519        60       FIXPVA
        520        60       FIXPVA
        521        60       FIXPVA
        522        60       FIXPVA
        523        60       FIXPVA
        524        60       FIXPVA
        525        60       FIXPVA
        526        60       FIXPVA
        527        60       FIXPVA
        528        60       FIXPVA
        529        60       FIXPVA
        530        60       FIXPVA
        531        60       FIXPVA
        532        60       FIXPVA
        533        60       FIXPVA
        534        60       FIXPVA
        535        60       FIXPVA
        536        60       FIXPVA
        537        60       FIXPVA
        538        60       FIXPVA
        539        60       FIXPVA
        540        60       FIXPVA
        541        60       FIXPVA
        542        60       FIXPVA
        543        60       FIXPVA
        544        60       FIXPVA

     ------------------------------
      FIXPVA TESSELLATION FOR PCM
         PEIFENG SU AND HUI LI
     UNIVERSITY OF NEBRASKA-LINCOLN
     ------------------------------


 PCM DIMENSIONS: MXSP=   544, MXTS=     21760, MEMORY=        223587

     INPUT FOR CAVITY DEFINITION 
     ---------------------------
   ATOM               COORDINATES                RADIUS       EPS
      1     18.0310      7.4970      2.0520      0.0100     78.3900
      2     18.2330      8.3270      1.5760      1.5900     78.3900
      3     19.1400      9.0710      2.4030      1.7700     78.3900
      4     20.0360      8.4440      2.6150      0.0100     78.3900
      5     18.6520      9.3020      3.3770      0.0100     78.3900
      6     19.6000     10.3820      1.7580      1.7700     78.3900
      7     20.2660     10.9480      2.4450      0.0100     78.3900
      8     20.3680     10.0960      0.5520      1.5900     78.3900
      9     20.0770     11.0790     -0.4280      1.7700     78.3900
     10     21.0540     11.5270     -0.7180      0.0100     78.3900
     11     19.4500     10.4850     -1.6170      1.6800     78.3900
     12     18.7200     10.1000     -3.6580      1.7700     78.3900
     13     18.4210      8.9620     -2.9180      1.6800     78.3900
     14     18.8710      9.2420     -1.7170      1.7700     78.3900
     15     18.8190      8.5790     -0.8500      0.0100     78.3900
     16     18.9320     11.6510     -5.4380      1.6800     78.3900
     17     19.4950     12.4750     -4.5460      1.7700     78.3900
     18     19.8130     13.4460     -4.9420      0.0100     78.3900
     19     19.7790     12.2620     -3.2570      1.6800     78.3900
     20     19.3500     11.0470     -2.8690      1.7700     78.3900
     21     18.5240     10.4250     -5.0190      1.7700     78.3900
     22     17.9790      9.5730     -5.9090      1.6800     78.3900
     23     17.6420      8.6700     -5.6260      0.0100     78.3900
     24     17.8090      9.8620     -6.8550      0.0100     78.3900
     25     19.2120     12.1330      0.2260      1.7700     78.3900
     26     18.5100     12.6100     -0.4860      0.0100     78.3900
     27     20.0320     13.1230      0.8140      1.5900     78.3900
     28     19.4350     13.7670      1.2140      0.0100     78.3900
     29     18.4770     11.3180      1.2870      1.7700     78.3900
     30     17.6980     10.6750      0.8130      0.0100     78.3900
     31     17.9740     12.0780      2.4100      1.5900     78.3900
     32     16.5080     12.6610      2.3510      2.1000     78.3900
     33     15.5860     11.6090      1.8750      1.5900     78.3900
     34     16.1980     13.2390      3.6780      1.5900     78.3900
     35     16.6040     13.7920      1.2650      1.5900     78.3900
     36     17.3320     15.0110      1.5390      1.7700     78.3900
     37     18.3750     14.8050      1.8680      0.0100     78.3900
     38     16.8350     15.5820      2.3530      0.0100     78.3900
     39     17.3880     15.9070      0.2950      1.7700     78.3900
     40     17.9760     16.8300      0.4940      0.0100     78.3900
     41     18.0480     15.2000     -0.7960      1.5900     78.3900
     42     17.4150     15.5390     -2.0230      1.7700     78.3900
[...]
   492   16   8.0   4.28    9.4    0.049030   -0.728760   -0.738176
   493   16   6.0   4.70    8.3   -0.044319    0.430441    0.432190
   494   16   1.0   0.00    0.0    0.000000    0.256113    0.250694
   495   16   7.0   0.00    0.0    0.000000   -0.829528   -0.844107
   496   16   6.0   1.57    2.8   -0.004436    0.187690    0.167993
   497   16   1.0   0.00    0.0    0.000000    0.305362    0.332303
   498   16   6.0   7.59   13.4   -0.035839   -0.409255   -0.417759
   499   16   1.0   0.00    0.0    0.000000    0.268440    0.274060
   500   16   6.0   0.00    0.0    0.000000    1.067330    1.099122
   501   16   8.0   5.02   11.0    0.095692   -0.780887   -0.766777
   502   16   7.0   0.00    0.0    0.000000   -0.875671   -0.878984
   503   16   6.0   0.00    0.0    0.000489    0.753765    0.769664
   504   16   7.0   9.42   18.5   -0.087998   -0.944186   -1.005120
   505   16   1.0   0.00    0.0    0.000000    0.466102    0.509778
   506   16   1.0   0.00    0.0    0.000000    0.441111    0.441958
   507   16   6.0   0.01    0.0    0.000955    0.140664    0.100309
   508   16   1.0   0.00    0.0    0.000000    0.182451    0.222750
   509   16   8.0  16.59   36.3    0.102985   -0.820016   -0.840742
   510   16   1.0   0.00    0.0    0.000000    0.495556    0.523836
   511   16   6.0   0.97    1.7   -0.013046    0.146149    0.115461
   512   16   1.0   0.00    0.0    0.000000    0.242011    0.244903
   513   16   8.0   5.08   11.1    0.068826   -0.792465   -0.798956
   514   16  15.0   5.15    6.4    0.087119    1.605348    1.657056
   515   16   8.0  13.87   30.3    0.313118   -0.893328   -0.890655
   516   16   8.0  18.43   40.3    0.375579   -0.892300   -0.888013
   517   16   8.0   0.88    1.9    0.018008   -0.974122   -0.788033
   518   17   6.0  12.38   21.8   -0.105515    0.212788   -0.028582
   519   17   1.0   0.00    0.0    0.000000    0.138694    0.168716
   520   17   1.0   0.00    0.0    0.000000    0.248153    0.231415
   521   17   6.0   7.56   13.3   -0.053230    0.091127    0.149784
   522   17   1.0   0.00    0.0    0.000000    0.254830    0.227205
   523   17   8.0   3.97    8.7    0.048075   -0.729312   -0.737451
   524   17   6.0   3.55    6.3   -0.036604    0.419380    0.418936
   525   17   1.0   0.00    0.0    0.000000    0.260023    0.255922
   526   17   7.0   0.00    0.0   -0.000140   -0.831351   -0.838592
   527   17   6.0   2.83    5.0   -0.002449    0.198106    0.184008
   528   17   1.0   0.00    0.0    0.000000    0.304943    0.325699
   529   17   6.0   0.98    1.7   -0.007531    1.117590    1.123361
   530   17   8.0  11.26   24.6    0.154427   -0.682666   -0.692542
   531   17   7.0   1.71    3.3    0.001792   -0.934977   -1.018187
   532   17   1.0   0.00    0.0    0.000000    0.484139    0.545032
   533   17   6.0   1.96    3.5   -0.001518    0.894870    0.900136
   534   17   8.0   8.90   19.5    0.122801   -0.731200   -0.716391
   535   17   6.0   8.49   15.0   -0.022506   -0.460654   -0.464812
   536   17   1.0   0.00    0.0    0.000000    0.270446    0.269105
   537   17   6.0   5.86   10.3   -0.063211    0.115876    0.116557
   538   17   1.0   0.00    0.0    0.000000    0.228602    0.227689
   539   17   8.0  20.80   45.5    0.029435   -0.837231   -0.839187
   540   17   1.0   0.00    0.0    0.000000    0.504186    0.504507
   541   17   6.0   5.04    8.9   -0.046142    0.162409    0.146275
   542   17   1.0   0.00    0.0    0.000000    0.222904    0.225095
   543   17   8.0  22.37   48.9   -0.008660   -0.848330   -0.851651
   544   17   1.0   0.00    0.0    0.000000    0.508425    0.507987

 Done with FMO properties.
 CPU     0: STEP CPU TIME=     0.00 TOTAL CPU TIME=      40681.5 (    678.0 MIN)
 TOTAL WALL CLOCK TIME=      90689.7 SECONDS, CPU UTILIZATION IS    44.86%
 CPU     0: STEP CPU TIME=     0.00 TOTAL CPU TIME=      40681.5 (    678.0 MIN)
 TOTAL WALL CLOCK TIME=      90689.7 SECONDS, CPU UTILIZATION IS    44.86%

 Total timing statistics in pairs (CPU,wall) for each rank, sec

    Rank   total     SCF    corr     DFT    CPHF     EFP    solv     ESP    geom
 -------------------------------------------------------------------------------
       1   40681.5   9817.7  14455.4      0.0    0.0   0.0  380.8 15230.3    0.0
       1   90689.8  20866.3  36135.1      0.0    0.0   0.0  978.2 30901.0    0.0
       2   40335.4   9684.6  14340.3      0.0    0.0   0.0  382.4 15123.7    0.0
       2   90689.8  20840.5  36141.6      0.0    0.0   0.0  978.5 30899.9    0.0
       3   40473.9   9738.1  14099.7      0.0    0.0   0.0  385.9 15437.9    0.0
       3   90689.8  20840.1  36141.7      0.0    0.0   0.0  978.9 30899.9    0.0
       4   41756.0   9735.6  15659.0      0.0    0.0   0.0  382.8 15173.2    0.0
       4   90689.8  20841.3  36141.6      0.0    0.0   0.0  977.3 30899.7    0.0
       5   41780.8   9818.3  15166.3      0.0    0.0   0.0  381.4 15613.6    0.0
       5   90689.8  20841.0  36141.6      0.0    0.0   0.0  978.7 30899.8    0.0
       6   41715.6   9750.4  15261.8      0.0    0.0   0.0  379.6 15522.3    0.0
       6   90689.8  20841.9  36141.5      0.0    0.0   0.0  976.7 30899.6    0.0
       7   40231.9   9791.9  14100.8      0.0    0.0   0.0  379.9 15161.2    0.0
       7   90689.8  20841.9  36141.5      0.0    0.0   0.0  977.3 30899.7    0.0
       8   41646.7   9722.4  15441.6      0.0    0.0   0.0  381.3 15286.9    0.0
       8   90689.8  20842.6  36141.5      0.0    0.0   0.0  975.6 30899.5    0.0
       9   42909.7   9793.9  16467.3      0.0    0.0   0.0  373.1 15458.6    0.0
       9   90689.8  20843.6  36141.5      0.0    0.0   0.0  975.3 30900.2    0.0
      10   42864.7   9756.6  16281.6      0.0    0.0   0.0  374.8 15644.3    0.0
      10   90689.8  20843.2  36141.5      0.0    0.0   0.0  975.5 30899.9    0.0
      11   40981.9   9776.8  14857.9      0.0    0.0   0.0  373.6 15156.4    0.0
      11   90689.8  20844.2  36141.5      0.0    0.0   0.0  974.8 30899.8    0.0
      12   40309.9   9702.9  14207.3      0.0    0.0   0.0  372.8 15236.3    0.0
      12   90689.8  20844.2  36141.4      0.0    0.0   0.0  973.7 30899.7    0.0
      13   43429.8   9826.0  17198.0      0.0    0.0   0.0  370.6 15242.8    0.0
      13   90689.8  20845.7  36141.4      0.0    0.0   0.0  974.0 30899.7    0.0
      14   42180.6   9764.4  15933.4      0.0    0.0   0.0  373.1 15324.5    0.0
      14   90689.8  20844.6  36141.4      0.0    0.0   0.0  974.0 30899.5    0.0
      15   42728.0   9822.5  16480.9      0.0    0.0   0.0  370.6 15258.7    0.0
      15   90689.8  20845.7  36141.3      0.0    0.0   0.0  973.2 30899.4    0.0
      16   42788.4   9784.9  16686.2      0.0    0.0   0.0  373.3 15131.5    0.0
      16   90689.8  20845.5  36141.4      0.0    0.0   0.0  972.1 30899.3    0.0
averaged   41675.9   9767.9  15414.8      0.0    0.0   0.0  377.3 15312.6    0.0
averaged   90689.8  20844.5  36141.1      0.0    0.0   0.0  975.9 30899.8    0.0

  FMO  timing statistics in pairs (CPU,wall) for each rank, sec

    Rank  FMOini FMOscf1  FMOdm1 FMOsyn1 FMOscf2  FMOes2 FMOsyn2 FMOscf3 FMOsyn3
 -------------------------------------------------------------------------------
       1    3.5   14316.5    0.5    0.0   25789.4     571.6    0.0    0.0    0.0
       1    8.5   29585.6    1.2    0.0   59895.7    1198.4    0.0    0.0    0.0
       2    2.6   14164.8    0.1    0.0   25579.9     588.0    0.0    0.0    0.0
       2    8.5   29585.6    1.1    0.0   59899.0    1195.1    0.0    0.0    0.0
       3    2.9   14281.4    0.2    0.0   25597.0     592.4    0.0    0.0    0.0
       3    8.5   29585.7    1.1    0.0   59895.4    1198.7    0.0    0.0    0.0
       4    2.6   14077.4    0.1    0.0   27087.2     588.6    0.0    0.0    0.0
       4    8.5   29585.7    1.1    0.0   59896.5    1197.6    0.0    0.0    0.0
       5    3.1   14464.0    0.3    0.0   26731.1     582.3    0.0    0.0    0.0
       5    8.5   29585.7    1.1    0.0   59896.4    1197.7    0.0    0.0    0.0
       6    2.7   14462.7    0.1    0.0   26663.2     586.9    0.0    0.0    0.0
       6    8.5   29585.7    1.1    0.0   59898.0    1196.1    0.0    0.0    0.0
       7    2.8   14261.1    0.2    0.0   25386.1     581.7    0.0    0.0    0.0
       7    8.5   29585.6    1.1    0.0   59897.8    1196.3    0.0    0.0    0.0
       8    2.5   14180.1    0.1    0.0   26863.7     600.4    0.0    0.0    0.0
       8    8.5   29585.6    1.1    0.0   59897.1    1197.0    0.0    0.0    0.0
       9    3.0   14275.2    0.4    0.0   28027.1     603.9    0.0    0.0    0.0
       9    8.5   29585.7    1.1    0.0   59896.7    1197.4    0.0    0.0    0.0
      10    2.4   14344.3    0.1    0.0   27920.1     597.7    0.0    0.0    0.0
      10    8.5   29585.7    1.1    0.0   59897.0    1197.1    0.0    0.0    0.0
      11    2.6   14122.8    0.2    0.0   26249.4     606.9    0.0    0.0    0.0
      11    8.5   29585.6    1.1    0.0   59898.7    1195.4    0.0    0.0    0.0
      12    2.3   14215.9    0.1    0.0   25508.7     582.8    0.0    0.0    0.0
      12    8.5   29585.6    1.1    0.0   59899.1    1195.0    0.0    0.0    0.0
      13    2.8   14104.1    0.3    0.0   28739.9     582.7    0.0    0.0    0.0
      13    8.5   29585.7    1.1    0.0   59895.6    1198.5    0.0    0.0    0.0
      14    2.3   14264.8    0.1    0.0   27336.3     577.1    0.0    0.0    0.0
      14    8.5   29585.7    1.1    0.0   59899.8    1194.3    0.0    0.0    0.0
      15    2.6   14169.6    0.2    0.0   27967.8     587.9    0.0    0.0    0.0
      15    8.5   29585.6    1.1    0.0   59896.6    1197.5    0.0    0.0    0.0
      16    2.4   14014.4    0.1    0.0   28166.2     605.2    0.0    0.0    0.0
      16    8.5   29585.6    1.1    0.0   59899.4    1194.7    0.0    0.0    0.0
averaged    2.7   14232.4    0.2    0.0   26850.8     589.8    0.0    0.0    0.0
averaged    8.5   29585.6    1.1    0.0   59897.4    1196.7    0.0    0.0    0.0
             62820612  WORDS OF DYNAMIC MEMORY USED
 EXECUTION OF GAMESS TERMINATED NORMALLY Mon Nov 18 22:49:14 2019
 DDI: 263640 bytes (0.3 MB / 0 MWords) used by master data server.

 ----------------------------------------
 CPU timing information for all processes
 ========================================
 0: 39825.339 + 856.227 = 40681.567
 1: 39559.426 + 776.42 = 40335.468
 2: 39656.262 + 817.693 = 40473.956
 3: 40865.803 + 890.256 = 41756.60
 4: 40889.302 + 891.480 = 41780.783
 5: 40868.841 + 846.785 = 41715.626
 6: 39414.263 + 817.699 = 40231.963
 7: 40798.453 + 848.254 = 41646.708
 8: 41965.433 + 944.327 = 42909.761
 9: 41998.942 + 865.784 = 42864.726
 10: 40151.342 + 830.577 = 40981.919
 11: 39537.778 + 772.107 = 40309.886
 12: 42483.106 + 946.697 = 43429.804
 13: 41339.269 + 841.364 = 42180.633
 14: 41819.736 + 908.316 = 42728.53
 15: 41906.17 + 882.372 = 42788.389
 ----------------------------------------
 ddikick.x: exited gracefully.
----- accounting info -----
Files used on the master node gollum090.lsa.umich.edu were:
-rw-r--r-- 1 hazwong frank    26524 Nov 17 21:37 /scratch/hazwong/638800/1P5M_1/usrc/1P5M_1_fmo_input.F05
-rw-r--r-- 1 hazwong frank      634 Nov 18 22:49 /scratch/hazwong/638800/1P5M_1/usrc/1P5M_1_fmo_input.F06.001
-rw-r--r-- 1 hazwong frank      634 Nov 18 22:49 /scratch/hazwong/638800/1P5M_1/usrc/1P5M_1_fmo_input.F06.002
-rw-r--r-- 1 hazwong frank      634 Nov 18 22:49 /scratch/hazwong/638800/1P5M_1/usrc/1P5M_1_fmo_input.F06.003
-rw-r--r-- 1 hazwong frank      634 Nov 18 22:49 /scratch/hazwong/638800/1P5M_1/usrc/1P5M_1_fmo_input.F06.004
-rw-r--r-- 1 hazwong frank      634 Nov 18 22:49 /scratch/hazwong/638800/1P5M_1/usrc/1P5M_1_fmo_input.F06.005
-rw-r--r-- 1 hazwong frank      634 Nov 18 22:49 /scratch/hazwong/638800/1P5M_1/usrc/1P5M_1_fmo_input.F06.006
-rw-r--r-- 1 hazwong frank      634 Nov 18 22:49 /scratch/hazwong/638800/1P5M_1/usrc/1P5M_1_fmo_input.F06.007
-rw-r--r-- 1 hazwong frank      634 Nov 18 22:49 /scratch/hazwong/638800/1P5M_1/usrc/1P5M_1_fmo_input.F06.008
-rw-r--r-- 1 hazwong frank      634 Nov 18 22:49 /scratch/hazwong/638800/1P5M_1/usrc/1P5M_1_fmo_input.F06.009
-rw-r--r-- 1 hazwong frank      634 Nov 18 22:49 /scratch/hazwong/638800/1P5M_1/usrc/1P5M_1_fmo_input.F06.010
-rw-r--r-- 1 hazwong frank      634 Nov 18 22:49 /scratch/hazwong/638800/1P5M_1/usrc/1P5M_1_fmo_input.F06.011
-rw-r--r-- 1 hazwong frank      634 Nov 18 22:49 /scratch/hazwong/638800/1P5M_1/usrc/1P5M_1_fmo_input.F06.012
-rw-r--r-- 1 hazwong frank      634 Nov 18 22:49 /scratch/hazwong/638800/1P5M_1/usrc/1P5M_1_fmo_input.F06.013
-rw-r--r-- 1 hazwong frank      634 Nov 18 22:49 /scratch/hazwong/638800/1P5M_1/usrc/1P5M_1_fmo_input.F06.014
-rw-r--r-- 1 hazwong frank      634 Nov 18 22:49 /scratch/hazwong/638800/1P5M_1/usrc/1P5M_1_fmo_input.F06.015
-rw-r--r-- 1 hazwong frank    24606 Nov 18 22:49 /scratch/hazwong/638800/1P5M_1/usrc/1P5M_1_fmo_input.F07
-rw-r--r-- 1 hazwong frank        0 Nov 17 21:37 /scratch/hazwong/638800/1P5M_1/usrc/1P5M_1_fmo_input.F07.001
-rw-r--r-- 1 hazwong frank        0 Nov 17 21:37 /scratch/hazwong/638800/1P5M_1/usrc/1P5M_1_fmo_input.F07.002
-rw-r--r-- 1 hazwong frank        0 Nov 17 21:37 /scratch/hazwong/638800/1P5M_1/usrc/1P5M_1_fmo_input.F07.003
-rw-r--r-- 1 hazwong frank        0 Nov 17 21:37 /scratch/hazwong/638800/1P5M_1/usrc/1P5M_1_fmo_input.F07.004
-rw-r--r-- 1 hazwong frank        0 Nov 17 21:37 /scratch/hazwong/638800/1P5M_1/usrc/1P5M_1_fmo_input.F07.005
-rw-r--r-- 1 hazwong frank        0 Nov 17 21:37 /scratch/hazwong/638800/1P5M_1/usrc/1P5M_1_fmo_input.F07.006
-rw-r--r-- 1 hazwong frank        0 Nov 17 21:37 /scratch/hazwong/638800/1P5M_1/usrc/1P5M_1_fmo_input.F07.007
-rw-r--r-- 1 hazwong frank        0 Nov 17 21:37 /scratch/hazwong/638800/1P5M_1/usrc/1P5M_1_fmo_input.F07.008
-rw-r--r-- 1 hazwong frank        0 Nov 17 21:37 /scratch/hazwong/638800/1P5M_1/usrc/1P5M_1_fmo_input.F07.009
-rw-r--r-- 1 hazwong frank        0 Nov 17 21:37 /scratch/hazwong/638800/1P5M_1/usrc/1P5M_1_fmo_input.F07.010
-rw-r--r-- 1 hazwong frank        0 Nov 17 21:37 /scratch/hazwong/638800/1P5M_1/usrc/1P5M_1_fmo_input.F07.011
-rw-r--r-- 1 hazwong frank        0 Nov 17 21:37 /scratch/hazwong/638800/1P5M_1/usrc/1P5M_1_fmo_input.F07.012
-rw-r--r-- 1 hazwong frank        0 Nov 17 21:37 /scratch/hazwong/638800/1P5M_1/usrc/1P5M_1_fmo_input.F07.013
-rw-r--r-- 1 hazwong frank        0 Nov 17 21:37 /scratch/hazwong/638800/1P5M_1/usrc/1P5M_1_fmo_input.F07.014
-rw-r--r-- 1 hazwong frank        0 Nov 17 21:37 /scratch/hazwong/638800/1P5M_1/usrc/1P5M_1_fmo_input.F07.015
-rw-r--r-- 1 hazwong frank    65440 Nov 18 22:49 /scratch/hazwong/638800/1P5M_1/usrc/1P5M_1_fmo_input.F10.000
-rw-r--r-- 1 hazwong frank        0 Nov 17 21:37 /scratch/hazwong/638800/1P5M_1/usrc/1P5M_1_fmo_input.F26.000
-rw-r--r-- 1 hazwong frank        0 Nov 17 21:37 /scratch/hazwong/638800/1P5M_1/usrc/1P5M_1_fmo_input.F26.001
-rw-r--r-- 1 hazwong frank        0 Nov 17 21:37 /scratch/hazwong/638800/1P5M_1/usrc/1P5M_1_fmo_input.F26.002
-rw-r--r-- 1 hazwong frank        0 Nov 17 21:37 /scratch/hazwong/638800/1P5M_1/usrc/1P5M_1_fmo_input.F26.003
-rw-r--r-- 1 hazwong frank        0 Nov 17 21:37 /scratch/hazwong/638800/1P5M_1/usrc/1P5M_1_fmo_input.F26.004
-rw-r--r-- 1 hazwong frank        0 Nov 17 21:37 /scratch/hazwong/638800/1P5M_1/usrc/1P5M_1_fmo_input.F26.005
-rw-r--r-- 1 hazwong frank        0 Nov 17 21:37 /scratch/hazwong/638800/1P5M_1/usrc/1P5M_1_fmo_input.F26.006
-rw-r--r-- 1 hazwong frank        0 Nov 17 21:37 /scratch/hazwong/638800/1P5M_1/usrc/1P5M_1_fmo_input.F26.007
-rw-r--r-- 1 hazwong frank        0 Nov 17 21:37 /scratch/hazwong/638800/1P5M_1/usrc/1P5M_1_fmo_input.F26.008
-rw-r--r-- 1 hazwong frank        0 Nov 17 21:37 /scratch/hazwong/638800/1P5M_1/usrc/1P5M_1_fmo_input.F26.009
-rw-r--r-- 1 hazwong frank        0 Nov 17 21:37 /scratch/hazwong/638800/1P5M_1/usrc/1P5M_1_fmo_input.F26.010
-rw-r--r-- 1 hazwong frank        0 Nov 17 21:37 /scratch/hazwong/638800/1P5M_1/usrc/1P5M_1_fmo_input.F26.011
-rw-r--r-- 1 hazwong frank        0 Nov 17 21:37 /scratch/hazwong/638800/1P5M_1/usrc/1P5M_1_fmo_input.F26.012
-rw-r--r-- 1 hazwong frank        0 Nov 17 21:37 /scratch/hazwong/638800/1P5M_1/usrc/1P5M_1_fmo_input.F26.013
-rw-r--r-- 1 hazwong frank        0 Nov 17 21:37 /scratch/hazwong/638800/1P5M_1/usrc/1P5M_1_fmo_input.F26.014
-rw-r--r-- 1 hazwong frank        0 Nov 17 21:37 /scratch/hazwong/638800/1P5M_1/usrc/1P5M_1_fmo_input.F26.015
-rw-r--r-- 1 hazwong frank        0 Nov 17 21:37 /scratch/hazwong/638800/1P5M_1/usrc/1P5M_1_fmo_input.F27.000
-rw-r--r-- 1 hazwong frank        0 Nov 17 21:37 /scratch/hazwong/638800/1P5M_1/usrc/1P5M_1_fmo_input.F27.001
-rw-r--r-- 1 hazwong frank        0 Nov 17 21:37 /scratch/hazwong/638800/1P5M_1/usrc/1P5M_1_fmo_input.F27.002
-rw-r--r-- 1 hazwong frank        0 Nov 17 21:37 /scratch/hazwong/638800/1P5M_1/usrc/1P5M_1_fmo_input.F27.003
-rw-r--r-- 1 hazwong frank        0 Nov 17 21:37 /scratch/hazwong/638800/1P5M_1/usrc/1P5M_1_fmo_input.F27.004
-rw-r--r-- 1 hazwong frank        0 Nov 17 21:37 /scratch/hazwong/638800/1P5M_1/usrc/1P5M_1_fmo_input.F27.005
-rw-r--r-- 1 hazwong frank        0 Nov 17 21:37 /scratch/hazwong/638800/1P5M_1/usrc/1P5M_1_fmo_input.F27.006
-rw-r--r-- 1 hazwong frank        0 Nov 17 21:37 /scratch/hazwong/638800/1P5M_1/usrc/1P5M_1_fmo_input.F27.007
-rw-r--r-- 1 hazwong frank        0 Nov 17 21:37 /scratch/hazwong/638800/1P5M_1/usrc/1P5M_1_fmo_input.F27.008
-rw-r--r-- 1 hazwong frank        0 Nov 17 21:37 /scratch/hazwong/638800/1P5M_1/usrc/1P5M_1_fmo_input.F27.009
-rw-r--r-- 1 hazwong frank        0 Nov 17 21:37 /scratch/hazwong/638800/1P5M_1/usrc/1P5M_1_fmo_input.F27.010
-rw-r--r-- 1 hazwong frank        0 Nov 17 21:37 /scratch/hazwong/638800/1P5M_1/usrc/1P5M_1_fmo_input.F27.011
-rw-r--r-- 1 hazwong frank        0 Nov 17 21:37 /scratch/hazwong/638800/1P5M_1/usrc/1P5M_1_fmo_input.F27.012
-rw-r--r-- 1 hazwong frank        0 Nov 17 21:37 /scratch/hazwong/638800/1P5M_1/usrc/1P5M_1_fmo_input.F27.013
-rw-r--r-- 1 hazwong frank        0 Nov 17 21:37 /scratch/hazwong/638800/1P5M_1/usrc/1P5M_1_fmo_input.F27.014
-rw-r--r-- 1 hazwong frank        0 Nov 17 21:37 /scratch/hazwong/638800/1P5M_1/usrc/1P5M_1_fmo_input.F27.015
-rw-r--r-- 1 hazwong frank 34586624 Nov 18 05:51 /scratch/hazwong/638800/1P5M_1/usrc/1P5M_1_fmo_input.F40.000
-rw-r--r-- 1 hazwong frank 34586624 Nov 18 05:51 /scratch/hazwong/638800/1P5M_1/usrc/1P5M_1_fmo_input.F40.001
-rw-r--r-- 1 hazwong frank 34586624 Nov 18 05:51 /scratch/hazwong/638800/1P5M_1/usrc/1P5M_1_fmo_input.F40.002
-rw-r--r-- 1 hazwong frank 34586624 Nov 18 05:51 /scratch/hazwong/638800/1P5M_1/usrc/1P5M_1_fmo_input.F40.003
-rw-r--r-- 1 hazwong frank 34586624 Nov 18 05:51 /scratch/hazwong/638800/1P5M_1/usrc/1P5M_1_fmo_input.F40.004
-rw-r--r-- 1 hazwong frank 34586624 Nov 18 05:51 /scratch/hazwong/638800/1P5M_1/usrc/1P5M_1_fmo_input.F40.005
-rw-r--r-- 1 hazwong frank 34586624 Nov 18 05:51 /scratch/hazwong/638800/1P5M_1/usrc/1P5M_1_fmo_input.F40.006
-rw-r--r-- 1 hazwong frank 34586624 Nov 18 05:51 /scratch/hazwong/638800/1P5M_1/usrc/1P5M_1_fmo_input.F40.007
-rw-r--r-- 1 hazwong frank 34586624 Nov 18 05:51 /scratch/hazwong/638800/1P5M_1/usrc/1P5M_1_fmo_input.F40.008
-rw-r--r-- 1 hazwong frank 34586624 Nov 18 05:51 /scratch/hazwong/638800/1P5M_1/usrc/1P5M_1_fmo_input.F40.009
-rw-r--r-- 1 hazwong frank 34586624 Nov 18 05:51 /scratch/hazwong/638800/1P5M_1/usrc/1P5M_1_fmo_input.F40.010
-rw-r--r-- 1 hazwong frank 34586624 Nov 18 05:51 /scratch/hazwong/638800/1P5M_1/usrc/1P5M_1_fmo_input.F40.011
-rw-r--r-- 1 hazwong frank 34586624 Nov 18 05:51 /scratch/hazwong/638800/1P5M_1/usrc/1P5M_1_fmo_input.F40.012
-rw-r--r-- 1 hazwong frank 34586624 Nov 18 05:51 /scratch/hazwong/638800/1P5M_1/usrc/1P5M_1_fmo_input.F40.013
-rw-r--r-- 1 hazwong frank 34586624 Nov 18 05:51 /scratch/hazwong/638800/1P5M_1/usrc/1P5M_1_fmo_input.F40.014
-rw-r--r-- 1 hazwong frank 34586624 Nov 18 05:51 /scratch/hazwong/638800/1P5M_1/usrc/1P5M_1_fmo_input.F40.015
Mon Nov 18 22:49:17 EST 2019
0.188u 0.096s 25:11:33.29 0.0%	0+0k 1224+184io 23pf+0w
