----- GAMESS execution script 'rungms' -----
This job is running on host gollum047.lsa.umich.edu
under operating system Linux at Sun Nov 17 21:37:44 EST 2019
Available scratch disk space (Kbyte units) at beginning of the job is
Filesystem     1K-blocks  Used Available Use% Mounted on
/dev/sda4      426933580 33452 426900128   1% /scratch
GAMESS temporary binary files will be written to /scratch/hazwong/638799/1P5M_5/usrc
GAMESS supplementary output files will be written to /scratch/hazwong/638799/1P5M_5/src
Copying input file 1P5M_5_fmo_input.inp to your run's scratch directory...
This is a GDDI run, keeping various output files on local disks
 
Assuming a single but multicore node.
 

 Distributed Data Interface kickoff program.
 Initiating 16 compute processes on 1 nodes to run the following command:
 /export/apps/CentOS7/gamess/src/build//gamess.R3.x 1P5M_5_fmo_input 

          ******************************************************
          *         GAMESS VERSION = 30 SEP 2018 (R3)         *
          *             FROM IOWA STATE UNIVERSITY             *
          * M.W.SCHMIDT, K.K.BALDRIDGE, J.A.BOATZ, S.T.ELBERT, *
          *   M.S.GORDON, J.H.JENSEN, S.KOSEKI, N.MATSUNAGA,   *
          *          K.A.NGUYEN, S.J.SU, T.L.WINDUS,           *
          *       TOGETHER WITH M.DUPUIS, J.A.MONTGOMERY       *
          *         J.COMPUT.CHEM.  14, 1347-1363(1993)        *
          **************** 64 BIT LINUX VERSION ****************

  SINCE 1993, STUDENTS AND POSTDOCS WORKING AT IOWA STATE UNIVERSITY
  AND ALSO IN THEIR VARIOUS JOBS AFTER LEAVING ISU HAVE MADE IMPORTANT
  CONTRIBUTIONS TO THE CODE:
     IVANA ADAMOVIC, CHRISTINE AIKENS, YURI ALEXEEV, POOJA ARORA,
     ANDREY ASADCHEV, ROB BELL, PRADIPTA BANDYOPADHYAY, JONATHAN BENTZ,
     BRETT BODE, KURT BRORSEN, CALEB CARLIN, GALINA CHABAN, WEI CHEN,
     CHEOL HO CHOI, PAUL DAY, ALBERT DEFUSCO, NUWAN DESILVA, TIM DUDLEY,
     DMITRI FEDOROV, ALEX FINDLATER, GRAHAM FLETCHER, MARK FREITAG,
     KURT GLAESEMANN, ANASTASIA GUNINA,
     DAN KEMP, GRANT MERRILL, NORIYUKI MINEZAWA, JONATHAN MULLIN,
     TAKESHI NAGATA, SEAN NEDD, HEATHER NETZLOFF, BOSILJKA NJEGIC, RYAN OLSON,
     MIKE PAK, BUU PHAM,
     SPENCER PRUITT, LUKE ROSKOP, JIM SHOEMAKER, LYUDMILA SLIPCHENKO,
     TONY SMITH, SAROM SOK LEANG, JIE SONG, TETSUYA TAKETSUGU, SIMON WEBB,
     PENG XU, SOOHAENG YOO, FEDERICO ZAHARIEV

  ADDITIONAL CODE HAS BEEN PROVIDED BY COLLABORATORS IN OTHER GROUPS:
     IOWA STATE UNIVERSITY:
          JOE IVANIC, AARON WEST, LAIMUTIS BYTAUTAS, KLAUS RUEDENBERG
     UNIVERSITY OF TOKYO: KIMIHIKO HIRAO, TAKAHITO NAKAJIMA,
          TAKAO TSUNEDA, MUNEAKI KAMIYA, SUSUMU YANAGISAWA,
          KIYOSHI YAGI, MAHITO CHIBA, SEIKEN TOKURA, NAOAKI KAWAKAMI
     UNIVERSITY OF AARHUS: FRANK JENSEN
     UNIVERSITY OF IOWA: VISVALDAS KAIRYS, HUI LI
     NATIONAL INST. OF STANDARDS AND TECHNOLOGY: WALT STEVENS, DAVID GARMER
     UNIVERSITY OF PISA: BENEDETTA MENNUCCI, JACOPO TOMASI
     UNIVERSITY OF MEMPHIS: HENRY KURTZ, PRAKASHAN KORAMBATH
     UNIVERSITY OF ALBERTA: TOBY ZENG, MARIUSZ KLOBUKOWSKI
     UNIVERSITY OF NEW ENGLAND: MARK SPACKMAN
     MIE UNIVERSITY: HIROAKI UMEDA
     NAT. INST. OF ADVANCED INDUSTRIAL SCIENCE AND TECHNOLOGY: KAZUO KITAURA
     MICHIGAN STATE UNIVERSITY:
          KAROL KOWALSKI, MARTA WLOCH, JEFFREY GOUR, JESSE LUTZ,
          WEI LI, JUN SHEN, J. EMILIANO DEUSTUA, PIOTR PIECUCH
     UNIVERSITY OF MINNESOTA:
          YINAN SHU
     UNIVERSITY OF SILESIA: MONIKA MUSIAL, STANISLAW KUCHARSKI
     FACULTES UNIVERSITAIRES NOTRE-DAME DE LA PAIX:
          OLIVIER QUINET, BENOIT CHAMPAGNE
     UNIVERSITY OF CALIFORNIA - SANTA BARBARA: BERNARD KIRTMAN
     INSTITUTE FOR MOLECULAR SCIENCE:
          KAZUYA ISHIMURA, MICHIO KATOUDA, AND SHIGERU NAGASE
     UNIVERSITY OF NOTRE DAME: ANNA POMOGAEVA, DAN CHIPMAN
     KYUSHU UNIVERSITY:
          HARUYUKI NAKANO,
          FENG LONG GU, JACEK KORCHOWIEC, MARCIN MAKOWSKI, AND YURIKO AOKI,
          HIROTOSHI MORI AND EISAKU MIYOSHI
     PENNSYLVANIA STATE UNIVERSITY:
          TZVETELIN IORDANOV, CHET SWALINA, JONATHAN SKONE,
          SHARON HAMMES-SCHIFFER
     WASEDA UNIVERSITY:
          MASATO KOBAYASHI, TOMOKO AKAMA, TSUGUKI TOUMA,
          TAKESHI YOSHIKAWA, YASUHIRO IKABATA, JUNJI SEINO,
          YUYA NAKAJIMA, HIROMI NAKAI
     NANJING UNIVERSITY: SHUHUA LI
     UNIVERSITY OF NEBRASKA:
          PEIFENG SU, DEJUN SI, NANDUN THELLAMUREGE, YALI WANG, HUI LI
     UNIVERSITY OF ZURICH: ROBERTO PEVERATI, KIM BALDRIDGE
     N. COPERNICUS UNIVERSITY AND JACKSON STATE UNIVERSITY:
          MARIA BARYSZ
     UNIVERSITY OF COPENHAGEN: Jimmy Kromann, CASPER STEINMANN
     TOKYO INSTITUTE OF TECHNOLOGY: HIROYA NAKATA
     NAGOYA UNIVERSITY: YOSHIO NISHIMOTO, STEPHAN IRLE
     MOSCOW STATE UNIVERSITY: VLADIMIR MIRONOV


 PARALLEL VERSION RUNNING ON       16 PROCESSORS IN        1 NODES.

 EXECUTION OF GAMESS BEGUN Sun Nov 17 21:37:44 2019

            ECHO OF THE FIRST FEW INPUT CARDS -
 INPUT CARD>!*** FMO 5.3 (Gamess) INPUT generated by Facio 22.1.1.32 ***                    
 INPUT CARD> $CONTRL RUNTYP=ENERGY NPRINT=-5 ISPHER=1 MAXIT=200 $END                        
 INPUT CARD> $SYSTEM MWORDS=63 MEMDDI=63 $END                                               
 INPUT CARD> $GDDI NGROUP=1 $END                                                            
 INPUT CARD> $SCF DIRSCF=.TRUE. NPUNCH=0 $END                                               
 INPUT CARD>!*** NumCPU : 2  MemPerNode : 512MB                                             
 INPUT CARD> $PCM SOLVNT=WATER IEF=-10 ICOMP=2 ICAV=1 IDISP=1 IFMO=-1 $END                  
 INPUT CARD> $PCMCAV RADII=SUAHF $END                                                       
 INPUT CARD> $TESCAV NTSALL=60 $END                                                         
 INPUT CARD> $FMOPRP                                                                        
 INPUT CARD>    NAODIR=200                                                                  
 INPUT CARD>    NGRFMO(1)=1, 1, 0, 0, 0,   0, 0, 0, 0, 0                                    
 INPUT CARD>    IPIEDA=1                                                                    
 INPUT CARD>    NPRINT=9                                                                    
 INPUT CARD> $END                                                                           
 INPUT CARD> $FMO                                                                           
 INPUT CARD>      SCFTYP(1)=RHF                                                             
 INPUT CARD>      MODGRD=10                                                                 
 INPUT CARD>      MODMUL=0                                                                  
 INPUT CARD>      MAXCAO=5                                                                  
 INPUT CARD>      MAXBND=19                                                                 
 INPUT CARD>      NLAYER=1                                                                  
 INPUT CARD>      MPLEVL(1)=2                                                               
 INPUT CARD>      NFRAG=17                                                                  
 INPUT CARD>      ICHARG(1)=-1, -1, -1, -1, -1, -1, -1, -1, -1, -1, 0, -1, -1, -1,          
 INPUT CARD>-1, -1, 0                                                                       
 INPUT CARD>      FRGNAM(1)=F1, F2, F3, F4, F5, F6, F7, F8, F9, F10, F11, F12, F13,         
 INPUT CARD>F14, F15, F16, F17                                                              
 INPUT CARD>      indat(1)=0                                                                
 INPUT CARD>               1   -35   0                                                      
 INPUT CARD>               36   -69   0                                                     
 INPUT CARD>               70   -103   0                                                    
 INPUT CARD>               104   -136   0                                                   
 INPUT CARD>               137   -169   0                                                   
 INPUT CARD>               170   -200   0                                                   
 INPUT CARD>               201   -230   0                                                   
 INPUT CARD>               231   -263   0                                                   
 INPUT CARD>               264   -294   0                                                   
 INPUT CARD>               295   -324   0                                                   
 INPUT CARD>               325   -357   0                                                   
 INPUT CARD>               358   -388   0                                                   
 INPUT CARD>               389   -421   0                                                   
 INPUT CARD>               422   -455   0                                                   
 INPUT CARD>               456   -486   0                                                   
 INPUT CARD>               487   -517   0                                                   
 INPUT CARD>               518   -544   0                                                   
 INPUT CARD> $END                                                                           
 INPUT CARD>                                                                                
 INPUT CARD> $FMOBND                                                                        
 INPUT CARD>   -36   35       6-31G*    MINI                                                


 -------------------------------------------------------------
 GROUP DDI, PROGRAMMED BY: RYAN M. OLSON AND DMITRI G. FEDOROV
        FEDOROV ET AL., J. COMPUT. CHEM., 25 (2004) 872.
 -------------------------------------------------------------

 -------------------------------------------------------
 GDDI: INITIALIZATION COMPLETED FOR GROUP     1 OF     1
 WITH    16 PROCESSES BALTYP=DLB   global rank=        0
 -------------------------------------------------------

   63000000 WORDS OF MEMORY AVAILABLE


     RUN TITLE
     ---------
  FMO calculation                                                                

 THE POINT GROUP OF THE MOLECULE IS C1      
 THE ORDER OF THE PRINCIPAL AXIS IS     0

 ATOM   ATOMIC CHARGE
 H.1-1       1.0
 O.1-1       8.0
 C.1-1       6.0
 N.1-1       7.0
 P.1-1      15.0

     ATOMIC BASIS SET LIBRARY
     ----------------
 THE CONTRACTED PRIMITIVE FUNCTIONS HAVE BEEN UNNORMALIZED
 THE CONTRACTED BASIS FUNCTIONS ARE NOW NORMALIZED TO UNITY

  SHELL TYPE  PRIMITIVE        EXPONENT          CONTRACTION COEFFICIENT(S)

 H.1-1     

      1   S       1            18.7311370    0.033494604338
      1   S       2             2.8253944    0.234726953484
      1   S       3             0.6401217    0.813757326146

      2   S       4             0.1612778    1.000000000000

 O.1-1     

      3   S       5          5484.6716600    0.001831074430
      3   S       6           825.2349460    0.013950172200
      3   S       7           188.0469580    0.068445078098
      3   S       8            52.9645000    0.232714335992
      3   S       9            16.8975704    0.470192897984
      3   S      10             5.7996353    0.358520852987

      4   L      11            15.5396162   -0.110777549525    0.070874268231
      4   L      12             3.5999336   -0.148026262701    0.339752839147
      4   L      13             1.0137618    1.130767015354    0.727158577316

      5   L      14             0.2700058    1.000000000000    1.000000000000

      6   D      15             0.8000000    1.000000000000

 C.1-1     

      7   S      16          3047.5248800    0.001834737132
      7   S      17           457.3695180    0.014037322813
      7   S      18           103.9486850    0.068842622264
      7   S      19            29.2101553    0.232184443216
      7   S      20             9.2866630    0.467941348435
      7   S      21             3.1639270    0.362311985337

      8   L      22             7.8682723   -0.119332419775    0.068999066591
      8   L      23             1.8812885   -0.160854151696    0.316423960957
      8   L      24             0.5442493    1.143456437840    0.744308290898

      9   L      25             0.1687145    1.000000000000    1.000000000000

     10   D      26             0.8000000    1.000000000000

 N.1-1     

     11   S      27          4173.5114600    0.001834772160
     11   S      28           627.4579110    0.013994627002
     11   S      29           142.9020930    0.068586551812
     11   S      30            40.2343293    0.232240873040
     11   S      31            12.8202129    0.469069948082
     11   S      32             4.3904370    0.360455199063

     12   L      33            11.6263619   -0.114961181702    0.067579743878
     12   L      34             2.7162798   -0.169117478561    0.323907295893
     12   L      35             0.7722184    1.145851947027    0.740895139755

     13   L      36             0.2120315    1.000000000000    1.000000000000

     14   D      37             0.8000000    1.000000000000

 P.1-1     

     15   S      38         19413.3000000    0.001851598923
     15   S      39          2909.4200000    0.014206191735
     15   S      40           661.3640000    0.069999459277
     15   S      41           185.7590000    0.240078860331
     15   S      42            59.1943000    0.484761717984
     15   S      43            20.0310000    0.335199804993

     16   L      44           339.4780000   -0.002782170105    0.004564616191
     16   L      45            81.0101000   -0.036049901354    0.033693571881
     16   L      46            25.8780000   -0.116631004382    0.139754883368
     16   L      47             9.4522100    0.096832803638    0.339361716786
     16   L      48             3.6656600    0.614418023082    0.450920623685
     16   L      49             1.4674600    0.403798015170    0.238585800889

     17   L      50             2.1562300   -0.252924113863   -0.017765312733
     17   L      51             0.7489970    0.032851844678    0.274058196433
     17   L      52             0.2831450    1.081254761783    0.785421562957

     18   L      53             0.0998317    1.000000000000    1.000000000000

     19   D      54             0.5500000    1.000000000000

 TOTAL NUMBER OF BASIS SET SHELLS             =   19
 NUMBER OF CARTESIAN GAUSSIAN BASIS FUNCTIONS =   66

     $CONTRL OPTIONS
     ---------------
 SCFTYP=RHF          RUNTYP=ENERGY       EXETYP=RUN     
 MPLEVL=       0     CITYP =NONE         CCTYP =NONE         VBTYP =NONE    
 DFTTYP=NONE         TDDFT =NONE    
 MULT  =       1     ICHARG=       0     NZVAR =       0     COORD =UNIQUE  
 PP    =NONE         RELWFN=NONE         LOCAL =NONE         NUMGRD=       F
 ISPHER=       1     NOSYM =       0     MAXIT =     200     UNITS =ANGS    
 PLTORB=       F     MOLPLT=       F     AIMPAC=       F     FRIEND=        
 NPRINT=      -5     IREST =       0     GEOM  =INPUT   
 NORMF =       0     NORMP =       0     ITOL  =      24     ICUT  =      12
 INTTYP=BEST         GRDTYP=BEST         QMTTOL= 1.0E-06

     $SYSTEM OPTIONS
     ---------------
  REPLICATED MEMORY=    63000000 WORDS (ON EVERY NODE).
 DISTRIBUTED MEMDDI=          63 MILLION WORDS IN AGGREGATE,
 MEMDDI DISTRIBUTED OVER  16 PROCESSORS IS     3937500 WORDS/PROCESSOR.
 TOTAL MEMORY REQUESTED ON EACH PROCESSOR=    66937500 WORDS.
 TIMLIM=      525600.00 MINUTES, OR     365.0 DAYS.
 PARALL= T  BALTYP=  DLB     KDIAG=    0  COREFL= F
 MXSEQ2=     300 MXSEQ3=     150  mem10=         0

 ** LOOKING UP INTERNALLY STORED DATA FOR SOLVENT=WATER    **
 OPTICAL AND PHYSICAL CONSTANTS:
 EPS= 78.390; EPSINF=  1.776; RSOLV=  1.385 A; VMOL=  18.070 ML/MOL;
 TCE= .25700E-03 1/K; STEN= 71.810 DYN/CM;  DSTEN=  0.6500; CMF=  1.2770


     -----------------------------------
     INPUT FOR PCM SOLVATION CALCULATION 
     -----------------------------------
     IEF   =     -10
     ICOMP =       2     IFIELD=       0     ICAV  =       1
     IDISP =       1     IREP  =       0     IDP   =       0

     SOLVNT=WATER        EPS   = 78.3900     EPSINF=  1.7760
     VMOL  = 18.0700     TCE   =  0.00025700 STEN  = 71.8100
     DSTEN =  0.6500     CMF   =  1.2770     RSOLV =  1.3850

     NESFP =       0
     OMEGA = 40.0000     RET   =100.0000     FRO   =  0.7000

     TABS  =298.0000     IPRINT=       0

     --------------------------------
     INPUT FOR ITERATIVE C-PCM METHOD 
     --------------------------------
     IPCMIT  =         1     MXDIIS  =        50
     MXITR1  =       200     MXITR2  =       200
     THRES   = 0.100E-09     IMUL    =         3
     RCUT(1) =   20.0000     RCUT(2) =   50.0000

     IDIRCT  =         1
     IMGABI  =         0     RABI    =    4.0000
     IMGASC  =         0     RASC    =   20.0000
     THRSLS  = 0.500E-03     DENSLS  =    0.0100
     IEFPOL  =         1     REFPOL  =    0.0000

     INPUT FOR ISOTROPIC DIELECTRICS
     -------------------------------
     EPS=    78.39

          ----------------
          PROPERTIES INPUT
          ----------------

     MOMENTS            FIELD           POTENTIAL          DENSITY
 IEMOM =       1   IEFLD =       0   IEPOT =       0   IEDEN =       0
 WHERE =COMASS     WHERE =NUCLEI     WHERE =NUCLEI     WHERE =NUCLEI  
 OUTPUT=BOTH       OUTPUT=BOTH       OUTPUT=NONE       OUTPUT=BOTH    
 IEMINT=       0   IEFINT=       0                     IEDINT=       0
                                                       MORB  =       0
          EXTRAPOLATION IN EFFECT
          SOSCF IN EFFECT
 ORBITAL PRINTING OPTION: NPREO=     1 32767     2     1

     -------------------------------
     INTEGRAL TRANSFORMATION OPTIONS
     -------------------------------
     NWORD  =            0
     CUTOFF = 1.0E-10     MPTRAN =       0
     DIRTRF =       T     AOINTS =DUP     

          ----------------------
          INTEGRAL INPUT OPTIONS
          ----------------------
 NOPK  =       1 NORDER=       0 SCHWRZ=       T

 ..... DONE SETTING UP THE RUN .....
 CPU     0: STEP CPU TIME=     0.04 TOTAL CPU TIME=          0.0 (      0.0 MIN)
 TOTAL WALL CLOCK TIME=          0.1 SECONDS, CPU UTILIZATION IS    50.00%
 CPU     0: STEP CPU TIME=     0.00 TOTAL CPU TIME=          0.0 (      0.0 MIN)
 TOTAL WALL CLOCK TIME=          0.1 SECONDS, CPU UTILIZATION IS    50.00%

                    ----------------------
                    AO INTEGRAL TECHNOLOGY
                    ----------------------
     S,P,L SHELL ROTATED AXIS INTEGRALS, REPROGRAMMED BY
        KAZUYA ISHIMURA (IMS) AND JOSE SIERRA (SYNSTAR).
     S,P,D,L SHELL ROTATED AXIS INTEGRALS PROGRAMMED BY
        KAZUYA ISHIMURA (INSTITUTE FOR MOLECULAR SCIENCE).
     S,P,D,F,G SHELL TO TOTAL QUARTET ANGULAR MOMENTUM SUM 5,
        ERIC PROGRAM BY GRAHAM FLETCHER (ELORET AND NASA ADVANCED
        SUPERCOMPUTING DIVISION, AMES RESEARCH CENTER).
     S,P,D,F,G,L SHELL GENERAL RYS QUADRATURE PROGRAMMED BY
        MICHEL DUPUIS (PACIFIC NORTHWEST NATIONAL LABORATORY).
 Setting modorb=1 flag...
 Setting modorb=1 flag...

          -----------------------
          MP2 CONTROL INFORMATION
          -----------------------
          NACORE =        8  NBCORE =        8
          LMOMP2 =        F  AOINTS = DUP     
          METHOD =        2  NWORD  =               0
          MP2PRP =        F  OSPT   = NONE    
          CUTOFF = 1.00E-12  CPHFBS = BASISAO 
          CODE   = IMS     

          NUMBER OF CORE -A-  ORBITALS =     8
          NUMBER OF CORE -B-  ORBITALS =     8
          NUMBER OF OCC. -A-  ORBITALS =    18
          NUMBER OF OCC. -B-  ORBITALS =    18
          NUMBER OF MOLECULAR ORBITALS =    66
          NUMBER OF   BASIS  FUNCTIONS =    66

 CPU     0: STEP CPU TIME=     0.04 TOTAL CPU TIME=          0.1 (      0.0 MIN)
 TOTAL WALL CLOCK TIME=          0.1 SECONDS, CPU UTILIZATION IS    57.14%
 CPU     0: STEP CPU TIME=     0.00 TOTAL CPU TIME=          0.1 (      0.0 MIN)
 TOTAL WALL CLOCK TIME=          0.1 SECONDS, CPU UTILIZATION IS    57.14%

     INPUT FOR CAVITY DEFINITION 
     ---------------------------
   ATOM               COORDINATES                RADIUS       EPS
      1     16.8310      7.6340      3.9830      0.0100     78.3900
      2     17.3460      8.2950      3.4860      1.5900     78.3900
      3     18.3470      8.7980      4.3860      1.7700     78.3900
      4     18.9780      7.9470      4.7310      0.0100     78.3900
      5     17.8490      9.2480      5.2780      0.0100     78.3900
      6     19.2600      9.8490      3.7460      1.7700     78.3900
      7     20.0030     10.2330      4.4780      0.0100     78.3900
      8     20.0030      9.2630      2.6320      1.5900     78.3900
      9     20.1150     10.2200      1.5890      1.7700     78.3900
     10     21.2020     10.3400      1.3770      0.0100     78.3900
     11     19.4390      9.7650      0.3660      1.6800     78.3900
     12     18.8160      9.4760     -1.7260      1.7700     78.3900
     13     18.1240      8.5280     -0.9810      1.6800     78.3900
     14     18.5280      8.7430      0.2490      1.7700     78.3900
     15     18.1990      8.1820      1.1270      0.0100     78.3900
     16     19.6560     10.7670     -3.5270      1.6800     78.3900
     17     20.3700     11.4340     -2.6110      1.7700     78.3900
     18     21.0000     12.2410     -3.0020      0.0100     78.3900
     19     20.4320     11.2510     -1.2870      1.6800     78.3900
     20     19.6240     10.2470     -0.9070      1.7700     78.3900
     21     18.8550      9.7520     -3.1100      1.7700     78.3900
     22     18.1590      9.0410     -4.0210      1.6800     78.3900
     23     17.5670      8.2810     -3.7420      0.0100     78.3900
     24     18.1680      9.3000     -4.9900      0.0100     78.3900
     25     19.5600     11.5240      2.1140      1.7700     78.3900
     26     19.0980     12.1420      1.3210      0.0100     78.3900
     27     20.5890     12.2560      2.7480      1.5900     78.3900
     28     20.1800     13.0580      3.0950      0.0100     78.3900
     29     18.5240     11.0400      3.1240      1.7700     78.3900
     30     17.6360     10.6180      2.5950      0.0100     78.3900
     31     18.1760     11.9970      4.1560      1.5900     78.3900
     32     16.9510     12.9530      3.8780      2.1000     78.3900
     33     15.7880     12.1580      3.4230      1.5900     78.3900
     34     16.7350     13.7920      5.0790      1.5900     78.3900
     35     17.4570     13.8710      2.7030      1.5900     78.3900
     36     18.4780     14.8620      2.9850      1.7700     78.3900
     37     19.3710     14.4010      3.4600      0.0100     78.3900
     38     18.0900     15.6370      3.6840      0.0100     78.3900
     39     18.9390     15.5700      1.7050      1.7700     78.3900
     40     19.7750     16.2720      1.9250      0.0100     78.3900
     41     19.4230     14.5960      0.7420      1.5900     78.3900
     42     19.0340     14.9970     -0.5630      1.7700     78.3900
     43     19.9660     15.0640     -1.1700      0.0100     78.3900
     44     18.1380     14.0210     -1.1940      1.6800     78.3900
     45     17.8670     13.9190     -2.5320      1.7700     78.3900
     46     18.2730     15.0630     -5.7790      1.6800     78.3900
     47     18.8640     15.8560     -5.6570      0.0100     78.3900
     48     17.9020     14.8700     -6.6920      0.0100     78.3900
     49     18.3590     14.7150     -3.4990      1.6800     78.3900
     50     17.9230     14.3720     -4.7080      1.7700     78.3900
     51     17.0980     13.3000     -4.9290      1.6800     78.3900
     52     16.8150     13.1050     -5.8770      0.0100     78.3900
     53     16.5950     12.4460     -3.9530      1.7700     78.3900
     54     15.8610     11.4990     -4.2520      1.5900     78.3900
     55     17.0210     12.8340     -2.6550      1.7700     78.3900
     56     16.7410     12.2790     -1.4110      1.6800     78.3900
     57     17.4210     13.0250     -0.5740      1.7700     78.3900
     58     17.4450     12.9010      0.5090      0.0100     78.3900
     59     18.4150     16.3690     -0.4510      1.7700     78.3900
     60     17.6210     16.5430     -1.2050      0.0100     78.3900
     61     19.4190     17.3600     -0.5700      1.5900     78.3900
     62     18.9720     18.2060     -0.4530      0.0100     78.3900
     63     17.8410     16.3390      0.9600      1.7700     78.3900
     64     16.9360     15.6910      1.0000      0.0100     78.3900
     65     17.6410     17.6440      1.5620      1.5900     78.3900
     66     16.2500     18.3540      1.3530      2.1000     78.3900
     67     15.1860     17.3610      1.5900      1.5900     78.3900
     68     16.2140     19.5830      2.1800      1.5900     78.3900
     69     16.2180     18.7370     -0.1730      1.5900     78.3900
     70     17.0700     19.7480     -0.7470      1.7700     78.3900
     71     18.1410     19.5940     -0.4850      0.0100     78.3900
     72     16.7880     20.7540     -0.3740      0.0100     78.3900
     73     16.9350     19.7770     -2.2740      1.7700     78.3900
     74     17.6500     20.5110     -2.7090      0.0100     78.3900
     75     17.2630     18.4740     -2.8320      1.5900     78.3900
     76     16.4250     18.2160     -3.9470      1.7700     78.3900
     77     17.0990     18.0250     -4.8130      0.0100     78.3900
     78     15.5790     17.0260     -3.7350      1.6800     78.3900
     79     14.9520     16.2920     -4.7090      1.7700     78.3900
     80     14.1850     15.7670     -8.0500      1.6800     78.3900
     81     14.6520     16.5250     -8.5040      0.0100     78.3900
     82     13.6300     15.1350     -8.5990      0.0100     78.3900
     83     14.9810     16.5480     -6.0280      1.6800     78.3900
     84     14.2980     15.6560     -6.7390      1.7700     78.3900
     85     13.6510     14.5920     -6.1720      1.6800     78.3900
     86     13.1590     13.9560     -6.7820      0.0100     78.3900
     87     13.6130     14.2930     -4.8170      1.7700     78.3900
     88     13.0060     13.3000     -4.4120      1.5900     78.3900
     89     14.3230     15.2560     -4.0490      1.7700     78.3900
     90     14.5240     15.3500     -2.6750      1.6800     78.3900
     91     15.2700     16.4220     -2.5360      1.7700     78.3900
     92     15.6270     16.8260     -1.5870      0.0100     78.3900
     93     15.6170     19.4690     -4.2070      1.7700     78.3900
     94     14.6090     19.2430     -4.6060      0.0100     78.3900
     95     16.3140     20.3170     -5.1050      1.5900     78.3900
     96     15.8010     21.1310     -5.1680      0.0100     78.3900
     97     15.5280     20.0810     -2.8130      1.7700     78.3900
     98     14.8140     19.5120     -2.1740      0.0100     78.3900
     99     15.2780     21.5060     -2.7960      1.5900     78.3900
    100     13.7930     22.0350     -2.7800      2.1000     78.3900
    101     13.0660     21.3580     -1.6840      1.5900     78.3900
    102     13.8210     23.5140     -2.7540      1.5900     78.3900
    103     13.1660     21.5570     -4.1380      1.5900     78.3900
    104     13.5230     22.1700     -5.4000      1.7700     78.3900
    105     14.6260     22.2090     -5.5420      0.0100     78.3900
    106     13.1520     23.2190     -5.4470      0.0100     78.3900
    107     12.9170     21.4040     -6.5860      1.7700     78.3900
    108     13.2740     21.8310     -7.5490      0.0100     78.3900
    109     13.3270     20.0070     -6.5530      1.5900     78.3900
    110     12.2690     19.1960     -7.0280      1.7700     78.3900
    111     12.6690     18.6310     -7.9020      0.0100     78.3900
    112     11.8210     18.2440     -6.0030      1.6800     78.3900
    113     10.9490     16.5000     -4.9820      1.7700     78.3900
    114     11.5530     17.2670     -3.9960      1.6800     78.3900
    115     12.0510     18.2890     -4.6490      1.7700     78.3900
    116     12.5960     19.1210     -4.1970      0.0100     78.3900
    117      9.7860     14.7810     -6.1190      1.6800     78.3900
    118     10.0060     15.4770     -7.2370      1.7700     78.3900
    119      9.5910     15.0280     -8.1480      0.0100     78.3900
    120     10.6510     16.6370     -7.3950      1.6800     78.3900
    121     11.1020     17.0970     -6.2210      1.7700     78.3900
    122     10.2580     15.2690     -4.9460      1.7700     78.3900
    123     10.0570     14.5650     -3.8180      1.6800     78.3900
    124     10.4140     14.8560     -2.9270      0.0100     78.3900
    125      9.5290     13.7160     -3.8550      0.0100     78.3900
    126     11.1640     20.1180     -7.4860      1.7700     78.3900
    127     10.1600     19.6900     -7.3000      0.0100     78.3900
    128     11.3260     20.4290     -8.8550      1.5900     78.3900
    129     10.6840     21.1210     -9.0520      0.0100     78.3900
    130     11.3870     21.3480     -6.6220      1.7700     78.3900
    131     11.0530     21.1500     -5.5810      0.0100     78.3900
    132     10.8470     22.5750     -7.1670      1.5900     78.3900
    133      9.3820     23.0180     -6.7780      2.1000     78.3900
    134      9.2860     23.0470     -5.3030      1.5900     78.3900
    135      9.0640     24.2700     -7.5000      1.5900     78.3900
    136      8.4490     21.8660     -7.3090      1.5900     78.3900
    137      8.1680     21.7070     -8.7150      1.7700     78.3900
    138      9.1020     21.7070     -9.3210      0.0100     78.3900
    139      7.5250     22.5460     -9.0760      0.0100     78.3900
    140      7.4280     20.3880     -8.9900      1.7700     78.3900
    141      7.3180     20.2340    -10.0890      0.0100     78.3900
    142      8.1800     19.2430     -8.4720      1.5900     78.3900
    143      7.2800     18.3110     -7.8980      1.7700     78.3900
    144      7.5030     17.3250     -8.3670      0.0100     78.3900
    145      7.4500     18.1970     -6.4400      1.6800     78.3900
    146      7.4750     17.4220     -4.3800      1.7700     78.3900
    147      8.0470     18.6870     -4.3280      1.6800     78.3900
    148      8.0000     19.1060     -5.5690      1.7700     78.3900
    149      8.3720     20.0700     -5.9130      0.0100     78.3900
    150      6.6920     15.2660     -3.7880      1.6800     78.3900
    151      6.3690     15.1200     -5.0770      1.7700     78.3900
    152      5.9120     14.1600     -5.3380      0.0100     78.3900
    153      6.5130     15.9820     -6.0900      1.6800     78.3900
    154      7.0970     17.1140     -5.6740      1.7700     78.3900
    155      7.2560     16.4360     -3.3930      1.7700     78.3900
    156      7.5950     16.5980     -2.1010      1.6800     78.3900
    157      8.0470     17.4250     -1.7590      0.0100     78.3900
    158      7.4090     15.8620     -1.4490      0.0100     78.3900
    159      5.8950     18.7510     -8.2820      1.7700     78.3900
    160      5.1320     18.4550     -7.5350      0.0100     78.3900
    161      5.5760     18.2260     -9.5540      1.5900     78.3900
    162      4.7890     18.7060     -9.8400      0.0100     78.3900
    163      6.0450     20.2650     -8.3470      1.7700     78.3900
    164      6.1230     20.7080     -7.3280      0.0100     78.3900
    165      5.0640     20.9290     -9.1720      1.5900     78.3900
    166      3.6790     21.3630     -8.5690      2.1000     78.3900
    167      3.9390     22.2590     -7.4200      1.5900     78.3900
    168      2.8500     21.9040     -9.6690      1.5900     78.3900
    169      3.0250     20.0420     -8.0350      1.5900     78.3900
    170      2.4320     19.0550     -8.9020      1.7700     78.3900
    171      3.1470     18.7200     -9.6840      0.0100     78.3900
    172      1.5480     19.4860     -9.4210      0.0100     78.3900
    173      1.9760     17.8140     -8.1130      1.7700     78.3900
    174      1.6200     17.0200     -8.8060      0.0100     78.3900
    175      3.0800     17.2550     -7.3510      1.5900     78.3900
    176      2.6020     16.7630     -6.1130      1.7700     78.3900
    177      2.8860     15.6860     -6.0960      0.0100     78.3900
    178      3.2250     17.4480     -4.9440      1.6800     78.3900
    179      3.6000     18.7680     -5.0450      1.7700     78.3900
    180      3.4210     19.2400     -6.0070      0.0100     78.3900
    181      4.1840     19.4130     -4.0270      1.7700     78.3900
    182      4.4980     20.4540     -4.1020      0.0100     78.3900
    183      3.4010     16.7710     -3.7370      1.7700     78.3900
    184      3.0250     15.5900     -3.6410      1.5900     78.3900
    185      3.9710     17.4160     -2.6910      1.6800     78.3900
    186      4.3790     18.6900     -2.8160      1.7700     78.3900
    187      4.9810     19.2780     -1.7860      1.6800     78.3900
    188      5.1120     18.7570     -0.9420      0.0100     78.3900
    189      5.3020     20.2280     -1.8250      0.0100     78.3900
    190      1.0890     16.8740     -6.1400      1.7700     78.3900
    191      0.6590     17.0760     -5.1360      0.0100     78.3900
    192      0.5120     15.7020     -6.6950      1.5900     78.3900
    193     -0.3550     15.9750     -7.0290      0.0100     78.3900
    194      0.8810     18.0600     -7.0740      1.7700     78.3900
    195      1.1580     19.0120     -6.5660      0.0100     78.3900
    196     -0.4180     18.1000     -7.7170      1.5900     78.3900
    197     -1.5260     19.0400     -7.1040      2.1000     78.3900
    198     -0.9030     20.3330     -6.7470      1.5900     78.3900
    199     -2.6670     19.1050     -8.0400      1.5900     78.3900
    200     -1.9490     18.3130     -5.7760      1.5900     78.3900
    201     -2.3990     16.9440     -5.7260      1.7700     78.3900
    202     -1.5420     16.2880     -5.4650      0.0100     78.3900
    203     -2.8110     16.6060     -6.7020      0.0100     78.3900
    204     -3.4560     16.6750     -4.6390      1.7700     78.3900
    205     -3.5880     15.5770     -4.5460      0.0100     78.3900
    206     -3.0310     17.1680     -3.3360      1.5900     78.3900
    207     -3.9150     18.1900     -2.9240      1.7700     78.3900
    208     -4.6460     17.6780     -2.2550      0.0100     78.3900
    209     -3.1730     19.2650     -2.2280      1.6800     78.3900
    210     -2.1160     19.8820     -2.8540      1.7700     78.3900
    211     -1.8900     19.5250     -3.8580      0.0100     78.3900
    212     -3.5290     19.6010     -0.9420      1.7700     78.3900
    213     -4.4620     19.0650     -0.3490      1.5900     78.3900
    214     -2.7580     20.5780     -0.3650      1.6800     78.3900
    215     -3.0280     20.8550      0.5700      0.0100     78.3900
    216     -1.6830     21.2360     -0.9230      1.7700     78.3900
    217     -1.0790     22.0930     -0.2770      1.5900     78.3900
    218     -1.3730     20.8270     -2.2590      1.7700     78.3900
    219     -0.5250     21.2850     -2.7590      0.0100     78.3900
    220     -4.6620     18.6590     -4.1590      1.7700     78.3900
    221     -4.0480     19.3680     -4.7550      0.0100     78.3900
    222     -5.9180     19.2260     -3.8430      1.5900     78.3900
    223     -6.4700     18.4940     -3.5230      0.0100     78.3900
    224     -4.8220     17.3380     -4.9040      1.7700     78.3900
    225     -4.9220     17.5420     -5.9960      0.0100     78.3900
    226     -5.9280     16.5540     -4.4030      1.5900     78.3900
    227     -6.4830     15.2880     -5.1520      2.1000     78.3900
    228     -5.5090     14.1790     -5.0230      1.5900     78.3900
    229     -7.8500     15.0270     -4.6550      1.5900     78.3900
    230     -6.5460     15.6780     -6.6720      1.5900     78.3900
    231     -7.4460     16.6880     -7.1740      1.7700     78.3900
    232     -7.3270     17.6470     -6.6120      0.0100     78.3900
    233     -8.5040     16.3480     -7.0770      0.0100     78.3900
    234     -7.1720     16.9720     -8.6590      1.7700     78.3900
    235     -7.8060     17.8180     -9.0140      0.0100     78.3900
    236     -5.7810     17.3630     -8.8330      1.5900     78.3900
    237     -5.3030     16.8830    -10.0770      1.7700     78.3900
    238     -4.9610     17.7760    -10.6500      0.0100     78.3900
    239     -4.1700     15.9700     -9.8940      1.6800     78.3900
    240     -2.3660     14.7490    -10.2040      1.7700     78.3900
    241     -2.6910     14.6290     -8.8560      1.6800     78.3900
    242     -3.7650     15.3720     -8.7270      1.7700     78.3900
    243     -4.3180     15.5310     -7.7980      0.0100     78.3900
    244     -1.2650     14.5690    -12.2990      1.6800     78.3900
    245     -2.2440     15.3340    -12.7910      1.7700     78.3900
    246     -2.1690     15.5600    -13.8600      0.0100     78.3900
    247     -3.2680     15.9110    -12.1510      1.6800     78.3900
    248     -3.2760     15.5670    -10.8530      1.7700     78.3900
    249     -1.3060     14.2310    -10.9810      1.7700     78.3900
    250     -0.3410     13.4370    -10.4790      1.6800     78.3900
    251     -0.2860     13.2220     -9.5030      0.0100     78.3900
    252      0.4150     13.1560    -11.0720      0.0100     78.3900
    253     -6.4630     16.2330    -10.7870      1.7700     78.3900
    254     -6.1450     15.3620    -11.3910      0.0100     78.3900
    255     -7.1260     17.1820    -11.6030      1.5900     78.3900
    256     -7.9870     16.8070    -11.8390      0.0100     78.3900
    257     -7.3400     15.7880     -9.6260      1.7700     78.3900
    258     -6.8970     14.9010     -9.1160      0.0100     78.3900
    259     -8.7280     15.6080     -9.9850      1.5900     78.3900
    260     -9.2690     14.1650    -10.3170      2.1000     78.3900
    261     -8.9830     13.2920     -9.1590      1.5900     78.3900
    262    -10.6840     14.2820    -10.7330      1.5900     78.3900
    263     -8.4240     13.6530    -11.5460      1.5900     78.3900
    264     -8.5740     14.2340    -12.8620      1.7700     78.3900
    265     -8.4970     15.3440    -12.8260      0.0100     78.3900
    266     -9.5740     13.9830    -13.2810      0.0100     78.3900
    267     -7.5060     13.7120    -13.8390      1.7700     78.3900
    268     -7.6420     14.1570    -14.8480      0.0100     78.3900
    269     -6.1850     14.1020    -13.3720      1.5900     78.3900
    270     -5.2570     13.0630    -13.6320      1.7700     78.3900
    271     -4.4510     13.5330    -14.2410      0.0100     78.3900
    272     -4.6530     12.4930    -12.3910      1.6800     78.3900
    273     -5.3060     12.6160    -11.1870      1.7700     78.3900
    274     -6.2570     13.1430    -11.2130      0.0100     78.3900
    275     -4.7810     12.1410    -10.0520      1.7700     78.3900
    276     -5.2720     12.2610     -9.0870      0.0100     78.3900
    277     -3.4390     11.8130    -12.4470      1.7700     78.3900
    278     -2.8720     11.6770    -13.5420      1.5900     78.3900
    279     -2.8960     11.3150    -11.3120      1.6800     78.3900
    280     -3.5210     11.4800    -10.1320      1.7700     78.3900
    281     -2.9600     11.0070     -9.0210      1.6800     78.3900
    282     -2.0500     10.5920     -9.0620      0.0100     78.3900
    283     -3.3880     11.1270     -8.1250      0.0100     78.3900
    284     -5.9760     12.0300    -14.4700      1.7700     78.3900
    285     -5.5940     11.0050    -14.3020      0.0100     78.3900
    286     -5.8620     12.3670    -15.8390      1.5900     78.3900
    287     -6.3930     11.7240    -16.3230      0.0100     78.3900
    288     -7.4140     12.1860    -13.9860      1.7700     78.3900
    289     -7.5280     11.7630    -12.9630      0.0100     78.3900
    290     -8.4220     11.7160    -14.9100      1.5900     78.3900
    291     -8.9050     10.2150    -14.7920      2.1000     78.3900
    292     -9.1350      9.8900    -13.3670      1.5900     78.3900
    293    -10.0680     10.0300    -15.6830      1.5900     78.3900
    294     -7.7280      9.3110    -15.3090      1.5900     78.3900
    295     -7.2710      9.3730    -16.6780      1.7700     78.3900
    296     -7.0580     10.4150    -16.9930      0.0100     78.3900
    297     -8.0570      8.9820    -17.3670      0.0100     78.3900
    298     -5.9880      8.5490    -16.8710      1.7700     78.3900
    299     -5.6660      8.5650    -17.9350      0.0100     78.3900
    300     -4.9020      9.1170    -16.0780      1.5900     78.3900
    301     -4.1000      8.0710    -15.5480      1.7700     78.3900
    302     -3.0630      8.2770    -15.9020      0.0100     78.3900
    303     -4.1330      8.0490    -14.0510      1.6800     78.3900
    304     -5.1740      8.6220    -13.3580      1.7700     78.3900
    305     -5.9630      9.0420    -13.9750      0.0100     78.3900
    306     -3.0900      7.4580    -13.3770      1.7700     78.3900
    307     -2.1580      6.9130    -13.9540      1.5900     78.3900
    308     -3.1600      7.5410    -12.0100      1.6800     78.3900
    309     -2.4180      7.0740    -11.5000      0.0100     78.3900
    310     -4.1530      8.1230    -11.2550      1.7700     78.3900
    311     -4.0920      8.1150    -10.0270      1.5900     78.3900
    312     -5.2090      8.7040    -12.0220      1.7700     78.3900
    313     -6.0320      9.1850    -11.4970      0.0100     78.3900
    314     -4.5920      6.7760    -16.1780      1.7700     78.3900
    315     -4.4550      5.9100    -15.5030      0.0100     78.3900
    316     -3.9150      6.5370    -17.4010      1.5900     78.3900
    317     -4.3320      5.7680    -17.8060      0.0100     78.3900
    318     -6.0680      7.0900    -16.4070      1.7700     78.3900
    319     -6.6060      7.0960    -15.4310      0.0100     78.3900
    320     -6.7250      6.2900    -17.4160      1.5900     78.3900
    321     -7.5770      5.0370    -16.9770      2.1000     78.3900
    322     -8.4150      5.3790    -15.8090      1.5900     78.3900
    323     -8.2820      4.4900    -18.1590      1.5900     78.3900
    324     -6.4930      3.9970    -16.4980      1.5900     78.3900
    325     -5.6220      3.3740    -17.4710      1.7700     78.3900
    326     -5.0690      4.1340    -18.0670      0.0100     78.3900
    327     -6.2110      2.7520    -18.1810      0.0100     78.3900
    328     -4.6020      2.4580    -16.7880      1.7700     78.3900
    329     -3.9640      1.9340    -17.5310      0.0100     78.3900
    330     -3.7260      3.2530    -15.9430      1.5900     78.3900
    331     -3.4280      2.5220    -14.7630      1.7700     78.3900
    332     -2.3200      2.4350    -14.7140      0.0100     78.3900
    333     -3.8920      3.2270    -13.5640      1.6800     78.3900
    334     -3.4560      3.0190    -12.2850      1.7700     78.3900
    335     -1.4530      1.3270    -10.0240      1.6800     78.3900
    336     -1.0000      0.6430    -10.5950      0.0100     78.3900
    337     -1.2930      1.3140     -9.0330      0.0100     78.3900
    338     -2.5430      2.1060    -11.9000      1.6800     78.3900
    339     -2.3220      2.1450    -10.5870      1.7700     78.3900
    340     -2.9650      3.0130     -9.7400      1.6800     78.3900
    341     -2.7460      2.9690     -8.7570      0.0100     78.3900
    342     -3.9100      3.9630    -10.1110      1.7700     78.3900
    343     -4.4470      4.6930     -9.2710      1.5900     78.3900
    344     -4.1570      3.9270    -11.5090      1.7700     78.3900
    345     -5.0320      4.6780    -12.2870      1.6800     78.3900
    346     -4.8390      4.2220    -13.5010      1.7700     78.3900
    347     -5.3630      4.5600    -14.3970      0.0100     78.3900
    348     -4.0360      1.1400    -14.9040      1.7700     78.3900
    349     -4.3950      0.7330    -13.9330      0.0100     78.3900
    350     -3.0810      0.2590    -15.4750      1.5900     78.3900
    351     -3.5280     -0.5670    -15.7300      0.0100     78.3900
    352     -5.2060      1.4120    -15.8410      1.7700     78.3900
    353     -6.0470      1.8780    -15.2780      0.0100     78.3900
    354     -5.6610      0.2560    -16.5690      1.5900     78.3900
    355     -6.0810     -0.3720    -15.9540      0.0100     78.3900
    356     -0.2190      3.1450     -0.4360      0.0100     78.3900
    357     -0.0370      2.8500     -1.3480      1.5900     78.3900
    358      0.6400      1.5890     -1.2620      1.7700     78.3900
    359      0.0020      0.8730     -0.6980      0.0100     78.3900
    360      1.5830      1.7140     -0.6860      0.0100     78.3900
    361      0.9760      0.9800     -2.6320      1.7700     78.3900
    362      1.6110      0.0760     -2.5140      0.0100     78.3900
    363     -0.2580      0.5530     -3.2870      1.5900     78.3900
    364     -0.1740      0.8370     -4.6780      1.7700     78.3900
    365     -0.3750     -0.1270     -5.2000      0.0100     78.3900
    366     -1.1730      1.8470     -5.1320      1.6800     78.3900
    367     -1.7640      2.7010     -4.2270      1.7700     78.3900
    368     -1.4720      2.5740     -3.1830      0.0100     78.3900
    369     -2.6700      3.6100     -4.6130      1.7700     78.3900
    370     -3.1620      4.2740     -3.9070      0.0100     78.3900
    371     -1.4870      1.9560     -6.4830      1.7700     78.3900
    372     -0.9260      1.2060     -7.2960      1.5900     78.3900
    373     -2.4060      2.8610     -6.8920      1.6800     78.3900
    374     -2.9950      3.6760     -5.9980      1.7700     78.3900
    375     -3.9090      4.5500     -6.4220      1.6800     78.3900
    376     -4.1140      4.6160     -7.4020      0.0100     78.3900
    377     -4.3990      5.1510     -5.7850      0.0100     78.3900
    378      1.2530      1.2570     -4.9660      1.7700     78.3900
    379      1.3300      1.9700     -5.8120      0.0100     78.3900
    380      2.0450      0.1150     -5.2290      1.5900     78.3900
    381      2.9520      0.4280     -5.3330      0.0100     78.3900
    382      1.6480      1.9210     -3.6490      1.7700     78.3900
    383      1.1350      2.9070     -3.5580      0.0100     78.3900
    384      3.0750      1.9990     -3.3950      1.5900     78.3900
    385      3.8580      3.2830     -3.8810      2.1000     78.3900
    386      3.1210      4.4840     -3.4370      1.5900     78.3900
    387      5.2800      3.1820     -3.4850      1.5900     78.3900
    388      3.7720      3.1890     -5.4490      1.5900     78.3900
    389      4.5640      2.2010     -6.1540      1.7700     78.3900
    390      4.3160      1.1710     -5.8140      0.0100     78.3900
    391      5.6550      2.3520     -5.9740      0.0100     78.3900
    392      4.3300      2.2750     -7.6680      1.7700     78.3900
    393      4.9190      1.5040     -8.2060      0.0100     78.3900
    394      2.9250      2.0410     -7.9670      1.5900     78.3900
    395      2.5250      2.8870     -9.0330      1.7700     78.3900
    396      2.1200      2.2250     -9.8400      0.0100     78.3900
    397      1.4950      3.8360     -8.6010      1.6800     78.3900
    398     -0.1520      5.2880     -8.5930      1.7700     78.3900
    399      0.2120      5.1120     -7.2630      1.6800     78.3900
    400      1.1930      4.2440     -7.3230      1.7700     78.3900
    401      1.7340      3.8420     -6.4650      0.0100     78.3900
    402     -1.1950      6.0670    -10.5710      1.6800     78.3900
    403     -0.3280      5.3030    -11.2420      1.7700     78.3900
    404     -0.4160      5.3340    -12.3350      0.0100     78.3900
    405      0.5970      4.4670    -10.7640      1.6800     78.3900
    406      0.6430      4.5210     -9.4240      1.7700     78.3900
    407     -1.1400      6.0830     -9.2140      1.7700     78.3900
    408     -2.0300      6.8260     -8.5320      1.6800     78.3900
    409     -2.0120      6.8840     -7.5330      0.0100     78.3900
    410     -2.7600      7.3100     -9.0230      0.0100     78.3900
    411      3.7610      3.5940     -9.5430      1.7700     78.3900
    412      3.5510      4.6170     -9.9260      0.0100     78.3900
    413      4.3790      2.8250    -10.5560      1.5900     78.3900
    414      5.2150      3.2690    -10.7410      0.0100     78.3900
    415      4.6260      3.6420     -8.2930      1.7700     78.3900
    416      4.2270      4.3980     -7.5760      0.0100     78.3900
    417      6.0470      3.7830     -8.5400      1.5900     78.3900
    418      6.6250      5.2490     -8.5920      2.1000     78.3900
    419      6.0390      6.0450     -7.4920      1.5900     78.3900
    420      8.0980      5.1860     -8.6360      1.5900     78.3900
    421      6.0750      5.8210     -9.9510      1.5900     78.3900
    422      6.5500      5.3470    -11.2330      1.7700     78.3900
    423      6.3850      4.2530    -11.3420      0.0100     78.3900
    424      7.6440      5.5320    -11.3380      0.0100     78.3900
    425      5.8270      6.0360    -12.4070      1.7700     78.3900
    426      6.1330      5.5850    -13.3760      0.0100     78.3900
    427      4.3840      5.8630    -12.2790      1.5900     78.3900
    428      3.7170      7.0590    -12.6730      1.7700     78.3900
    429      3.0280      6.7690    -13.4980      0.0100     78.3900
    430      2.9130      7.6310    -11.5730      1.6800     78.3900
    431      1.7770      8.3980    -11.6970      1.7700     78.3900
    432     -0.6570      9.9090    -13.6690      1.6800     78.3900
    433     -0.3080      9.7680    -14.5950      0.0100     78.3900
    434     -1.4470     10.5140    -13.5360      0.0100     78.3900
    435      1.2000      8.7770    -12.8530      1.6800     78.3900
    436      0.0650      9.4610    -12.6530      1.7700     78.3900
    437     -0.4110      9.7720    -11.4070      1.6800     78.3900
    438     -1.2530     10.3250    -11.3480      0.0100     78.3900
    439      0.1820      9.4260    -10.1990      1.7700     78.3900
    440     -0.3150      9.7620     -9.1180      1.5900     78.3900
    441      1.3740      8.6750    -10.4020      1.7700     78.3900
    442      2.2430      8.1010     -9.4810      1.6800     78.3900
    443      3.1380      7.4920    -10.2220      1.7700     78.3900
    444      3.9890      6.9220     -9.8430      0.0100     78.3900
    445      4.7620      8.0240    -13.2100      1.7700     78.3900
    446      4.5380      9.0820    -12.9450      0.0100     78.3900
    447      4.8730      7.8940    -14.6170      1.5900     78.3900
    448      5.6880      8.3460    -14.8900      0.0100     78.3900
    449      6.0290      7.5530    -12.5000      1.7700     78.3900
    450      5.9840      7.9200    -11.4460      0.0100     78.3900
    451      7.2700      7.8750    -13.1990      1.5900     78.3900
    452      8.3760      8.6370    -12.3610      2.1000     78.3900
    453      7.7130      9.6860    -11.5530      1.5900     78.3900
    454      9.1910      7.6490    -11.6280      1.5900     78.3900
    455      9.2830      9.2990    -13.4760      1.5900     78.3900
    456     10.7240      9.4220    -13.2780      1.7700     78.3900
    457     11.2540      8.8830    -14.0920      0.0100     78.3900
    458     11.0840      8.9680    -12.3220      0.0100     78.3900
    459     11.1910     10.8890    -13.2760      1.7700     78.3900
    460     10.9780     11.3690    -14.2540      0.0100     78.3900
    461     10.4510     11.6280    -12.2630      1.5900     78.3900
    462     11.3220     12.5190    -11.5780      1.7700     78.3900
    463     10.8400     13.5220    -11.6440      0.0100     78.3900
    464     11.5030     12.1630    -10.1340      1.6800     78.3900
    465     11.0410     10.9550     -9.6490      1.7700     78.3900
    466     10.5270     10.3050    -10.3630      0.0100     78.3900
    467     11.1810     10.6220     -8.3590      1.7700     78.3900
    468     10.7920      9.6910     -7.9540      0.0100     78.3900
    469     12.1630     13.0380     -9.2720      1.7700     78.3900
    470     12.6050     14.1100     -9.7130      1.5900     78.3900
    471     12.3090     12.7170     -7.9670      1.6800     78.3900
    472     11.8210     11.5560     -7.4960      1.7700     78.3900
    473     11.9400     11.2780     -6.1990      1.6800     78.3900
    474     12.3090     11.9710     -5.5750      0.0100     78.3900
    475     11.5360     10.4510     -5.8070      0.0100     78.3900
    476     12.6300     12.5420    -12.3500      1.7700     78.3900
    477     13.5090     12.7340    -11.7030      0.0100     78.3900
    478     12.5780     13.5130    -13.3760      1.5900     78.3900
    479     13.3510     13.3730    -13.9410      0.0100     78.3900
    480     12.6700     11.1310    -12.9220      1.7700     78.3900
    481     12.9100     10.4130    -12.1030      0.0100     78.3900
    482     13.5080     10.9860    -14.0960      1.5900     78.3900
    483     14.8750     10.2130    -13.9810      2.1000     78.3900
    484     14.7690      9.1640    -12.9420      1.5900     78.3900
    485     15.3290      9.7590    -15.3180      1.5900     78.3900
    486     15.8880     11.2850    -13.4280      1.5900     78.3900
    487     16.2040     12.4740    -14.1880      1.7700     78.3900
    488     15.2920     12.9390    -14.6300      0.0100     78.3900
    489     16.8890     12.2120    -15.0230      0.0100     78.3900
    490     16.8950     13.5390    -13.3190      1.7700     78.3900
    491     17.1630     14.4320    -13.9270      0.0100     78.3900
    492     15.9770     13.9860    -12.2780      1.5900     78.3900
    493     16.7020     14.2120    -11.0740      1.7700     78.3900
    494     16.4780     15.2630    -10.7810      0.0100     78.3900
    495     16.2890     13.3040     -9.9620      1.6800     78.3900
    496     15.6370     12.1270    -10.2480      1.7700     78.3900
    497     15.4300     11.9420    -11.3010      0.0100     78.3900
    498     15.2390     11.2900     -9.2830      1.7700     78.3900
    499     14.6880     10.3780     -9.4980      0.0100     78.3900
    500     16.6180     13.5990     -8.6400      1.7700     78.3900
    501     17.2830     14.6130     -8.3910      1.5900     78.3900
    502     16.2100     12.7750     -7.6460      1.6800     78.3900
    503     15.5320     11.6490     -7.9370      1.7700     78.3900
    504     15.1330     10.8540     -6.9480      1.6800     78.3900
    505     15.3670     11.0780     -5.9990      0.0100     78.3900
    506     14.6860      9.9770     -7.1280      0.0100     78.3900
    507     18.1780     14.0980    -11.4130      1.7700     78.3900
    508     18.7800     13.7360    -10.5570      0.0100     78.3900
    509     18.6710     15.3550    -11.8360      1.5900     78.3900
    510     19.5890     15.2260    -12.1070      0.0100     78.3900
    511     18.1520     13.0880    -12.5570      1.7700     78.3900
    512     17.9370     12.0670    -12.1620      0.0100     78.3900
    513     19.2980     13.1280    -13.4370      1.5900     78.3900
    514     20.4870     12.1200    -13.2230      2.1000     78.3900
    515     19.9530     10.7750    -12.9290      1.5900     78.3900
    516     21.4370     12.2090    -14.3560      1.5900     78.3900
    517     21.1780     12.6670    -11.9210      1.5900     78.3900
    518     21.8740     13.9330    -11.9210      1.7700     78.3900
    519     21.2150     14.7630    -12.2580      0.0100     78.3900
    520     22.7430     13.8910    -12.6170      0.0100     78.3900
    521     22.4020     14.2700    -10.5180      1.7700     78.3900
    522     22.9980     15.2070    -10.5320      0.0100     78.3900
    523     21.2890     14.4830     -9.5950      1.5900     78.3900
    524     21.6270     13.9310     -8.3240      1.7700     78.3900
    525     21.5220     14.7700     -7.5950      0.0100     78.3900
    526     20.7210     12.8100     -7.9400      1.6800     78.3900
    527     19.9950     12.1250     -8.8870      1.7700     78.3900
    528     20.1570     12.4460     -9.9140      0.0100     78.3900
    529     20.6360     12.4670     -6.6100      1.7700     78.3900
    530     21.2930     13.0290     -5.7400      1.5900     78.3900
    531     19.7640     11.4450     -6.3300      1.6800     78.3900
    532     19.7080     11.1770     -5.3540      0.0100     78.3900
    533     18.9930     10.7290     -7.2220      1.7700     78.3900
    534     18.2600      9.8270     -6.8220      1.5900     78.3900
    535     19.1430     11.1370     -8.5860      1.7700     78.3900
    536     18.5800     10.6150     -9.3570      0.0100     78.3900
    537     23.0870     13.5060     -8.3830      1.7700     78.3900
    538     23.2920     12.6160     -7.7480      0.0100     78.3900
    539     23.9240     14.5810     -7.9840      1.5900     78.3900
    540     24.8490     14.3500     -8.1750      0.0100     78.3900
    541     23.2460     13.1710     -9.8600      1.7700     78.3900
    542     22.7750     12.1880    -10.0820      0.0100     78.3900
    543     24.6060     13.2080    -10.3320      1.5900     78.3900
    544     25.1250     12.4990     -9.9100      0.0100     78.3900

     ----------------------------
     INPUT FOR TESSERA DEFINITION
     ----------------------------
     NTSALL  =        60     MTHALL  =         4
     MTHAUT  =         0     AUTFRE  =    2.0000
     NTSFRZ  =        60     KEEPSM  =         0
     AREAKP  =   10.0000     BONDRY  =    1.0000
     AREATL  =    0.0100

     SPHERE     INITS       METHOD
          1        60       FIXPVA
          2        60       FIXPVA
          3        60       FIXPVA
          4        60       FIXPVA
          5        60       FIXPVA
          6        60       FIXPVA
          7        60       FIXPVA
          8        60       FIXPVA
          9        60       FIXPVA
         10        60       FIXPVA
         11        60       FIXPVA
         12        60       FIXPVA
         13        60       FIXPVA
         14        60       FIXPVA
         15        60       FIXPVA
         16        60       FIXPVA
         17        60       FIXPVA
         18        60       FIXPVA
         19        60       FIXPVA
         20        60       FIXPVA
         21        60       FIXPVA
         22        60       FIXPVA
         23        60       FIXPVA
         24        60       FIXPVA
         25        60       FIXPVA
         26        60       FIXPVA
         27        60       FIXPVA
         28        60       FIXPVA
         29        60       FIXPVA
         30        60       FIXPVA
         31        60       FIXPVA
         32        60       FIXPVA
         33        60       FIXPVA
         34        60       FIXPVA
         35        60       FIXPVA
         36        60       FIXPVA
         37        60       FIXPVA
         38        60       FIXPVA
         39        60       FIXPVA
         40        60       FIXPVA
         41        60       FIXPVA
         42        60       FIXPVA
         43        60       FIXPVA
         44        60       FIXPVA
         45        60       FIXPVA
         46        60       FIXPVA
         47        60       FIXPVA
         48        60       FIXPVA
         49        60       FIXPVA
         50        60       FIXPVA
         51        60       FIXPVA
         52        60       FIXPVA
         53        60       FIXPVA
         54        60       FIXPVA
         55        60       FIXPVA
         56        60       FIXPVA
         57        60       FIXPVA
         58        60       FIXPVA
         59        60       FIXPVA
         60        60       FIXPVA
         61        60       FIXPVA
         62        60       FIXPVA
         63        60       FIXPVA
         64        60       FIXPVA
         65        60       FIXPVA
         66        60       FIXPVA
         67        60       FIXPVA
         68        60       FIXPVA
         69        60       FIXPVA
         70        60       FIXPVA
         71        60       FIXPVA
         72        60       FIXPVA
         73        60       FIXPVA
         74        60       FIXPVA
         75        60       FIXPVA
         76        60       FIXPVA
         77        60       FIXPVA
         78        60       FIXPVA
         79        60       FIXPVA
         80        60       FIXPVA
         81        60       FIXPVA
         82        60       FIXPVA
         83        60       FIXPVA
         84        60       FIXPVA
         85        60       FIXPVA
         86        60       FIXPVA
         87        60       FIXPVA
         88        60       FIXPVA
         89        60       FIXPVA
         90        60       FIXPVA
         91        60       FIXPVA
         92        60       FIXPVA
         93        60       FIXPVA
         94        60       FIXPVA
         95        60       FIXPVA
         96        60       FIXPVA
         97        60       FIXPVA
         98        60       FIXPVA
         99        60       FIXPVA
        100        60       FIXPVA
        101        60       FIXPVA
        102        60       FIXPVA
        103        60       FIXPVA
        104        60       FIXPVA
        105        60       FIXPVA
        106        60       FIXPVA
        107        60       FIXPVA
        108        60       FIXPVA
        109        60       FIXPVA
        110        60       FIXPVA
        111        60       FIXPVA
        112        60       FIXPVA
        113        60       FIXPVA
        114        60       FIXPVA
        115        60       FIXPVA
        116        60       FIXPVA
        117        60       FIXPVA
        118        60       FIXPVA
        119        60       FIXPVA
        120        60       FIXPVA
        121        60       FIXPVA
        122        60       FIXPVA
        123        60       FIXPVA
        124        60       FIXPVA
        125        60       FIXPVA
        126        60       FIXPVA
        127        60       FIXPVA
        128        60       FIXPVA
        129        60       FIXPVA
        130        60       FIXPVA
        131        60       FIXPVA
        132        60       FIXPVA
        133        60       FIXPVA
        134        60       FIXPVA
        135        60       FIXPVA
        136        60       FIXPVA
        137        60       FIXPVA
        138        60       FIXPVA
        139        60       FIXPVA
        140        60       FIXPVA
        141        60       FIXPVA
        142        60       FIXPVA
        143        60       FIXPVA
        144        60       FIXPVA
        145        60       FIXPVA
        146        60       FIXPVA
        147        60       FIXPVA
        148        60       FIXPVA
        149        60       FIXPVA
        150        60       FIXPVA
        151        60       FIXPVA
        152        60       FIXPVA
        153        60       FIXPVA
        154        60       FIXPVA
        155        60       FIXPVA
        156        60       FIXPVA
        157        60       FIXPVA
        158        60       FIXPVA
        159        60       FIXPVA
        160        60       FIXPVA
        161        60       FIXPVA
        162        60       FIXPVA
        163        60       FIXPVA
        164        60       FIXPVA
        165        60       FIXPVA
        166        60       FIXPVA
        167        60       FIXPVA
        168        60       FIXPVA
        169        60       FIXPVA
        170        60       FIXPVA
        171        60       FIXPVA
        172        60       FIXPVA
        173        60       FIXPVA
        174        60       FIXPVA
        175        60       FIXPVA
        176        60       FIXPVA
        177        60       FIXPVA
        178        60       FIXPVA
        179        60       FIXPVA
        180        60       FIXPVA
        181        60       FIXPVA
        182        60       FIXPVA
        183        60       FIXPVA
        184        60       FIXPVA
        185        60       FIXPVA
        186        60       FIXPVA
        187        60       FIXPVA
        188        60       FIXPVA
        189        60       FIXPVA
        190        60       FIXPVA
        191        60       FIXPVA
        192        60       FIXPVA
        193        60       FIXPVA
        194        60       FIXPVA
        195        60       FIXPVA
        196        60       FIXPVA
        197        60       FIXPVA
        198        60       FIXPVA
        199        60       FIXPVA
        200        60       FIXPVA
        201        60       FIXPVA
        202        60       FIXPVA
        203        60       FIXPVA
        204        60       FIXPVA
        205        60       FIXPVA
        206        60       FIXPVA
        207        60       FIXPVA
        208        60       FIXPVA
        209        60       FIXPVA
        210        60       FIXPVA
        211        60       FIXPVA
        212        60       FIXPVA
        213        60       FIXPVA
        214        60       FIXPVA
        215        60       FIXPVA
        216        60       FIXPVA
        217        60       FIXPVA
        218        60       FIXPVA
        219        60       FIXPVA
        220        60       FIXPVA
        221        60       FIXPVA
        222        60       FIXPVA
        223        60       FIXPVA
        224        60       FIXPVA
        225        60       FIXPVA
        226        60       FIXPVA
        227        60       FIXPVA
        228        60       FIXPVA
        229        60       FIXPVA
        230        60       FIXPVA
        231        60       FIXPVA
        232        60       FIXPVA
        233        60       FIXPVA
        234        60       FIXPVA
        235        60       FIXPVA
        236        60       FIXPVA
        237        60       FIXPVA
        238        60       FIXPVA
        239        60       FIXPVA
        240        60       FIXPVA
        241        60       FIXPVA
        242        60       FIXPVA
        243        60       FIXPVA
        244        60       FIXPVA
        245        60       FIXPVA
        246        60       FIXPVA
        247        60       FIXPVA
        248        60       FIXPVA
        249        60       FIXPVA
        250        60       FIXPVA
        251        60       FIXPVA
        252        60       FIXPVA
        253        60       FIXPVA
        254        60       FIXPVA
        255        60       FIXPVA
        256        60       FIXPVA
        257        60       FIXPVA
        258        60       FIXPVA
        259        60       FIXPVA
        260        60       FIXPVA
        261        60       FIXPVA
        262        60       FIXPVA
        263        60       FIXPVA
        264        60       FIXPVA
        265        60       FIXPVA
        266        60       FIXPVA
        267        60       FIXPVA
        268        60       FIXPVA
        269        60       FIXPVA
        270        60       FIXPVA
        271        60       FIXPVA
        272        60       FIXPVA
        273        60       FIXPVA
        274        60       FIXPVA
        275        60       FIXPVA
        276        60       FIXPVA
        277        60       FIXPVA
        278        60       FIXPVA
        279        60       FIXPVA
        280        60       FIXPVA
        281        60       FIXPVA
        282        60       FIXPVA
        283        60       FIXPVA
        284        60       FIXPVA
        285        60       FIXPVA
        286        60       FIXPVA
        287        60       FIXPVA
        288        60       FIXPVA
        289        60       FIXPVA
        290        60       FIXPVA
        291        60       FIXPVA
        292        60       FIXPVA
        293        60       FIXPVA
        294        60       FIXPVA
        295        60       FIXPVA
        296        60       FIXPVA
        297        60       FIXPVA
        298        60       FIXPVA
        299        60       FIXPVA
        300        60       FIXPVA
        301        60       FIXPVA
        302        60       FIXPVA
        303        60       FIXPVA
        304        60       FIXPVA
        305        60       FIXPVA
        306        60       FIXPVA
        307        60       FIXPVA
        308        60       FIXPVA
        309        60       FIXPVA
        310        60       FIXPVA
        311        60       FIXPVA
        312        60       FIXPVA
        313        60       FIXPVA
        314        60       FIXPVA
        315        60       FIXPVA
        316        60       FIXPVA
        317        60       FIXPVA
        318        60       FIXPVA
        319        60       FIXPVA
        320        60       FIXPVA
        321        60       FIXPVA
        322        60       FIXPVA
        323        60       FIXPVA
        324        60       FIXPVA
        325        60       FIXPVA
        326        60       FIXPVA
        327        60       FIXPVA
        328        60       FIXPVA
        329        60       FIXPVA
        330        60       FIXPVA
        331        60       FIXPVA
        332        60       FIXPVA
        333        60       FIXPVA
        334        60       FIXPVA
        335        60       FIXPVA
        336        60       FIXPVA
        337        60       FIXPVA
        338        60       FIXPVA
        339        60       FIXPVA
        340        60       FIXPVA
        341        60       FIXPVA
        342        60       FIXPVA
        343        60       FIXPVA
        344        60       FIXPVA
        345        60       FIXPVA
        346        60       FIXPVA
        347        60       FIXPVA
        348        60       FIXPVA
        349        60       FIXPVA
        350        60       FIXPVA
        351        60       FIXPVA
        352        60       FIXPVA
        353        60       FIXPVA
        354        60       FIXPVA
        355        60       FIXPVA
        356        60       FIXPVA
        357        60       FIXPVA
        358        60       FIXPVA
        359        60       FIXPVA
        360        60       FIXPVA
        361        60       FIXPVA
        362        60       FIXPVA
        363        60       FIXPVA
        364        60       FIXPVA
        365        60       FIXPVA
        366        60       FIXPVA
        367        60       FIXPVA
        368        60       FIXPVA
        369        60       FIXPVA
        370        60       FIXPVA
        371        60       FIXPVA
        372        60       FIXPVA
        373        60       FIXPVA
        374        60       FIXPVA
        375        60       FIXPVA
        376        60       FIXPVA
        377        60       FIXPVA
        378        60       FIXPVA
        379        60       FIXPVA
        380        60       FIXPVA
        381        60       FIXPVA
        382        60       FIXPVA
        383        60       FIXPVA
        384        60       FIXPVA
        385        60       FIXPVA
        386        60       FIXPVA
        387        60       FIXPVA
        388        60       FIXPVA
        389        60       FIXPVA
        390        60       FIXPVA
        391        60       FIXPVA
        392        60       FIXPVA
        393        60       FIXPVA
        394        60       FIXPVA
        395        60       FIXPVA
        396        60       FIXPVA
        397        60       FIXPVA
        398        60       FIXPVA
        399        60       FIXPVA
        400        60       FIXPVA
        401        60       FIXPVA
        402        60       FIXPVA
        403        60       FIXPVA
        404        60       FIXPVA
        405        60       FIXPVA
        406        60       FIXPVA
        407        60       FIXPVA
        408        60       FIXPVA
        409        60       FIXPVA
        410        60       FIXPVA
        411        60       FIXPVA
        412        60       FIXPVA
        413        60       FIXPVA
        414        60       FIXPVA
        415        60       FIXPVA
        416        60       FIXPVA
        417        60       FIXPVA
        418        60       FIXPVA
        419        60       FIXPVA
        420        60       FIXPVA
        421        60       FIXPVA
        422        60       FIXPVA
        423        60       FIXPVA
        424        60       FIXPVA
        425        60       FIXPVA
        426        60       FIXPVA
        427        60       FIXPVA
        428        60       FIXPVA
        429        60       FIXPVA
        430        60       FIXPVA
        431        60       FIXPVA
        432        60       FIXPVA
        433        60       FIXPVA
        434        60       FIXPVA
        435        60       FIXPVA
        436        60       FIXPVA
        437        60       FIXPVA
        438        60       FIXPVA
        439        60       FIXPVA
        440        60       FIXPVA
        441        60       FIXPVA
        442        60       FIXPVA
        443        60       FIXPVA
        444        60       FIXPVA
        445        60       FIXPVA
        446        60       FIXPVA
        447        60       FIXPVA
        448        60       FIXPVA
        449        60       FIXPVA
        450        60       FIXPVA
        451        60       FIXPVA
        452        60       FIXPVA
        453        60       FIXPVA
        454        60       FIXPVA
        455        60       FIXPVA
        456        60       FIXPVA
        457        60       FIXPVA
        458        60       FIXPVA
        459        60       FIXPVA
        460        60       FIXPVA
        461        60       FIXPVA
        462        60       FIXPVA
        463        60       FIXPVA
        464        60       FIXPVA
        465        60       FIXPVA
        466        60       FIXPVA
        467        60       FIXPVA
        468        60       FIXPVA
        469        60       FIXPVA
        470        60       FIXPVA
        471        60       FIXPVA
        472        60       FIXPVA
        473        60       FIXPVA
        474        60       FIXPVA
        475        60       FIXPVA
        476        60       FIXPVA
        477        60       FIXPVA
        478        60       FIXPVA
        479        60       FIXPVA
        480        60       FIXPVA
        481        60       FIXPVA
        482        60       FIXPVA
        483        60       FIXPVA
        484        60       FIXPVA
        485        60       FIXPVA
        486        60       FIXPVA
        487        60       FIXPVA
        488        60       FIXPVA
        489        60       FIXPVA
        490        60       FIXPVA
        491        60       FIXPVA
        492        60       FIXPVA
        493        60       FIXPVA
        494        60       FIXPVA
        495        60       FIXPVA
        496        60       FIXPVA
        497        60       FIXPVA
        498        60       FIXPVA
        499        60       FIXPVA
        500        60       FIXPVA
        501        60       FIXPVA
        502        60       FIXPVA
        503        60       FIXPVA
        504        60       FIXPVA
        505        60       FIXPVA
        506        60       FIXPVA
        507        60       FIXPVA
        508        60       FIXPVA
        509        60       FIXPVA
        510        60       FIXPVA
        511        60       FIXPVA
        512        60       FIXPVA
        513        60       FIXPVA
        514        60       FIXPVA
        515        60       FIXPVA
        516        60       FIXPVA
        517        60       FIXPVA
        518        60       FIXPVA
        519        60       FIXPVA
        520        60       FIXPVA
        521        60       FIXPVA
        522        60       FIXPVA
        523        60       FIXPVA
        524        60       FIXPVA
        525        60       FIXPVA
        526        60       FIXPVA
        527        60       FIXPVA
        528        60       FIXPVA
        529        60       FIXPVA
        530        60       FIXPVA
        531        60       FIXPVA
        532        60       FIXPVA
        533        60       FIXPVA
        534        60       FIXPVA
        535        60       FIXPVA
        536        60       FIXPVA
        537        60       FIXPVA
        538        60       FIXPVA
        539        60       FIXPVA
        540        60       FIXPVA
        541        60       FIXPVA
        542        60       FIXPVA
        543        60       FIXPVA
        544        60       FIXPVA

     ------------------------------
      FIXPVA TESSELLATION FOR PCM
         PEIFENG SU AND HUI LI
     UNIVERSITY OF NEBRASKA-LINCOLN
     ------------------------------


 PCM DIMENSIONS: MXSP=   544, MXTS=     21760, MEMORY=        223587

     INPUT FOR CAVITY DEFINITION 
     ---------------------------
   ATOM               COORDINATES                RADIUS       EPS
      1     16.8310      7.6340      3.9830      0.0100     78.3900
      2     17.3460      8.2950      3.4860      1.5900     78.3900
      3     18.3470      8.7980      4.3860      1.7700     78.3900
      4     18.9780      7.9470      4.7310      0.0100     78.3900
      5     17.8490      9.2480      5.2780      0.0100     78.3900
      6     19.2600      9.8490      3.7460      1.7700     78.3900
      7     20.0030     10.2330      4.4780      0.0100     78.3900
      8     20.0030      9.2630      2.6320      1.5900     78.3900
      9     20.1150     10.2200      1.5890      1.7700     78.3900
     10     21.2020     10.3400      1.3770      0.0100     78.3900
     11     19.4390      9.7650      0.3660      1.6800     78.3900
     12     18.8160      9.4760     -1.7260      1.7700     78.3900
     13     18.1240      8.5280     -0.9810      1.6800     78.3900
     14     18.5280      8.7430      0.2490      1.7700     78.3900
     15     18.1990      8.1820      1.1270      0.0100     78.3900
     16     19.6560     10.7670     -3.5270      1.6800     78.3900
     17     20.3700     11.4340     -2.6110      1.7700     78.3900
     18     21.0000     12.2410     -3.0020      0.0100     78.3900
     19     20.4320     11.2510     -1.2870      1.6800     78.3900
     20     19.6240     10.2470     -0.9070      1.7700     78.3900
     21     18.8550      9.7520     -3.1100      1.7700     78.3900
     22     18.1590      9.0410     -4.0210      1.6800     78.3900
     23     17.5670      8.2810     -3.7420      0.0100     78.3900
     24     18.1680      9.3000     -4.9900      0.0100     78.3900
     25     19.5600     11.5240      2.1140      1.7700     78.3900
     26     19.0980     12.1420      1.3210      0.0100     78.3900
     27     20.5890     12.2560      2.7480      1.5900     78.3900
     28     20.1800     13.0580      3.0950      0.0100     78.3900
     29     18.5240     11.0400      3.1240      1.7700     78.3900
     30     17.6360     10.6180      2.5950      0.0100     78.3900
     31     18.1760     11.9970      4.1560      1.5900     78.3900
     32     16.9510     12.9530      3.8780      2.1000     78.3900
     33     15.7880     12.1580      3.4230      1.5900     78.3900
     34     16.7350     13.7920      5.0790      1.5900     78.3900
     35     17.4570     13.8710      2.7030      1.5900     78.3900
     36     18.4780     14.8620      2.9850      1.7700     78.3900
     37     19.3710     14.4010      3.4600      0.0100     78.3900
     38     18.0900     15.6370      3.6840      0.0100     78.3900
     39     18.9390     15.5700      1.7050      1.7700     78.3900
     40     19.7750     16.2720      1.9250      0.0100     78.3900
     41     19.4230     14.5960      0.7420      1.5900     78.3900
     42     19.0340     14.9970     -0.5630      1.7700     78.3900
[...]
   492   16   8.0   3.35    7.3    0.044860   -0.731031   -0.738618
   493   16   6.0   4.72    8.3   -0.043436    0.430429    0.431440
   494   16   1.0   0.00    0.0    0.000000    0.252271    0.249595
   495   16   7.0   0.00    0.0    0.000000   -0.828320   -0.842417
   496   16   6.0   2.13    3.8    0.005156    0.184975    0.169843
   497   16   1.0   0.00    0.0    0.000000    0.307922    0.329027
   498   16   6.0   7.39   13.0   -0.036526   -0.413195   -0.423664
   499   16   1.0   0.00    0.0    0.000000    0.270371    0.273629
   500   16   6.0   0.00    0.0    0.000000    1.066647    1.098726
   501   16   8.0   5.38   11.8    0.096122   -0.785033   -0.766077
   502   16   7.0   0.00    0.0    0.000000   -0.877447   -0.875784
   503   16   6.0   0.00    0.0    0.000162    0.758446    0.772859
   504   16   7.0   9.73   19.1   -0.103045   -0.942685   -1.006123
   505   16   1.0   0.00    0.0    0.000000    0.465464    0.510912
   506   16   1.0   0.00    0.0    0.000000    0.442936    0.439726
   507   16   6.0   0.03    0.1    0.002349    0.142301    0.106428
   508   16   1.0   0.00    0.0    0.000000    0.186574    0.223108
   509   16   8.0  15.70   34.3    0.096151   -0.824913   -0.844161
   510   16   1.0   0.00    0.0    0.000000    0.499177    0.526099
   511   16   6.0   0.95    1.7   -0.017806    0.143716    0.111454
   512   16   1.0   0.00    0.0    0.000000    0.245063    0.247269
   513   16   8.0   3.81    8.3    0.053140   -0.794584   -0.801095
   514   16  15.0   9.00   11.3    0.153774    1.603387    1.655572
   515   16   8.0  12.78   27.9    0.301018   -0.892910   -0.891258
   516   16   8.0  16.02   35.0    0.331009   -0.891967   -0.887554
   517   16   8.0   0.73    1.6    0.013941   -0.975056   -0.787086
   518   17   6.0  12.77   22.5   -0.091979    0.207814   -0.030882
   519   17   1.0   0.00    0.0    0.000000    0.156324    0.177705
   520   17   1.0   0.00    0.0    0.000000    0.243458    0.227125
   521   17   6.0   5.74   10.1   -0.045959    0.085431    0.148001
   522   17   1.0   0.00    0.0    0.000000    0.255006    0.227809
   523   17   8.0   4.13    9.0    0.049933   -0.727939   -0.736123
   524   17   6.0   4.41    7.8   -0.045734    0.415329    0.414446
   525   17   1.0   0.00    0.0    0.000000    0.262368    0.258362
   526   17   7.0   0.80    1.6   -0.006070   -0.828626   -0.835923
   527   17   6.0   2.77    4.9   -0.002962    0.200188    0.186374
   528   17   1.0   0.00    0.0    0.000000    0.308539    0.330753
   529   17   6.0   2.25    4.0   -0.008824    1.119920    1.125261
   530   17   8.0  11.84   25.9    0.160361   -0.685188   -0.694735
   531   17   7.0   2.88    5.6    0.003697   -0.938378   -1.020797
   532   17   1.0   0.00    0.0    0.000000    0.483534    0.543059
   533   17   6.0   2.43    4.3   -0.006876    0.893966    0.900335
   534   17   8.0   9.50   20.8    0.134381   -0.729572   -0.716498
   535   17   6.0   6.92   12.2   -0.016159   -0.459833   -0.464520
   536   17   1.0   0.00    0.0    0.000000    0.266379    0.264512
   537   17   6.0   6.35   11.2   -0.061183    0.115030    0.115797
   538   17   1.0   0.00    0.0    0.000000    0.230403    0.229309
   539   17   8.0  20.61   45.1    0.040228   -0.837903   -0.839603
   540   17   1.0   0.00    0.0    0.000000    0.502943    0.503341
   541   17   6.0   4.25    7.5   -0.046726    0.162822    0.146807
   542   17   1.0   0.00    0.0    0.000000    0.223942    0.225707
   543   17   8.0  22.87   50.0   -0.015041   -0.851672   -0.855033
   544   17   1.0   0.00    0.0    0.000000    0.509782    0.509308

 Done with FMO properties.
 CPU     0: STEP CPU TIME=     0.00 TOTAL CPU TIME=      25265.4 (    421.1 MIN)
 TOTAL WALL CLOCK TIME=      56476.6 SECONDS, CPU UTILIZATION IS    44.74%
 CPU     0: STEP CPU TIME=     0.00 TOTAL CPU TIME=      25265.4 (    421.1 MIN)
 TOTAL WALL CLOCK TIME=      56476.7 SECONDS, CPU UTILIZATION IS    44.74%

 Total timing statistics in pairs (CPU,wall) for each rank, sec

    Rank   total     SCF    corr     DFT    CPHF     EFP    solv     ESP    geom
 -------------------------------------------------------------------------------
       1   25265.4   7505.6   9374.3      0.0    0.0   0.0  380.2  7169.7    0.0
       1   56476.8  16024.9  23191.7      0.0    0.0   0.0  975.1 14388.5    0.0
       2   25550.2   7413.9   9740.5      0.0    0.0   0.0  383.3  7190.4    0.0
       2   56476.8  16018.0  23191.2      0.0    0.0   0.0  975.2 14387.4    0.0
       3   25218.8   7478.3   9471.9      0.0    0.0   0.0  386.7  7060.6    0.0
       3   56476.8  16017.4  23191.2      0.0    0.0   0.0  975.9 14387.5    0.0
       4   25509.4   7477.2   9779.2      0.0    0.0   0.0  383.8  7046.2    0.0
       4   56476.8  16018.7  23191.1      0.0    0.0   0.0  974.2 14387.2    0.0
       5   25696.7   7483.6   9805.9      0.0    0.0   0.0  383.6  7202.5    0.0
       5   56476.8  16018.7  23191.1      0.0    0.0   0.0  975.1 14387.6    0.0
       6   25674.8   7457.8   9686.0      0.0    0.0   0.0  382.6  7323.5    0.0
       6   56476.9  16019.8  23191.0      0.0    0.0   0.0  973.3 14387.3    0.0
       7   25133.6   7466.9   9385.9      0.0    0.0   0.0  381.4  7121.3    0.0
       7   56476.8  16019.3  23191.1      0.0    0.0   0.0  973.8 14387.3    0.0
       8   24592.4   7380.4   8990.8      0.0    0.0   0.0  384.6  7007.0    0.0
       8   56476.8  16019.9  23191.0      0.0    0.0   0.0  972.3 14387.1    0.0
       9   24993.6   7447.3   9256.1      0.0    0.0   0.0  373.8  7132.2    0.0
       9   56476.9  16020.6  23191.1      0.0    0.0   0.0  972.7 14387.7    0.0
      10   24833.0   7386.3   9186.4      0.0    0.0   0.0  376.1  7078.3    0.0
      10   56476.9  16020.3  23191.1      0.0    0.0   0.0  972.5 14387.3    0.0
      11   25087.6   7448.1   9370.5      0.0    0.0   0.0  374.7  7081.1    0.0
      11   56476.8  16021.1  23191.1      0.0    0.0   0.0  972.1 14387.4    0.0
      12   25400.2   7512.5   9684.4      0.0    0.0   0.0  375.0  7039.9    0.0
      12   56476.8  16020.9  23191.0      0.0    0.0   0.0  971.1 14387.2    0.0
      13   25230.5   7455.5   9645.9      0.0    0.0   0.0  371.2  6971.6    0.0
      13   56476.9  16022.3  23191.0      0.0    0.0   0.0  971.2 14387.5    0.0
      14   25512.1   7513.0   9739.9      0.0    0.0   0.0  374.8  7085.0    0.0
      14   56476.9  16021.6  23191.0      0.0    0.0   0.0  971.0 14387.2    0.0
      15   25486.2   7438.7   9879.4      0.0    0.0   0.0  374.0  7000.1    0.0
      15   56476.8  16022.0  23191.0      0.0    0.0   0.0  970.6 14387.1    0.0
      16   24883.1   7362.6   9590.0      0.0    0.0   0.0  376.3  6764.3    0.0
      16   56476.8  16022.5  23191.0      0.0    0.0   0.0  969.3 14387.0    0.0
averaged   25254.2   7451.7   9536.7      0.0    0.0   0.0  378.9  7079.6    0.0
averaged   56476.8  16020.5  23191.1      0.0    0.0   0.0  972.8 14387.4    0.0

  FMO  timing statistics in pairs (CPU,wall) for each rank, sec

    Rank  FMOini FMOscf1  FMOdm1 FMOsyn1 FMOscf2  FMOes2 FMOsyn2 FMOscf3 FMOsyn3
 -------------------------------------------------------------------------------
       1    3.5    9955.6    0.5    0.0   14698.1     607.7    0.0    0.0    0.0
       1    8.7   20789.4    0.9    0.0   34475.1    1202.3    0.0    0.0    0.0
       2    2.6    9911.5    0.1    0.0   15038.4     597.5    0.0    0.0    0.0
       2    8.7   20789.4    0.9    0.0   34478.0    1199.4    0.0    0.0    0.0
       3    2.9    9868.2    0.2    0.0   14752.8     594.6    0.0    0.0    0.0
       3    8.7   20789.4    0.9    0.0   34478.1    1199.3    0.0    0.0    0.0
       4    2.6    9834.3    0.1    0.0   15073.8     598.6    0.0    0.0    0.0
       4    8.7   20789.4    0.9    0.0   34478.8    1198.6    0.0    0.0    0.0
       5    3.1   10017.2    0.3    0.0   15081.3     594.8    0.0    0.0    0.0
       5    8.7   20789.4    0.9    0.0   34478.7    1198.7    0.0    0.0    0.0
       6    2.7    9933.7    0.1    0.0   15137.3     601.0    0.0    0.0    0.0
       6    8.7   20789.4    0.9    0.0   34477.7    1199.7    0.0    0.0    0.0
       7    2.8    9944.8    0.2    0.0   14630.3     555.4    0.0    0.0    0.0
       7    8.7   20789.4    0.9    0.0   34480.2    1197.1    0.0    0.0    0.0
       8    2.4    9788.5    0.2    0.0   14195.1     606.3    0.0    0.0    0.0
       8    8.7   20789.4    0.9    0.0   34479.7    1197.7    0.0    0.0    0.0
       9    3.0    9866.2    0.4    0.0   14558.9     565.0    0.0    0.0    0.0
       9    8.7   20789.4    0.9    0.0   34479.1    1198.3    0.0    0.0    0.0
      10    2.4    9856.1    0.1    0.0   14387.8     586.6    0.0    0.0    0.0
      10    8.7   20789.4    0.9    0.0   34480.2    1197.2    0.0    0.0    0.0
      11    2.6    9821.9    0.2    0.0   14668.6     594.3    0.0    0.0    0.0
      11    8.7   20789.4    0.9    0.0   34480.9    1196.5    0.0    0.0    0.0
      12    2.3    9855.8    0.1    0.0   14970.8     571.2    0.0    0.0    0.0
      12    8.7   20789.4    0.9    0.0   34481.1    1196.3    0.0    0.0    0.0
      13    2.8    9746.7    0.3    0.0   14911.8     568.8    0.0    0.0    0.0
      13    8.7   20789.4    0.9    0.0   34477.6    1199.8    0.0    0.0    0.0
      14    2.3    9848.8    0.1    0.0   15076.9     583.9    0.0    0.0    0.0
      14    8.7   20789.4    0.9    0.0   34479.0    1198.4    0.0    0.0    0.0
      15    2.6    9807.7    0.2    0.0   15098.3     577.3    0.0    0.0    0.0
      15    8.7   20789.4    0.9    0.0   34479.6    1197.7    0.0    0.0    0.0
      16    2.4    9543.9    0.1    0.0   14763.8     572.8    0.0    0.0    0.0
      16    8.7   20789.4    0.9    0.0   34480.6    1196.8    0.0    0.0    0.0
averaged    2.7    9850.1    0.2    0.0   14815.3     586.0    0.0    0.0    0.0
averaged    8.7   20789.4    0.9    0.0   34479.0    1198.3    0.0    0.0    0.0
             62816366  WORDS OF DYNAMIC MEMORY USED
 EXECUTION OF GAMESS TERMINATED NORMALLY Mon Nov 18 13:19:01 2019
 DDI: 263640 bytes (0.3 MB / 0 MWords) used by master data server.

 ----------------------------------------
 CPU timing information for all processes
 ========================================
 0: 24672.877 + 592.542 = 25265.419
 1: 25000.697 + 549.577 = 25550.274
 2: 24649.287 + 569.513 = 25218.801
 3: 24947.807 + 561.613 = 25509.420
 4: 25121.535 + 575.196 = 25696.732
 5: 25124.10 + 550.767 = 25674.777
 6: 24577.915 + 555.651 = 25133.567
 7: 24081.341 + 511.81 = 24592.423
 8: 24448.138 + 545.501 = 24993.639
 9: 24317.653 + 515.374 = 24833.28
 10: 24535.525 + 552.122 = 25087.647
 11: 24856.273 + 543.990 = 25400.263
 12: 24666.935 + 563.596 = 25230.531
 13: 24983.923 + 528.221 = 25512.144
 14: 24926.363 + 559.842 = 25486.205
 15: 24359.759 + 523.313 = 24883.72
 ----------------------------------------
 ddikick.x: exited gracefully.
----- accounting info -----
Files used on the master node gollum047.lsa.umich.edu were:
-rw-r--r-- 1 hazwong frank    26584 Nov 17 21:37 /scratch/hazwong/638799/1P5M_5/usrc/1P5M_5_fmo_input.F05
-rw-r--r-- 1 hazwong frank      634 Nov 18 13:19 /scratch/hazwong/638799/1P5M_5/usrc/1P5M_5_fmo_input.F06.001
-rw-r--r-- 1 hazwong frank      634 Nov 18 13:19 /scratch/hazwong/638799/1P5M_5/usrc/1P5M_5_fmo_input.F06.002
-rw-r--r-- 1 hazwong frank      634 Nov 18 13:19 /scratch/hazwong/638799/1P5M_5/usrc/1P5M_5_fmo_input.F06.003
-rw-r--r-- 1 hazwong frank      634 Nov 18 13:19 /scratch/hazwong/638799/1P5M_5/usrc/1P5M_5_fmo_input.F06.004
-rw-r--r-- 1 hazwong frank      634 Nov 18 13:19 /scratch/hazwong/638799/1P5M_5/usrc/1P5M_5_fmo_input.F06.005
-rw-r--r-- 1 hazwong frank      634 Nov 18 13:19 /scratch/hazwong/638799/1P5M_5/usrc/1P5M_5_fmo_input.F06.006
-rw-r--r-- 1 hazwong frank      634 Nov 18 13:19 /scratch/hazwong/638799/1P5M_5/usrc/1P5M_5_fmo_input.F06.007
-rw-r--r-- 1 hazwong frank      634 Nov 18 13:19 /scratch/hazwong/638799/1P5M_5/usrc/1P5M_5_fmo_input.F06.008
-rw-r--r-- 1 hazwong frank      634 Nov 18 13:19 /scratch/hazwong/638799/1P5M_5/usrc/1P5M_5_fmo_input.F06.009
-rw-r--r-- 1 hazwong frank      634 Nov 18 13:19 /scratch/hazwong/638799/1P5M_5/usrc/1P5M_5_fmo_input.F06.010
-rw-r--r-- 1 hazwong frank      634 Nov 18 13:19 /scratch/hazwong/638799/1P5M_5/usrc/1P5M_5_fmo_input.F06.011
-rw-r--r-- 1 hazwong frank      634 Nov 18 13:19 /scratch/hazwong/638799/1P5M_5/usrc/1P5M_5_fmo_input.F06.012
-rw-r--r-- 1 hazwong frank      634 Nov 18 13:19 /scratch/hazwong/638799/1P5M_5/usrc/1P5M_5_fmo_input.F06.013
-rw-r--r-- 1 hazwong frank      634 Nov 18 13:19 /scratch/hazwong/638799/1P5M_5/usrc/1P5M_5_fmo_input.F06.014
-rw-r--r-- 1 hazwong frank      634 Nov 18 13:19 /scratch/hazwong/638799/1P5M_5/usrc/1P5M_5_fmo_input.F06.015
-rw-r--r-- 1 hazwong frank    24606 Nov 18 13:19 /scratch/hazwong/638799/1P5M_5/usrc/1P5M_5_fmo_input.F07
-rw-r--r-- 1 hazwong frank        0 Nov 17 21:37 /scratch/hazwong/638799/1P5M_5/usrc/1P5M_5_fmo_input.F07.001
-rw-r--r-- 1 hazwong frank        0 Nov 17 21:37 /scratch/hazwong/638799/1P5M_5/usrc/1P5M_5_fmo_input.F07.002
-rw-r--r-- 1 hazwong frank        0 Nov 17 21:37 /scratch/hazwong/638799/1P5M_5/usrc/1P5M_5_fmo_input.F07.003
-rw-r--r-- 1 hazwong frank        0 Nov 17 21:37 /scratch/hazwong/638799/1P5M_5/usrc/1P5M_5_fmo_input.F07.004
-rw-r--r-- 1 hazwong frank        0 Nov 17 21:37 /scratch/hazwong/638799/1P5M_5/usrc/1P5M_5_fmo_input.F07.005
-rw-r--r-- 1 hazwong frank        0 Nov 17 21:37 /scratch/hazwong/638799/1P5M_5/usrc/1P5M_5_fmo_input.F07.006
-rw-r--r-- 1 hazwong frank        0 Nov 17 21:37 /scratch/hazwong/638799/1P5M_5/usrc/1P5M_5_fmo_input.F07.007
-rw-r--r-- 1 hazwong frank        0 Nov 17 21:37 /scratch/hazwong/638799/1P5M_5/usrc/1P5M_5_fmo_input.F07.008
-rw-r--r-- 1 hazwong frank        0 Nov 17 21:37 /scratch/hazwong/638799/1P5M_5/usrc/1P5M_5_fmo_input.F07.009
-rw-r--r-- 1 hazwong frank        0 Nov 17 21:37 /scratch/hazwong/638799/1P5M_5/usrc/1P5M_5_fmo_input.F07.010
-rw-r--r-- 1 hazwong frank        0 Nov 17 21:37 /scratch/hazwong/638799/1P5M_5/usrc/1P5M_5_fmo_input.F07.011
-rw-r--r-- 1 hazwong frank        0 Nov 17 21:37 /scratch/hazwong/638799/1P5M_5/usrc/1P5M_5_fmo_input.F07.012
-rw-r--r-- 1 hazwong frank        0 Nov 17 21:37 /scratch/hazwong/638799/1P5M_5/usrc/1P5M_5_fmo_input.F07.013
-rw-r--r-- 1 hazwong frank        0 Nov 17 21:37 /scratch/hazwong/638799/1P5M_5/usrc/1P5M_5_fmo_input.F07.014
-rw-r--r-- 1 hazwong frank        0 Nov 17 21:37 /scratch/hazwong/638799/1P5M_5/usrc/1P5M_5_fmo_input.F07.015
-rw-r--r-- 1 hazwong frank    65440 Nov 18 13:19 /scratch/hazwong/638799/1P5M_5/usrc/1P5M_5_fmo_input.F10.000
-rw-r--r-- 1 hazwong frank        0 Nov 17 21:37 /scratch/hazwong/638799/1P5M_5/usrc/1P5M_5_fmo_input.F26.000
-rw-r--r-- 1 hazwong frank        0 Nov 17 21:37 /scratch/hazwong/638799/1P5M_5/usrc/1P5M_5_fmo_input.F26.001
-rw-r--r-- 1 hazwong frank        0 Nov 17 21:37 /scratch/hazwong/638799/1P5M_5/usrc/1P5M_5_fmo_input.F26.002
-rw-r--r-- 1 hazwong frank        0 Nov 17 21:37 /scratch/hazwong/638799/1P5M_5/usrc/1P5M_5_fmo_input.F26.003
-rw-r--r-- 1 hazwong frank        0 Nov 17 21:37 /scratch/hazwong/638799/1P5M_5/usrc/1P5M_5_fmo_input.F26.004
-rw-r--r-- 1 hazwong frank        0 Nov 17 21:37 /scratch/hazwong/638799/1P5M_5/usrc/1P5M_5_fmo_input.F26.005
-rw-r--r-- 1 hazwong frank        0 Nov 17 21:37 /scratch/hazwong/638799/1P5M_5/usrc/1P5M_5_fmo_input.F26.006
-rw-r--r-- 1 hazwong frank        0 Nov 17 21:37 /scratch/hazwong/638799/1P5M_5/usrc/1P5M_5_fmo_input.F26.007
-rw-r--r-- 1 hazwong frank        0 Nov 17 21:37 /scratch/hazwong/638799/1P5M_5/usrc/1P5M_5_fmo_input.F26.008
-rw-r--r-- 1 hazwong frank        0 Nov 17 21:37 /scratch/hazwong/638799/1P5M_5/usrc/1P5M_5_fmo_input.F26.009
-rw-r--r-- 1 hazwong frank        0 Nov 17 21:37 /scratch/hazwong/638799/1P5M_5/usrc/1P5M_5_fmo_input.F26.010
-rw-r--r-- 1 hazwong frank        0 Nov 17 21:37 /scratch/hazwong/638799/1P5M_5/usrc/1P5M_5_fmo_input.F26.011
-rw-r--r-- 1 hazwong frank        0 Nov 17 21:37 /scratch/hazwong/638799/1P5M_5/usrc/1P5M_5_fmo_input.F26.012
-rw-r--r-- 1 hazwong frank        0 Nov 17 21:37 /scratch/hazwong/638799/1P5M_5/usrc/1P5M_5_fmo_input.F26.013
-rw-r--r-- 1 hazwong frank        0 Nov 17 21:37 /scratch/hazwong/638799/1P5M_5/usrc/1P5M_5_fmo_input.F26.014
-rw-r--r-- 1 hazwong frank        0 Nov 17 21:37 /scratch/hazwong/638799/1P5M_5/usrc/1P5M_5_fmo_input.F26.015
-rw-r--r-- 1 hazwong frank        0 Nov 17 21:37 /scratch/hazwong/638799/1P5M_5/usrc/1P5M_5_fmo_input.F27.000
-rw-r--r-- 1 hazwong frank        0 Nov 17 21:37 /scratch/hazwong/638799/1P5M_5/usrc/1P5M_5_fmo_input.F27.001
-rw-r--r-- 1 hazwong frank        0 Nov 17 21:37 /scratch/hazwong/638799/1P5M_5/usrc/1P5M_5_fmo_input.F27.002
-rw-r--r-- 1 hazwong frank        0 Nov 17 21:37 /scratch/hazwong/638799/1P5M_5/usrc/1P5M_5_fmo_input.F27.003
-rw-r--r-- 1 hazwong frank        0 Nov 17 21:37 /scratch/hazwong/638799/1P5M_5/usrc/1P5M_5_fmo_input.F27.004
-rw-r--r-- 1 hazwong frank        0 Nov 17 21:37 /scratch/hazwong/638799/1P5M_5/usrc/1P5M_5_fmo_input.F27.005
-rw-r--r-- 1 hazwong frank        0 Nov 17 21:37 /scratch/hazwong/638799/1P5M_5/usrc/1P5M_5_fmo_input.F27.006
-rw-r--r-- 1 hazwong frank        0 Nov 17 21:37 /scratch/hazwong/638799/1P5M_5/usrc/1P5M_5_fmo_input.F27.007
-rw-r--r-- 1 hazwong frank        0 Nov 17 21:37 /scratch/hazwong/638799/1P5M_5/usrc/1P5M_5_fmo_input.F27.008
-rw-r--r-- 1 hazwong frank        0 Nov 17 21:37 /scratch/hazwong/638799/1P5M_5/usrc/1P5M_5_fmo_input.F27.009
-rw-r--r-- 1 hazwong frank        0 Nov 17 21:37 /scratch/hazwong/638799/1P5M_5/usrc/1P5M_5_fmo_input.F27.010
-rw-r--r-- 1 hazwong frank        0 Nov 17 21:37 /scratch/hazwong/638799/1P5M_5/usrc/1P5M_5_fmo_input.F27.011
-rw-r--r-- 1 hazwong frank        0 Nov 17 21:37 /scratch/hazwong/638799/1P5M_5/usrc/1P5M_5_fmo_input.F27.012
-rw-r--r-- 1 hazwong frank        0 Nov 17 21:37 /scratch/hazwong/638799/1P5M_5/usrc/1P5M_5_fmo_input.F27.013
-rw-r--r-- 1 hazwong frank        0 Nov 17 21:37 /scratch/hazwong/638799/1P5M_5/usrc/1P5M_5_fmo_input.F27.014
-rw-r--r-- 1 hazwong frank        0 Nov 17 21:37 /scratch/hazwong/638799/1P5M_5/usrc/1P5M_5_fmo_input.F27.015
-rw-r--r-- 1 hazwong frank 34586624 Nov 18 03:24 /scratch/hazwong/638799/1P5M_5/usrc/1P5M_5_fmo_input.F40.000
-rw-r--r-- 1 hazwong frank 34586624 Nov 18 03:24 /scratch/hazwong/638799/1P5M_5/usrc/1P5M_5_fmo_input.F40.001
-rw-r--r-- 1 hazwong frank 34586624 Nov 18 03:24 /scratch/hazwong/638799/1P5M_5/usrc/1P5M_5_fmo_input.F40.002
-rw-r--r-- 1 hazwong frank 34586624 Nov 18 03:24 /scratch/hazwong/638799/1P5M_5/usrc/1P5M_5_fmo_input.F40.003
-rw-r--r-- 1 hazwong frank 34586624 Nov 18 03:24 /scratch/hazwong/638799/1P5M_5/usrc/1P5M_5_fmo_input.F40.004
-rw-r--r-- 1 hazwong frank 34586624 Nov 18 03:24 /scratch/hazwong/638799/1P5M_5/usrc/1P5M_5_fmo_input.F40.005
-rw-r--r-- 1 hazwong frank 34586624 Nov 18 03:24 /scratch/hazwong/638799/1P5M_5/usrc/1P5M_5_fmo_input.F40.006
-rw-r--r-- 1 hazwong frank 34586624 Nov 18 03:24 /scratch/hazwong/638799/1P5M_5/usrc/1P5M_5_fmo_input.F40.007
-rw-r--r-- 1 hazwong frank 34586624 Nov 18 03:24 /scratch/hazwong/638799/1P5M_5/usrc/1P5M_5_fmo_input.F40.008
-rw-r--r-- 1 hazwong frank 34586624 Nov 18 03:24 /scratch/hazwong/638799/1P5M_5/usrc/1P5M_5_fmo_input.F40.009
-rw-r--r-- 1 hazwong frank 34586624 Nov 18 03:24 /scratch/hazwong/638799/1P5M_5/usrc/1P5M_5_fmo_input.F40.010
-rw-r--r-- 1 hazwong frank 34586624 Nov 18 03:24 /scratch/hazwong/638799/1P5M_5/usrc/1P5M_5_fmo_input.F40.011
-rw-r--r-- 1 hazwong frank 34586624 Nov 18 03:24 /scratch/hazwong/638799/1P5M_5/usrc/1P5M_5_fmo_input.F40.012
-rw-r--r-- 1 hazwong frank 34586624 Nov 18 03:24 /scratch/hazwong/638799/1P5M_5/usrc/1P5M_5_fmo_input.F40.013
-rw-r--r-- 1 hazwong frank 34586624 Nov 18 03:24 /scratch/hazwong/638799/1P5M_5/usrc/1P5M_5_fmo_input.F40.014
-rw-r--r-- 1 hazwong frank 34586624 Nov 18 03:24 /scratch/hazwong/638799/1P5M_5/usrc/1P5M_5_fmo_input.F40.015
Mon Nov 18 13:19:04 EST 2019
0.192u 0.103s 15:41:20.32 0.0%	0+0k 1264+192io 19pf+0w
