----- GAMESS execution script 'rungms' -----
This job is running on host gollum082.lsa.umich.edu
under operating system Linux at Sat Dec 7 08:23:52 EST 2019
Available scratch disk space (Kbyte units) at beginning of the job is
Filesystem     1K-blocks    Used Available Use% Mounted on
/dev/sda4      426933580 3600728 423332852   1% /scratch
GAMESS temporary binary files will be written to /scratch/hazwong/824957/28SR_4/usrc
GAMESS supplementary output files will be written to /scratch/hazwong/824957/28SR_4/src
Copying input file 28SR_4_fmo_input.inp to your run's scratch directory...
This is a GDDI run, keeping various output files on local disks
 
Assuming a single but multicore node.
 

 Distributed Data Interface kickoff program.
 Initiating 16 compute processes on 1 nodes to run the following command:
 /export/apps/CentOS7/gamess/src/build//gamess.R3.x 28SR_4_fmo_input 

          ******************************************************
          *         GAMESS VERSION = 30 SEP 2018 (R3)         *
          *             FROM IOWA STATE UNIVERSITY             *
          * M.W.SCHMIDT, K.K.BALDRIDGE, J.A.BOATZ, S.T.ELBERT, *
          *   M.S.GORDON, J.H.JENSEN, S.KOSEKI, N.MATSUNAGA,   *
          *          K.A.NGUYEN, S.J.SU, T.L.WINDUS,           *
          *       TOGETHER WITH M.DUPUIS, J.A.MONTGOMERY       *
          *         J.COMPUT.CHEM.  14, 1347-1363(1993)        *
          **************** 64 BIT LINUX VERSION ****************

  SINCE 1993, STUDENTS AND POSTDOCS WORKING AT IOWA STATE UNIVERSITY
  AND ALSO IN THEIR VARIOUS JOBS AFTER LEAVING ISU HAVE MADE IMPORTANT
  CONTRIBUTIONS TO THE CODE:
     IVANA ADAMOVIC, CHRISTINE AIKENS, YURI ALEXEEV, POOJA ARORA,
     ANDREY ASADCHEV, ROB BELL, PRADIPTA BANDYOPADHYAY, JONATHAN BENTZ,
     BRETT BODE, KURT BRORSEN, CALEB CARLIN, GALINA CHABAN, WEI CHEN,
     CHEOL HO CHOI, PAUL DAY, ALBERT DEFUSCO, NUWAN DESILVA, TIM DUDLEY,
     DMITRI FEDOROV, ALEX FINDLATER, GRAHAM FLETCHER, MARK FREITAG,
     KURT GLAESEMANN, ANASTASIA GUNINA,
     DAN KEMP, GRANT MERRILL, NORIYUKI MINEZAWA, JONATHAN MULLIN,
     TAKESHI NAGATA, SEAN NEDD, HEATHER NETZLOFF, BOSILJKA NJEGIC, RYAN OLSON,
     MIKE PAK, BUU PHAM,
     SPENCER PRUITT, LUKE ROSKOP, JIM SHOEMAKER, LYUDMILA SLIPCHENKO,
     TONY SMITH, SAROM SOK LEANG, JIE SONG, TETSUYA TAKETSUGU, SIMON WEBB,
     PENG XU, SOOHAENG YOO, FEDERICO ZAHARIEV

  ADDITIONAL CODE HAS BEEN PROVIDED BY COLLABORATORS IN OTHER GROUPS:
     IOWA STATE UNIVERSITY:
          JOE IVANIC, AARON WEST, LAIMUTIS BYTAUTAS, KLAUS RUEDENBERG
     UNIVERSITY OF TOKYO: KIMIHIKO HIRAO, TAKAHITO NAKAJIMA,
          TAKAO TSUNEDA, MUNEAKI KAMIYA, SUSUMU YANAGISAWA,
          KIYOSHI YAGI, MAHITO CHIBA, SEIKEN TOKURA, NAOAKI KAWAKAMI
     UNIVERSITY OF AARHUS: FRANK JENSEN
     UNIVERSITY OF IOWA: VISVALDAS KAIRYS, HUI LI
     NATIONAL INST. OF STANDARDS AND TECHNOLOGY: WALT STEVENS, DAVID GARMER
     UNIVERSITY OF PISA: BENEDETTA MENNUCCI, JACOPO TOMASI
     UNIVERSITY OF MEMPHIS: HENRY KURTZ, PRAKASHAN KORAMBATH
     UNIVERSITY OF ALBERTA: TOBY ZENG, MARIUSZ KLOBUKOWSKI
     UNIVERSITY OF NEW ENGLAND: MARK SPACKMAN
     MIE UNIVERSITY: HIROAKI UMEDA
     NAT. INST. OF ADVANCED INDUSTRIAL SCIENCE AND TECHNOLOGY: KAZUO KITAURA
     MICHIGAN STATE UNIVERSITY:
          KAROL KOWALSKI, MARTA WLOCH, JEFFREY GOUR, JESSE LUTZ,
          WEI LI, JUN SHEN, J. EMILIANO DEUSTUA, PIOTR PIECUCH
     UNIVERSITY OF MINNESOTA:
          YINAN SHU
     UNIVERSITY OF SILESIA: MONIKA MUSIAL, STANISLAW KUCHARSKI
     FACULTES UNIVERSITAIRES NOTRE-DAME DE LA PAIX:
          OLIVIER QUINET, BENOIT CHAMPAGNE
     UNIVERSITY OF CALIFORNIA - SANTA BARBARA: BERNARD KIRTMAN
     INSTITUTE FOR MOLECULAR SCIENCE:
          KAZUYA ISHIMURA, MICHIO KATOUDA, AND SHIGERU NAGASE
     UNIVERSITY OF NOTRE DAME: ANNA POMOGAEVA, DAN CHIPMAN
     KYUSHU UNIVERSITY:
          HARUYUKI NAKANO,
          FENG LONG GU, JACEK KORCHOWIEC, MARCIN MAKOWSKI, AND YURIKO AOKI,
          HIROTOSHI MORI AND EISAKU MIYOSHI
     PENNSYLVANIA STATE UNIVERSITY:
          TZVETELIN IORDANOV, CHET SWALINA, JONATHAN SKONE,
          SHARON HAMMES-SCHIFFER
     WASEDA UNIVERSITY:
          MASATO KOBAYASHI, TOMOKO AKAMA, TSUGUKI TOUMA,
          TAKESHI YOSHIKAWA, YASUHIRO IKABATA, JUNJI SEINO,
          YUYA NAKAJIMA, HIROMI NAKAI
     NANJING UNIVERSITY: SHUHUA LI
     UNIVERSITY OF NEBRASKA:
          PEIFENG SU, DEJUN SI, NANDUN THELLAMUREGE, YALI WANG, HUI LI
     UNIVERSITY OF ZURICH: ROBERTO PEVERATI, KIM BALDRIDGE
     N. COPERNICUS UNIVERSITY AND JACKSON STATE UNIVERSITY:
          MARIA BARYSZ
     UNIVERSITY OF COPENHAGEN: Jimmy Kromann, CASPER STEINMANN
     TOKYO INSTITUTE OF TECHNOLOGY: HIROYA NAKATA
     NAGOYA UNIVERSITY: YOSHIO NISHIMOTO, STEPHAN IRLE
     MOSCOW STATE UNIVERSITY: VLADIMIR MIRONOV


 PARALLEL VERSION RUNNING ON       16 PROCESSORS IN        1 NODES.

 EXECUTION OF GAMESS BEGUN Sat Dec  7 08:23:52 2019

            ECHO OF THE FIRST FEW INPUT CARDS -
 INPUT CARD>!*** FMO 5.3 (Gamess) INPUT generated by Facio 22.1.1.32 ***                    
 INPUT CARD> $CONTRL RUNTYP=ENERGY NPRINT=-5 ISPHER=1 MAXIT=200 $END                        
 INPUT CARD> $SYSTEM MWORDS=63 MEMDDI=63 $END                                               
 INPUT CARD> $GDDI NGROUP=1 $END                                                            
 INPUT CARD> $SCF DIRSCF=.TRUE. NPUNCH=0 $END                                               
 INPUT CARD>!*** NumCPU : 2  MemPerNode : 512MB                                             
 INPUT CARD> $PCM SOLVNT=WATER IEF=-10 ICOMP=2 ICAV=1 IDISP=1 IFMO=-1 $END                  
 INPUT CARD> $PCMCAV RADII=SUAHF $END                                                       
 INPUT CARD> $TESCAV NTSALL=60 $END                                                         
 INPUT CARD> $FMOPRP                                                                        
 INPUT CARD>    NAODIR=200                                                                  
 INPUT CARD>    NGRFMO(1)=1, 1, 0, 0, 0,   0, 0, 0, 0, 0                                    
 INPUT CARD>    IPIEDA=1                                                                    
 INPUT CARD>    NPRINT=9                                                                    
 INPUT CARD> $END                                                                           
 INPUT CARD> $FMO                                                                           
 INPUT CARD>      SCFTYP(1)=RHF                                                             
 INPUT CARD>      MODGRD=10                                                                 
 INPUT CARD>      MODMUL=0                                                                  
 INPUT CARD>      MAXCAO=5                                                                  
 INPUT CARD>      MAXBND=18                                                                 
 INPUT CARD>      NLAYER=1                                                                  
 INPUT CARD>      MPLEVL(1)=2                                                               
 INPUT CARD>      NFRAG=16                                                                  
 INPUT CARD>      ICHARG(1)=-1, -1, -1, -1, -1, -1, -1, 0, -1, -1, -1, -1, -1, -1,          
 INPUT CARD>-1, 0                                                                           
 INPUT CARD>      FRGNAM(1)=F1, F2, F3, F4, F5, F6, F7, F8, F9, F10, F11, F12, F13,         
 INPUT CARD>F14, F15, F16                                                                   
 INPUT CARD>      indat(1)=0                                                                
 INPUT CARD>               1   -36   0                                                      
 INPUT CARD>               37   -66   0                                                     
 INPUT CARD>               67   -97   0                                                     
 INPUT CARD>               98   -130   0                                                    
 INPUT CARD>               131   -164   0                                                   
 INPUT CARD>               165   -198   0                                                   
 INPUT CARD>               199   -228   0                                                   
 INPUT CARD>               229   -258   0                                                   
 INPUT CARD>               259   -292   0                                                   
 INPUT CARD>               293   -325   0                                                   
 INPUT CARD>               326   -358   0                                                   
 INPUT CARD>               359   -392   0                                                   
 INPUT CARD>               393   -423   0                                                   
 INPUT CARD>               424   -456   0                                                   
 INPUT CARD>               457   -490   0                                                   
 INPUT CARD>               491   -518   0                                                   
 INPUT CARD> $END                                                                           
 INPUT CARD>                                                                                
 INPUT CARD> $FMOBND                                                                        
 INPUT CARD>   -37   36       6-31G*    MINI                                                
 INPUT CARD>   -67   66       6-31G*    MINI                                                


 -------------------------------------------------------------
 GROUP DDI, PROGRAMMED BY: RYAN M. OLSON AND DMITRI G. FEDOROV
        FEDOROV ET AL., J. COMPUT. CHEM., 25 (2004) 872.
 -------------------------------------------------------------

 -------------------------------------------------------
 GDDI: INITIALIZATION COMPLETED FOR GROUP     1 OF     1
 WITH    16 PROCESSES BALTYP=DLB   global rank=        0
 -------------------------------------------------------

   63000000 WORDS OF MEMORY AVAILABLE


     RUN TITLE
     ---------
  FMO calculation                                                                

 THE POINT GROUP OF THE MOLECULE IS C1      
 THE ORDER OF THE PRINCIPAL AXIS IS     0

 ATOM   ATOMIC CHARGE
 H.1-1       1.0
 O.1-1       8.0
 C.1-1       6.0
 N.1-1       7.0
 P.1-1      15.0

     ATOMIC BASIS SET LIBRARY
     ----------------
 THE CONTRACTED PRIMITIVE FUNCTIONS HAVE BEEN UNNORMALIZED
 THE CONTRACTED BASIS FUNCTIONS ARE NOW NORMALIZED TO UNITY

  SHELL TYPE  PRIMITIVE        EXPONENT          CONTRACTION COEFFICIENT(S)

 H.1-1     

      1   S       1            18.7311370    0.033494604338
      1   S       2             2.8253944    0.234726953484
      1   S       3             0.6401217    0.813757326146

      2   S       4             0.1612778    1.000000000000

 O.1-1     

      3   S       5          5484.6716600    0.001831074430
      3   S       6           825.2349460    0.013950172200
      3   S       7           188.0469580    0.068445078098
      3   S       8            52.9645000    0.232714335992
      3   S       9            16.8975704    0.470192897984
      3   S      10             5.7996353    0.358520852987

      4   L      11            15.5396162   -0.110777549525    0.070874268231
      4   L      12             3.5999336   -0.148026262701    0.339752839147
      4   L      13             1.0137618    1.130767015354    0.727158577316

      5   L      14             0.2700058    1.000000000000    1.000000000000

      6   D      15             0.8000000    1.000000000000

 C.1-1     

      7   S      16          3047.5248800    0.001834737132
      7   S      17           457.3695180    0.014037322813
      7   S      18           103.9486850    0.068842622264
      7   S      19            29.2101553    0.232184443216
      7   S      20             9.2866630    0.467941348435
      7   S      21             3.1639270    0.362311985337

      8   L      22             7.8682723   -0.119332419775    0.068999066591
      8   L      23             1.8812885   -0.160854151696    0.316423960957
      8   L      24             0.5442493    1.143456437840    0.744308290898

      9   L      25             0.1687145    1.000000000000    1.000000000000

     10   D      26             0.8000000    1.000000000000

 N.1-1     

     11   S      27          4173.5114600    0.001834772160
     11   S      28           627.4579110    0.013994627002
     11   S      29           142.9020930    0.068586551812
     11   S      30            40.2343293    0.232240873040
     11   S      31            12.8202129    0.469069948082
     11   S      32             4.3904370    0.360455199063

     12   L      33            11.6263619   -0.114961181702    0.067579743878
     12   L      34             2.7162798   -0.169117478561    0.323907295893
     12   L      35             0.7722184    1.145851947027    0.740895139755

     13   L      36             0.2120315    1.000000000000    1.000000000000

     14   D      37             0.8000000    1.000000000000

 P.1-1     

     15   S      38         19413.3000000    0.001851598923
     15   S      39          2909.4200000    0.014206191735
     15   S      40           661.3640000    0.069999459277
     15   S      41           185.7590000    0.240078860331
     15   S      42            59.1943000    0.484761717984
     15   S      43            20.0310000    0.335199804993

     16   L      44           339.4780000   -0.002782170105    0.004564616191
     16   L      45            81.0101000   -0.036049901354    0.033693571881
     16   L      46            25.8780000   -0.116631004382    0.139754883368
     16   L      47             9.4522100    0.096832803638    0.339361716786
     16   L      48             3.6656600    0.614418023082    0.450920623685
     16   L      49             1.4674600    0.403798015170    0.238585800889

     17   L      50             2.1562300   -0.252924113863   -0.017765312733
     17   L      51             0.7489970    0.032851844678    0.274058196433
     17   L      52             0.2831450    1.081254761783    0.785421562957

     18   L      53             0.0998317    1.000000000000    1.000000000000

     19   D      54             0.5500000    1.000000000000

 TOTAL NUMBER OF BASIS SET SHELLS             =   19
 NUMBER OF CARTESIAN GAUSSIAN BASIS FUNCTIONS =   66

     $CONTRL OPTIONS
     ---------------
 SCFTYP=RHF          RUNTYP=ENERGY       EXETYP=RUN     
 MPLEVL=       0     CITYP =NONE         CCTYP =NONE         VBTYP =NONE    
 DFTTYP=NONE         TDDFT =NONE    
 MULT  =       1     ICHARG=       0     NZVAR =       0     COORD =UNIQUE  
 PP    =NONE         RELWFN=NONE         LOCAL =NONE         NUMGRD=       F
 ISPHER=       1     NOSYM =       0     MAXIT =     200     UNITS =ANGS    
 PLTORB=       F     MOLPLT=       F     AIMPAC=       F     FRIEND=        
 NPRINT=      -5     IREST =       0     GEOM  =INPUT   
 NORMF =       0     NORMP =       0     ITOL  =      24     ICUT  =      12
 INTTYP=BEST         GRDTYP=BEST         QMTTOL= 1.0E-06

     $SYSTEM OPTIONS
     ---------------
  REPLICATED MEMORY=    63000000 WORDS (ON EVERY NODE).
 DISTRIBUTED MEMDDI=          63 MILLION WORDS IN AGGREGATE,
 MEMDDI DISTRIBUTED OVER  16 PROCESSORS IS     3937500 WORDS/PROCESSOR.
 TOTAL MEMORY REQUESTED ON EACH PROCESSOR=    66937500 WORDS.
 TIMLIM=      525600.00 MINUTES, OR     365.0 DAYS.
 PARALL= T  BALTYP=  DLB     KDIAG=    0  COREFL= F
 MXSEQ2=     300 MXSEQ3=     150  mem10=         0

 ** LOOKING UP INTERNALLY STORED DATA FOR SOLVENT=WATER    **
 OPTICAL AND PHYSICAL CONSTANTS:
 EPS= 78.390; EPSINF=  1.776; RSOLV=  1.385 A; VMOL=  18.070 ML/MOL;
 TCE= .25700E-03 1/K; STEN= 71.810 DYN/CM;  DSTEN=  0.6500; CMF=  1.2770


     -----------------------------------
     INPUT FOR PCM SOLVATION CALCULATION 
     -----------------------------------
     IEF   =     -10
     ICOMP =       2     IFIELD=       0     ICAV  =       1
     IDISP =       1     IREP  =       0     IDP   =       0

     SOLVNT=WATER        EPS   = 78.3900     EPSINF=  1.7760
     VMOL  = 18.0700     TCE   =  0.00025700 STEN  = 71.8100
     DSTEN =  0.6500     CMF   =  1.2770     RSOLV =  1.3850

     NESFP =       0
     OMEGA = 40.0000     RET   =100.0000     FRO   =  0.7000

     TABS  =298.0000     IPRINT=       0

     --------------------------------
     INPUT FOR ITERATIVE C-PCM METHOD 
     --------------------------------
     IPCMIT  =         1     MXDIIS  =        50
     MXITR1  =       200     MXITR2  =       200
     THRES   = 0.100E-09     IMUL    =         3
     RCUT(1) =   20.0000     RCUT(2) =   50.0000

     IDIRCT  =         1
     IMGABI  =         0     RABI    =    4.0000
     IMGASC  =         0     RASC    =   20.0000
     THRSLS  = 0.500E-03     DENSLS  =    0.0100
     IEFPOL  =         1     REFPOL  =    0.0000

     INPUT FOR ISOTROPIC DIELECTRICS
     -------------------------------
     EPS=    78.39

          ----------------
          PROPERTIES INPUT
          ----------------

     MOMENTS            FIELD           POTENTIAL          DENSITY
 IEMOM =       1   IEFLD =       0   IEPOT =       0   IEDEN =       0
 WHERE =COMASS     WHERE =NUCLEI     WHERE =NUCLEI     WHERE =NUCLEI  
 OUTPUT=BOTH       OUTPUT=BOTH       OUTPUT=NONE       OUTPUT=BOTH    
 IEMINT=       0   IEFINT=       0                     IEDINT=       0
                                                       MORB  =       0
          EXTRAPOLATION IN EFFECT
          SOSCF IN EFFECT
 ORBITAL PRINTING OPTION: NPREO=     1 32767     2     1

     -------------------------------
     INTEGRAL TRANSFORMATION OPTIONS
     -------------------------------
     NWORD  =            0
     CUTOFF = 1.0E-10     MPTRAN =       0
     DIRTRF =       T     AOINTS =DUP     

          ----------------------
          INTEGRAL INPUT OPTIONS
          ----------------------
 NOPK  =       1 NORDER=       0 SCHWRZ=       T

 ..... DONE SETTING UP THE RUN .....
 CPU     0: STEP CPU TIME=     0.05 TOTAL CPU TIME=          0.0 (      0.0 MIN)
 TOTAL WALL CLOCK TIME=          0.1 SECONDS, CPU UTILIZATION IS    62.50%
 CPU     0: STEP CPU TIME=     0.00 TOTAL CPU TIME=          0.0 (      0.0 MIN)
 TOTAL WALL CLOCK TIME=          0.1 SECONDS, CPU UTILIZATION IS    62.50%

                    ----------------------
                    AO INTEGRAL TECHNOLOGY
                    ----------------------
     S,P,L SHELL ROTATED AXIS INTEGRALS, REPROGRAMMED BY
        KAZUYA ISHIMURA (IMS) AND JOSE SIERRA (SYNSTAR).
     S,P,D,L SHELL ROTATED AXIS INTEGRALS PROGRAMMED BY
        KAZUYA ISHIMURA (INSTITUTE FOR MOLECULAR SCIENCE).
     S,P,D,F,G SHELL TO TOTAL QUARTET ANGULAR MOMENTUM SUM 5,
        ERIC PROGRAM BY GRAHAM FLETCHER (ELORET AND NASA ADVANCED
        SUPERCOMPUTING DIVISION, AMES RESEARCH CENTER).
     S,P,D,F,G,L SHELL GENERAL RYS QUADRATURE PROGRAMMED BY
        MICHEL DUPUIS (PACIFIC NORTHWEST NATIONAL LABORATORY).
 Setting modorb=1 flag...
 Setting modorb=1 flag...

          -----------------------
          MP2 CONTROL INFORMATION
          -----------------------
          NACORE =        8  NBCORE =        8
          LMOMP2 =        F  AOINTS = DUP     
          METHOD =        2  NWORD  =               0
          MP2PRP =        F  OSPT   = NONE    
          CUTOFF = 1.00E-12  CPHFBS = BASISAO 
          CODE   = IMS     

          NUMBER OF CORE -A-  ORBITALS =     8
          NUMBER OF CORE -B-  ORBITALS =     8
          NUMBER OF OCC. -A-  ORBITALS =    18
          NUMBER OF OCC. -B-  ORBITALS =    18
          NUMBER OF MOLECULAR ORBITALS =    66
          NUMBER OF   BASIS  FUNCTIONS =    66

 CPU     0: STEP CPU TIME=     0.03 TOTAL CPU TIME=          0.1 (      0.0 MIN)
 TOTAL WALL CLOCK TIME=          0.1 SECONDS, CPU UTILIZATION IS    72.73%
 CPU     0: STEP CPU TIME=     0.00 TOTAL CPU TIME=          0.1 (      0.0 MIN)
 TOTAL WALL CLOCK TIME=          0.1 SECONDS, CPU UTILIZATION IS    72.73%

     INPUT FOR CAVITY DEFINITION 
     ---------------------------
   ATOM               COORDINATES                RADIUS       EPS
      1      3.6450    -53.9540     39.6810      0.0100     78.3900
      2      4.3990    -54.1120     39.0820      1.5900     78.3900
      3      5.4610    -54.6440     39.8880      1.7700     78.3900
      4      5.0880    -55.5390     40.4370      0.0100     78.3900
      5      5.7650    -53.8850     40.6440      0.0100     78.3900
      6      6.6890    -55.0500     39.0680      1.7700     78.3900
      7      7.4860    -55.4620     39.7220      0.0100     78.3900
      8      6.3210    -56.0970     38.1220      1.5900     78.3900
      9      7.0140    -55.8930     36.9030      1.7700     78.3900
     10      7.5750    -56.8320     36.6890      0.0100     78.3900
     11      6.0850    -55.6310     35.7920      1.6800     78.3900
     12      6.3800    -55.7150     34.4570      1.7700     78.3900
     13      8.6380    -56.3670     31.9180      1.6800     78.3900
     14      9.4780    -56.5770     32.4170      0.0100     78.3900
     15      8.6500    -56.3960     30.9150      0.0100     78.3900
     16      7.5750    -56.0310     33.9320      1.6800     78.3900
     17      7.5520    -56.0680     32.6040      1.7700     78.3900
     18      6.4250    -55.8150     31.8650      1.6800     78.3900
     19      6.4890    -55.8860     30.8610      0.0100     78.3900
     20      5.1740    -55.4950     32.3780      1.7700     78.3900
     21      4.2080    -55.2920     31.6350      1.5900     78.3900
     22      5.2000    -55.4300     33.7970      1.7700     78.3900
     23      4.1840    -55.1500     34.7010      1.6800     78.3900
     24      4.7530    -55.2820     35.8780      1.7700     78.3900
     25      4.2600    -55.1430     36.8440      0.0100     78.3900
     26      7.9950    -54.7620     37.1200      1.7700     78.3900
     27      8.1680    -54.1700     36.2000      0.0100     78.3900
     28      9.2220    -55.2800     37.5920      1.5900     78.3900
     29      9.7520    -54.5220     37.8720      0.0100     78.3900
     30      7.2970    -53.9380     38.1970      1.7700     78.3900
     31      6.4430    -53.3700     37.7550      0.0100     78.3900
     32      8.1800    -53.1120     38.9960      1.5900     78.3900
     33      8.4510    -51.6250     38.5530      2.1000     78.3900
     34      7.1410    -50.9720     38.3710      1.5900     78.3900
     35      9.4010    -50.9840     39.4870      1.5900     78.3900
     36      9.1350    -51.7570     37.1460      1.5900     78.3900
     37     10.5030    -52.1870     36.9720      1.7700     78.3900
     38     10.6680    -53.1990     37.4050      0.0100     78.3900
     39     11.2080    -51.4880     37.4830      0.0100     78.3900
     40     10.8780    -52.2430     35.4810      1.7700     78.3900
     41     11.9250    -52.5940     35.3500      0.0100     78.3900
     42     10.0170    -53.1840     34.7710      1.5900     78.3900
     43      9.7060    -52.6720     33.4810      1.7700     78.3900
     44     10.0610    -53.4470     32.7580      0.0100     78.3900
     45      8.2360    -52.4450     33.3030      1.6800     78.3900
     46      7.4130    -52.3000     34.3960      1.7700     78.3900
     47      7.9110    -52.3590     35.3610      0.0100     78.3900
     48      7.7180    -52.4010     32.0250      1.7700     78.3900
     49      8.4090    -52.5160     31.0200      1.5900     78.3900
     50      6.3550    -52.2330     31.9590      1.6800     78.3900
     51      5.9410    -52.2120     31.0400      0.0100     78.3900
     52      5.4750    -52.1150     33.0080      1.7700     78.3900
     53      4.2750    -51.9960     32.7880      1.5900     78.3900
     54      6.0850    -52.1510     34.3010      1.7700     78.3900
     55      5.4530    -52.0760     35.1840      0.0100     78.3900
     56     10.5310    -51.4080     33.2950      1.7700     78.3900
     57     10.0000    -50.6530     32.6810      0.0100     78.3900
     58     11.7780    -51.7210     32.7040      1.5900     78.3900
     59     12.3020    -50.9040     32.7060      0.0100     78.3900
     60     10.7120    -50.9180     34.7290      1.7700     78.3900
     61      9.7670    -50.4590     35.0980      0.0100     78.3900
     62     11.8690    -50.0730     34.9590      1.5900     78.3900
     63     11.7480    -48.5400     34.5980      2.1000     78.3900
     64     10.4670    -48.0320     35.1370      1.5900     78.3900
     65     12.9790    -47.8590     35.0430      1.5900     78.3900
     66     11.6970    -48.4980     33.0260      1.5900     78.3900
     67     11.1840    -47.3080     32.3700      1.7700     78.3900
     68     12.0030    -46.5740     32.2210      0.0100     78.3900
     69     10.3950    -46.7960     32.9770      0.0100     78.3900
     70     10.5620    -47.6280     31.0010      1.7700     78.3900
     71     11.3390    -47.8680     30.2460      0.0100     78.3900
     72      9.6970    -48.7950     31.1170      1.5900     78.3900
     73      8.4980    -48.5860     30.4050      1.7700     78.3900
     74      8.4200    -49.4480     29.7050      0.0100     78.3900
     75      7.2930    -48.5820     31.2900      1.6800     78.3900
     76      7.4080    -48.6680     32.6660      1.7700     78.3900
     77      8.4250    -48.7130     33.0680      0.0100     78.3900
     78      6.3200    -48.6940     33.4530      1.7700     78.3900
     79      6.3870    -48.7710     34.5350      0.0100     78.3900
     80      6.0300    -48.5310     30.7100      1.7700     78.3900
     81      5.9410    -48.4690     29.4780      1.5900     78.3900
     82      4.9340    -48.5510     31.4860      1.6800     78.3900
     83      5.0430    -48.6380     32.8190      1.7700     78.3900
     84      3.9300    -48.7040     33.5380      1.6800     78.3900
     85      3.0620    -48.7230     33.0160      0.0100     78.3900
     86      3.9210    -48.7570     34.5340      0.0100     78.3900
     87      8.6730    -47.2980     29.6070      1.7700     78.3900
     88      7.7250    -46.7340     29.4800      0.0100     78.3900
     89      9.2420    -47.5670     28.3400      1.5900     78.3900
     90      9.5900    -46.7240     28.0170      0.0100     78.3900
     91      9.6490    -46.5140     30.4690      1.7700     78.3900
     92      9.1200    -46.0900     31.3570      0.0100     78.3900
     93     10.4250    -45.5220     29.7370      1.5900     78.3900
     94      9.7670    -44.0930     29.5660      2.1000     78.3900
     95      8.3210    -44.2390     29.8330      1.5900     78.3900
     96     10.5200    -43.1290     30.3930      1.5900     78.3900
     97      9.9710    -43.7140     28.0420      1.5900     78.3900
     98     11.2770    -43.5250     27.4550      1.7700     78.3900
     99     12.0480    -44.1570     27.9550      0.0100     78.3900
    100     11.5920    -42.4640     27.5800      0.0100     78.3900
    101     11.3140    -43.8670     25.9460      1.7700     78.3900
    102     12.3590    -44.0050     25.5990      0.0100     78.3900
    103     10.5810    -45.1030     25.6800      1.5900     78.3900
    104      9.8420    -44.9700     24.4740      1.7700     78.3900
    105     10.1630    -45.8100     23.8170      0.0100     78.3900
    106      8.4010    -45.0860     24.7110      1.6800     78.3900
    107      6.2500    -45.4280     24.4340      1.7700     78.3900
    108      6.4300    -45.1510     25.7790      1.6800     78.3900
    109      7.7180    -44.9510     25.8950      1.7700     78.3900
    110      8.2290    -44.6950     26.8250      0.0100     78.3900
    111      5.2660    -45.9110     22.3260      1.6800     78.3900
    112      6.4980    -45.8290     21.8210      1.7700     78.3900
    113      6.5770    -46.0020     20.7410      0.0100     78.3900
    114      7.6570    -45.6160     22.4590      1.6800     78.3900
    115      7.4550    -45.3850     23.7660      1.7700     78.3900
    116      5.1060    -45.7280     23.6640      1.7700     78.3900
    117      3.8830    -45.8570     24.1930      1.6800     78.3900
    118      3.7400    -45.5900     25.1560      0.0100     78.3900
    119      3.0900    -45.9150     23.5890      0.0100     78.3900
    120     10.2210    -43.6550     23.8280      1.7700     78.3900
    121      9.3660    -43.1670     23.3040      0.0100     78.3900
    122     11.2930    -43.8590     22.9240      1.5900     78.3900
    123     11.5900    -42.9840     22.6270      0.0100     78.3900
    124     10.6510    -42.8220     25.0320      1.7700     78.3900
    125      9.7650    -42.4810     25.6030      0.0100     78.3900
    126     11.5700    -41.7430     24.7280      1.5900     78.3900
    127     10.9980    -40.3510     24.2600      2.1000     78.3900
    128     10.0210    -39.9340     25.2910      1.5900     78.3900
    129     12.1540    -39.4580     24.0000      1.5900     78.3900
    130     10.2500    -40.6380     22.8970      1.5900     78.3900
    131      9.0970    -39.8410     22.5150      1.7700     78.3900
    132      9.4020    -38.8030     22.2680      0.0100     78.3900
    133      8.3560    -39.7790     23.3470      0.0100     78.3900
    134      8.3740    -40.4350     21.2840      1.7700     78.3900
    135      9.0730    -40.5050     20.4260      0.0100     78.3900
    136      7.9150    -41.7890     21.5740      1.5900     78.3900
    137      6.5900    -41.9860     21.0920      1.7700     78.3900
    138      6.6330    -42.9220     20.4920      0.0100     78.3900
    139      5.5740    -42.1680     22.1560      1.6800     78.3900
    140      5.7140    -42.0550     23.5210      1.7700     78.3900
    141      7.6880    -41.3360     26.2530      1.6800     78.3900
    142      7.5320    -41.0920     27.2060      0.0100     78.3900
    143      8.4490    -40.8970     25.7610      0.0100     78.3900
    144      6.8470    -41.7600     24.1830      1.6800     78.3900
    145      6.6850    -41.7060     25.4860      1.7700     78.3900
    146      5.4750    -41.9040     26.0960      1.6800     78.3900
    147      5.4560    -42.0170     27.1000      0.0100     78.3900
    148      4.2900    -42.2280     25.4490      1.7700     78.3900
    149      3.2330    -42.3850     26.0600      1.5900     78.3900
    150      4.4600    -42.2940     24.0440      1.7700     78.3900
    151      3.5440    -42.5930     23.0400      1.6800     78.3900
    152      4.2520    -42.5130     21.9360      1.7700     78.3900
    153      3.8650    -42.7120     20.9300      0.0100     78.3900
    154      6.2620    -40.8120     20.2010      1.7700     78.3900
    155      5.1870    -40.5300     20.2180      0.0100     78.3900
    156      6.6570    -41.1050     18.8740      1.5900     78.3900
    157      7.6240    -41.1810     18.8560      0.0100     78.3900
    158      7.0990    -39.7010     20.8270      1.7700     78.3900
    159      6.5860    -39.3660     21.7540      0.0100     78.3900
    160      7.4040    -38.6330     19.9060      1.5900     78.3900
    161      7.1920    -37.1190     20.2640      2.1000     78.3900
    162      8.2470    -36.7510     21.2280      1.5900     78.3900
    163      7.1620    -36.3410     19.0080      1.5900     78.3900
    164      5.7920    -37.0060     20.9830      1.5900     78.3900
    165      4.5450    -37.2110     20.2870      1.7700     78.3900
    166      4.5860    -38.1220     19.6430      0.0100     78.3900
    167      4.3250    -36.3340     19.6360      0.0100     78.3900
    168      3.3840    -37.3680     21.2840      1.7700     78.3900
    169      2.4170    -37.4900     20.7520      0.0100     78.3900
    170      3.6030    -38.5740     22.0790      1.5900     78.3900
    171      3.2550    -38.3150     23.4330      1.7700     78.3900
    172      2.5270    -39.1050     23.7300      0.0100     78.3900
    173      4.4190    -38.3790     24.3260      1.6800     78.3900
    174      4.4080    -38.5980     25.6790      1.7700     78.3900
    175      2.6730    -39.1600     28.6160      1.6800     78.3900
    176      2.8740    -39.4830     29.5320      0.0100     78.3900
    177      1.7300    -39.1980     28.2810      0.0100     78.3900
    178      3.3220    -38.7980     26.4410      1.6800     78.3900
    179      3.6300    -39.0100     27.7170      1.7700     78.3900
    180      4.9200    -39.0590     28.1780      1.6800     78.3900
    181      5.0840    -39.2420     29.1580      0.0100     78.3900
    182      6.0580    -38.8560     27.4150      1.7700     78.3900
    183      7.1850    -38.9140     27.9120      1.5900     78.3900
    184      5.7330    -38.5810     26.0660      1.7700     78.3900
    185      6.5560    -38.3220     24.9880      1.6800     78.3900
    186      5.7350    -38.2170     23.9790      1.7700     78.3900
    187      6.0350    -38.0150     22.9560      0.0100     78.3900
    188      2.5790    -36.9650     23.4930      1.7700     78.3900
    189      2.7820    -36.4410     24.4540      0.0100     78.3900
    190      1.1810    -37.0950     23.3100      1.5900     78.3900
    191      0.8180    -36.1970     23.2560      0.0100     78.3900
    192      3.2310    -36.2300     22.3230      1.7700     78.3900
    193      4.2560    -35.8980     22.5970      0.0100     78.3900
    194      2.4530    -35.1470     21.7690      1.5900     78.3900
    195      2.3310    -33.7620     22.5180      2.1000     78.3900
    196      3.6370    -33.0740     22.4590      1.5900     78.3900
    197      1.1670    -33.0470     21.9470      1.5900     78.3900
    198      1.9840    -34.0990     24.0160      1.5900     78.3900
    199      2.3760    -33.1840     25.0700      1.7700     78.3900
    200      1.9130    -32.1810     24.9160      0.0100     78.3900
    201      3.4850    -33.0400     25.0780      0.0100     78.3900
    202      1.9320    -33.7060     26.4510      1.7700     78.3900
    203      0.8260    -33.7760     26.5070      0.0100     78.3900
    204      2.4540    -35.0490     26.6730      1.5900     78.3900
    205      2.9100    -35.1820     28.0140      1.7700     78.3900
    206      2.4030    -36.0870     28.4220      0.0100     78.3900
    207      4.3940    -35.3570     28.0780      1.6800     78.3900
    208      5.1730    -35.1720     26.9520      1.7700     78.3900
    209      4.6430    -34.8760     26.0430      0.0100     78.3900
    210      4.9670    -35.7530     29.2680      1.7700     78.3900
    211      4.3030    -35.9580     30.2860      1.5900     78.3900
    212      6.3300    -35.9080     29.2360      1.6800     78.3900
    213      6.7650    -36.2060     30.1030      0.0100     78.3900
    214      7.1620    -35.7560     28.1430      1.7700     78.3900
    215      8.3700    -35.9500     28.2480      1.5900     78.3900
    216      6.4970    -35.3520     26.9470      1.7700     78.3900
    217      7.0910    -35.2130     26.0460      0.0100     78.3900
    218      2.4260    -33.9510     28.7630      1.7700     78.3900
    219      3.0970    -33.6620     29.5970      0.0100     78.3900
    220      1.1170    -34.1680     29.2590      1.5900     78.3900
    221      0.7650    -33.3100     29.5390      0.0100     78.3900
    222      2.4380    -32.9040     27.6600      1.7700     78.3900
    223      3.4940    -32.6270     27.4250      0.0100     78.3900
    224      1.5770    -31.7690     27.9130      1.5900     78.3900
    225      2.2130    -30.3630     28.2140      2.1000     78.3900
    226      3.3680    -30.1540     27.3150      1.5900     78.3900
    227      1.1480    -29.3370     28.1800      1.5900     78.3900
    228      2.7350    -30.5200     29.6940      1.5900     78.3900
    229      1.7720    -30.6290     30.7710      1.7700     78.3900
    230      1.0590    -31.4680     30.5940      0.0100     78.3900
    231      1.1830    -29.6860     30.8560      0.0100     78.3900
    232      2.4570    -30.8740     32.1210      1.7700     78.3900
    233      1.7200    -30.8910     32.9500      0.0100     78.3900
    234      3.1120    -32.1730     32.1040      1.5900     78.3900
    235      4.3540    -32.0790     32.7880      1.7700     78.3900
    236      4.3120    -32.8500     33.5900      0.0100     78.3900
    237      5.5180    -32.3680     31.9060      1.6800     78.3900
    238      5.3820    -32.3060     30.5370      1.7700     78.3900
    239      4.3920    -32.0420     30.1660      0.0100     78.3900
    240      6.4040    -32.5830     29.7180      1.7700     78.3900
    241      6.3080    -32.5550     28.6330      0.0100     78.3900
    242      6.7500    -32.7000     32.4620      1.7700     78.3900
    243      6.8660    -32.7460     33.6960      1.5900     78.3900
    244      7.8000    -32.9620     31.6510      1.6800     78.3900
    245      7.6530    -32.9190     30.3160      1.7700     78.3900
    246      8.7020    -33.2020     29.5460      1.6800     78.3900
    247      9.5600    -33.4970     29.9730      0.0100     78.3900
    248      8.6410    -33.2160     28.5510      0.0100     78.3900
    249      4.4240    -30.7040     33.4380      1.7700     78.3900
    250      5.4630    -30.3120     33.4790      0.0100     78.3900
    251      3.8700    -30.7590     34.7470      1.5900     78.3900
    252      3.7890    -29.8520     35.0910      0.0100     78.3900
    253      3.5690    -29.8780     32.4820      1.7700     78.3900
    254      4.1460    -29.6380     31.5590      0.0100     78.3900
    255      3.0130    -28.6830     33.0600      1.5900     78.3900
    256      3.7290    -28.0450     33.2480      0.0100     78.3900
    257     18.1900    -36.7680     33.9660      0.0100     78.3900
    258     17.3090    -36.5910     34.3430      1.5900     78.3900
    259     17.4910    -36.3390     35.7450      1.7700     78.3900
    260     18.2160    -35.5060     35.8820      0.0100     78.3900
    261     17.9140    -37.2490     36.2250      0.0100     78.3900
    262     16.1890    -35.9740     36.4680      1.7700     78.3900
    263     16.3610    -35.8630     37.5610      0.0100     78.3900
    264     15.6940    -34.6900     35.9810      1.5900     78.3900
    265     14.2750    -34.7450     35.9010      1.7700     78.3900
    266     13.8830    -33.8860     36.4910      0.0100     78.3900
    267     13.7980    -34.6290     34.5160      1.6800     78.3900
    268     12.5200    -34.3230     34.1260      1.7700     78.3900
    269      9.2620    -33.4770     34.9130      1.6800     78.3900
    270      9.2750    -33.4720     35.9090      0.0100     78.3900
    271      8.4170    -33.2170     34.4360      0.0100     78.3900
    272     11.4780    -34.0870     34.9430      1.6800     78.3900
    273     10.3750    -33.7680     34.2720      1.7700     78.3900
    274     10.3170    -33.7030     32.9030      1.6800     78.3900
    275      9.4450    -33.4290     32.4780      0.0100     78.3900
    276     11.3760    -33.9460     32.0350      1.7700     78.3900
    277     11.2520    -33.8550     30.8080      1.5900     78.3900
    278     12.5570    -34.2870     32.7440      1.7700     78.3900
    279     13.8290    -34.5830     32.2730      1.6800     78.3900
    280     14.5310    -34.7930     33.3620      1.7700     78.3900
    281     15.5890    -35.0680     33.3950      0.0100     78.3900
    282     13.8320    -36.0390     36.5390      1.7700     78.3900
    283     12.8990    -36.4380     36.0920      0.0100     78.3900
    284     13.6440    -35.8510     37.9260      1.5900     78.3900
    285     13.3730    -36.7070     38.2810      0.0100     78.3900
    286     15.0230    -36.9470     36.2500      1.7700     78.3900
    287     15.0390    -37.2320     35.1740      0.0100     78.3900
    288     15.1650    -38.0870     37.1290      1.5900     78.3900
    289     14.4190    -39.4280     36.7670      2.1000     78.3900
    290     14.7080    -39.7720     35.3560      1.5900     78.3900
    291     14.7470    -40.4470     37.7870      1.5900     78.3900
    292     12.9000    -39.0470     36.9020      1.5900     78.3900
    293     12.3050    -38.8980     38.2190      1.7700     78.3900
    294     12.8130    -38.0990     38.8070      0.0100     78.3900
    295     12.4050    -39.8400     38.8020      0.0100     78.3900
    296     10.8070    -38.5510     38.1400      1.7700     78.3900
    297     10.3840    -38.3780     39.1580      0.0100     78.3900
    298     10.6200    -37.3280     37.3610      1.5900     78.3900
    299      9.4610    -37.4580     36.5410      1.7700     78.3900
    300      8.8040    -36.5920     36.7880      0.0100     78.3900
    301      9.7980    -37.4140     35.1120      1.6800     78.3900
    302      9.7060    -37.1890     32.9260      1.7700     78.3900
    303     11.0270    -37.4880     33.2330      1.6800     78.3900
    304     11.0270    -37.6240     34.5340      1.7700     78.3900
    305     11.9020    -37.8780     35.1330      0.0100     78.3900
    306      7.7280    -36.6360     31.7460      1.6800     78.3900
    307      7.1190    -36.6320     32.9340      1.7700     78.3900
    308      6.0490    -36.4000     32.9050      0.0100     78.3900
    309      7.6230    -36.8600     34.1550      1.6800     78.3900
    310      8.9370    -37.1410     34.0750      1.7700     78.3900
    311      9.0540    -36.9200     31.7050      1.7700     78.3900
    312      9.6880    -36.9200     30.5210      1.6800     78.3900
    313     10.6520    -37.1830     30.4200      0.0100     78.3900
    314      9.1880    -36.6560     29.6920      0.0100     78.3900
    315      8.7600    -38.7460     36.9230      1.7700     78.3900
    316      8.2650    -39.2320     36.0570      0.0100     78.3900
    317      7.8060    -38.5140     37.9410      1.5900     78.3900
    318      7.4880    -39.3850     38.2250      0.0100     78.3900
    319      9.9270    -39.5870     37.4230      1.7700     78.3900
    320     10.5330    -39.9050     36.5510      0.0100     78.3900
    321      9.5610    -40.6760     38.3110      1.5900     78.3900
    322      9.6990    -42.1700     37.8100      2.1000     78.3900
    323     10.4690    -42.2200     36.5500      1.5900     78.3900
    324     10.1960    -43.0080     38.9250      1.5900     78.3900
    325      8.2150    -42.5810     37.4660      1.5900     78.3900
    326      7.1330    -42.5390     38.4250      1.7700     78.3900
    327      7.3050    -41.7770     39.2180      0.0100     78.3900
    328      7.0460    -43.5300     38.9230      0.0100     78.3900
    329      5.7730    -42.2370     37.7660      1.7700     78.3900
    330      4.9720    -42.1480     38.5310      0.0100     78.3900
    331      5.8500    -40.9650     37.0610      1.5900     78.3900
    332      5.1100    -41.0520     35.8510      1.7700     78.3900
    333      4.3620    -40.2260     35.8770      0.0100     78.3900
    334      5.9820    -40.8770     34.6840      1.6800     78.3900
    335      6.7460    -40.3820     32.6830      1.7700     78.3900
    336      7.8240    -40.8800     33.3960      1.6800     78.3900
    337      7.3200    -41.1610     34.5700      1.7700     78.3900
    338      7.8870    -41.5770     35.4030      0.0100     78.3900
    339      5.3940    -39.4490     30.9830      1.6800     78.3900
    340      4.3910    -39.4960     31.8610      1.7700     78.3900
    341      3.4300    -39.1160     31.5010      0.0100     78.3900
    342      4.3850    -39.9530     33.1140      1.6800     78.3900
    343      5.6050    -40.3780     33.4680      1.7700     78.3900
    344      6.6210    -39.8940     31.3670      1.7700     78.3900
    345      7.6490    -39.8530     30.5000      1.6800     78.3900
    346      8.5740    -40.1280     30.7630      0.0100     78.3900
    347      7.5080    -39.4490     29.5910      0.0100     78.3900
    348      4.3920    -42.3860     35.8270      1.7700     78.3900
    349      4.3050    -42.8150     34.8020      0.0100     78.3900
    350      3.1010    -42.2810     36.3980      1.5900     78.3900
    351      2.7130    -43.1640     36.3100      0.0100     78.3900
    352      5.3100    -43.2440     36.6940      1.7700     78.3900
    353      6.2240    -43.5250     36.1310      0.0100     78.3900
    354      4.6890    -44.4000     37.3030      1.5900     78.3900
    355      4.3170    -45.6160     36.3580      2.1000     78.3900
    356      5.3450    -45.7450     35.2870      1.5900     78.3900
    357      4.0560    -46.7880     37.2050      1.5900     78.3900
    358      2.9380    -45.1690     35.7200      1.5900     78.3900
    359      2.4650    -45.9550     34.5920      1.7700     78.3900
    360      2.2520    -47.0010     34.9030      0.0100     78.3900
    361      3.2390    -46.0040     33.7880      0.0100     78.3900
    362      1.1920    -45.3660     33.9600      1.7700     78.3900
    363      0.3540    -45.3710     34.6850      0.0100     78.3900
    364      1.4330    -43.9810     33.5760      1.5900     78.3900
    365      0.8870    -43.7290     32.2910      1.7700     78.3900
    366      0.2180    -42.8470     32.4310      0.0100     78.3900
    367      1.9020    -43.3850     31.2650      1.6800     78.3900
    368      3.2730    -43.5850     31.2300      1.7700     78.3900
    369      6.1530    -44.7310     32.7560      1.6800     78.3900
    370      7.1420    -44.7160     32.6440      0.0100     78.3900
    371      5.7310    -45.0920     33.5970      0.0100     78.3900
    372      4.0190    -44.1820     32.1690      1.6800     78.3900
    373      5.3070    -44.2150     31.8740      1.7700     78.3900
    374      5.8290    -43.6550     30.7350      1.6800     78.3900
    375      6.8020    -43.8180     30.4960      0.0100     78.3900
    376      5.0890    -43.0260     29.7430      1.7700     78.3900
    377      5.6220    -42.5310     28.7440      1.5900     78.3900
    378      3.6990    -43.0170     30.0480      1.7700     78.3900
    379      2.6270    -42.5020     29.3350      1.6800     78.3900
    380      1.5850    -42.7560     30.0850      1.7700     78.3900
    381      0.5560    -42.4950     29.8240      0.0100     78.3900
    382      0.0590    -44.9250     31.8970      1.7700     78.3900
    383      0.0850    -45.1180     30.8050      0.0100     78.3900
    384     -1.2780    -44.7500     32.3180      1.5900     78.3900
    385     -1.6800    -45.6270     32.2840      0.0100     78.3900
    386      0.7330    -46.0570     32.6580      1.7700     78.3900
    387      1.6650    -46.3520     32.1130      0.0100     78.3900
    388     -0.1570    -47.1660     32.9540      1.5900     78.3900
    389      0.0510    -48.5610     32.2560      2.1000     78.3900
    390      1.5020    -48.8030     32.1700      1.5900     78.3900
    391     -0.7470    -49.5930     32.9450      1.5900     78.3900
    392     -0.5230    -48.3540     30.8080      1.5900     78.3900
    393     -1.8720    -47.9220     30.5310      1.7700     78.3900
    394     -2.2150    -47.1440     31.2550      0.0100     78.3900
    395     -2.5680    -48.7860     30.6190      0.0100     78.3900
    396     -2.0030    -47.3340     29.1100      1.7700     78.3900
    397     -3.0490    -47.0220     28.9080      0.0100     78.3900
    398     -1.1870    -46.1360     29.0110      1.5900     78.3900
    399     -0.5560    -46.0840     27.7380      1.7700     78.3900
    400     -0.8590    -45.1000     27.3080      0.0100     78.3900
    401      0.9330    -46.1280     27.8310      1.6800     78.3900
    402      1.5310    -46.7660     28.8900      1.7700     78.3900
    403      0.8540    -47.1590     29.6320      0.0100     78.3900
    404      2.8600    -46.8150     29.0280      1.7700     78.3900
    405      3.3450    -47.2970     29.8750      0.0100     78.3900
    406      1.7280    -45.5510     26.8450      1.7700     78.3900
    407      1.1820    -45.0050     25.8770      1.5900     78.3900
    408      3.0720    -45.5690     26.9800      1.6800     78.3900
    409      3.6430    -46.1720     28.0340      1.7700     78.3900
    410      4.9640    -46.1650     28.1410      1.6800     78.3900
    411      5.4770    -45.6820     27.4230      0.0100     78.3900
    412      5.4150    -46.8690     28.6900      0.0100     78.3900
    413     -1.1440    -47.1930     26.8830      1.7700     78.3900
    414     -0.4110    -47.6160     26.1620      0.0100     78.3900
    415     -2.2780    -46.7020     26.1870      1.5900     78.3900
    416     -2.7320    -47.4560     25.7770      0.0100     78.3900
    417     -1.5270    -48.2250     27.9460      1.7700     78.3900
    418     -0.6120    -48.7510     28.3010      0.0100     78.3900
    419     -2.5810    -49.1330     27.5690      1.5900     78.3900
    420     -2.2830    -50.5450     26.9480      2.1000     78.3900
    421     -1.4610    -51.3330     27.8920      1.5900     78.3900
    422     -3.5720    -51.1340     26.5380      1.5900     78.3900
    423     -1.4410    -50.2180     25.6580      1.5900     78.3900
    424     -0.5350    -51.2150     25.1190      1.7700     78.3900
    425     -1.0930    -52.1190     24.7790      0.0100     78.3900
    426      0.2000    -51.5400     25.8960      0.0100     78.3900
    427      0.2690    -50.6690     23.9240      1.7700     78.3900
    428     -0.3950    -50.4510     23.0580      0.0100     78.3900
    429      0.9040    -49.4090     24.3060      1.5900     78.3900
    430      2.2060    -49.3290     23.7480      1.7700     78.3900
    431      2.2520    -48.3800     23.1670      0.0100     78.3900
    432      3.2280    -49.2950     24.7940      1.6800     78.3900
    433      5.1410    -49.1800     25.8590      1.7700     78.3900
    434      4.1610    -49.2900     26.8370      1.6800     78.3900
    435      3.0470    -49.3520     26.1550      1.7700     78.3900
    436      2.0470    -49.4490     26.5870      0.0100     78.3900
    437      7.2260    -48.9750     24.7540      1.6800     78.3900
    438      6.5380    -48.9770     23.6080      1.7700     78.3900
    439      7.1360    -48.8890     22.6890      0.0100     78.3900
    440      5.2220    -49.0930     23.4280      1.6800     78.3900
    441      4.5760    -49.1750     24.6000      1.7700     78.3900
    442      6.5450    -49.0910     25.9230      1.7700     78.3900
    443      7.2050    -49.1180     27.0900      1.6800     78.3900
    444      6.6700    -48.9810     27.9330      0.0100     78.3900
    445      8.1490    -48.7810     27.1280      0.0100     78.3900
    446      2.3780    -50.5080     22.8190      1.7700     78.3900
    447      3.4200    -50.8920     22.7800      0.0100     78.3900
    448      1.9530    -50.1490     21.5170      1.5900     78.3900
    449      1.8860    -50.9620     20.9920      0.0100     78.3900
    450      1.4560    -51.5360     23.4590      1.7700     78.3900
    451      1.9100    -51.9520     24.3890      0.0100     78.3900
    452      1.0290    -52.5460     22.5370      1.5900     78.3900
    453      1.3960    -54.0590     22.7000      2.1000     78.3900
    454      0.9970    -54.5210     24.0500      1.5900     78.3900
    455      0.7930    -54.7770     21.5550      1.5900     78.3900
    456      2.9640    -54.1230     22.5900      1.5900     78.3900
    457      3.6600    -53.8310     21.3520      1.7700     78.3900
    458      3.2840    -52.8930     20.8810      0.0100     78.3900
    459      3.5190    -54.6510     20.6140      0.0100     78.3900
    460      5.1740    -53.6760     21.5910      1.7700     78.3900
    461      5.7160    -53.5290     20.6330      0.0100     78.3900
    462      5.3950    -52.4840     22.3940      1.5900     78.3900
    463      6.4050    -52.7290     23.3610      1.7700     78.3900
    464      7.1600    -51.9170     23.2460      0.0100     78.3900
    465      5.8600    -52.6740     24.7280      1.6800     78.3900
    466      6.5650    -52.5620     25.8950      1.7700     78.3900
    467      9.5880    -52.3180     27.5600      1.6800     78.3900
    468      9.9350    -52.2380     28.4930      0.0100     78.3900
    469     10.2350    -52.3430     26.7990      0.0100     78.3900
    470      7.9020    -52.5150     26.0050      1.6800     78.3900
    471      8.3040    -52.3850     27.2680      1.7700     78.3900
    472      7.4420    -52.2990     28.3260      1.6800     78.3900
    473      7.8280    -52.2380     29.2530      0.0100     78.3900
    474      6.0570    -52.3220     28.2410      1.7700     78.3900
    475      5.3780    -52.2280     29.2670      1.5900     78.3900
    476      5.6150    -52.5020     26.8990      1.7700     78.3900
    477      4.3300    -52.6200     26.3730      1.6800     78.3900
    478      4.5320    -52.7190     25.0810      1.7700     78.3900
    479      3.7610    -52.8110     24.3160      0.0100     78.3900
    480      7.0370    -54.0630     23.0320      1.7700     78.3900
    481      7.3980    -54.5990     23.9350      0.0100     78.3900
    482      8.1160    -53.8720     22.1340      1.5900     78.3900
    483      8.3470    -54.7370     21.7660      0.0100     78.3900
    484      5.8720    -54.8040     22.3770      1.7700     78.3900
    485      5.1500    -55.1400     23.1570      0.0100     78.3900
    486      6.2680    -55.8670     21.4780      1.5900     78.3900
    487      6.2210    -57.3640     21.9640      2.1000     78.3900
    488      4.8700    -57.6810     22.4770      1.5900     78.3900
    489      6.7320    -58.2410     20.8870      1.5900     78.3900
    490      7.2330    -57.3960     23.1730      1.5900     78.3900
    491      8.6590    -57.3140     22.9420      1.7700     78.3900
    492      8.9300    -56.3270     22.5070      0.0100     78.3900
    493      8.9930    -58.0980     22.2220      0.0100     78.3900
    494      9.4620    -57.4840     24.2410      1.7700     78.3900
    495     10.5470    -57.5900     24.0190      0.0100     78.3900
    496      9.3110    -56.2900     25.0590      1.5900     78.3900
    497      9.2180    -56.6660     26.4290      1.7700     78.3900
    498     10.0270    -56.1020     26.9510      0.0100     78.3900
    499      7.9010    -56.3100     27.0310      1.6800     78.3900
    500      6.8030    -56.1100     26.2270      1.7700     78.3900
    501      6.9750    -56.1960     25.1550      0.0100     78.3900
    502      5.6070    -55.7950     26.7420      1.7700     78.3900
    503      4.7380    -55.5990     26.1170      0.0100     78.3900
    504      7.7660    -56.2270     28.4130      1.7700     78.3900
    505      8.7510    -56.4480     29.1310      1.5900     78.3900
    506      6.5690    -55.9010     28.9520      1.6800     78.3900
    507      5.5040    -55.6960     28.1580      1.7700     78.3900
    508      4.3380    -55.3890     28.7190      1.6800     78.3900
    509      4.2900    -55.2790     29.7140      0.0100     78.3900
    510      3.5500    -55.1010     28.1730      0.0100     78.3900
    511      9.5180    -58.1560     26.5220      1.7700     78.3900
    512      8.9420    -58.6460     27.3370      0.0100     78.3900
    513     10.9110    -58.3710     26.7150      1.5900     78.3900
    514     11.1050    -59.3220     26.6200      0.0100     78.3900
    515      9.0310    -58.6390     25.1580      1.7700     78.3900
    516      7.9220    -58.6970     25.1500      0.0100     78.3900
    517      9.6120    -59.8780     24.7150      1.5900     78.3900
    518      9.2810    -60.6130     25.2610      0.0100     78.3900

     ----------------------------
     INPUT FOR TESSERA DEFINITION
     ----------------------------
     NTSALL  =        60     MTHALL  =         4
     MTHAUT  =         0     AUTFRE  =    2.0000
     NTSFRZ  =        60     KEEPSM  =         0
     AREAKP  =   10.0000     BONDRY  =    1.0000
     AREATL  =    0.0100

     SPHERE     INITS       METHOD
          1        60       FIXPVA
          2        60       FIXPVA
          3        60       FIXPVA
          4        60       FIXPVA
          5        60       FIXPVA
          6        60       FIXPVA
          7        60       FIXPVA
          8        60       FIXPVA
          9        60       FIXPVA
         10        60       FIXPVA
         11        60       FIXPVA
         12        60       FIXPVA
         13        60       FIXPVA
         14        60       FIXPVA
         15        60       FIXPVA
         16        60       FIXPVA
         17        60       FIXPVA
         18        60       FIXPVA
         19        60       FIXPVA
         20        60       FIXPVA
         21        60       FIXPVA
         22        60       FIXPVA
         23        60       FIXPVA
         24        60       FIXPVA
         25        60       FIXPVA
         26        60       FIXPVA
         27        60       FIXPVA
         28        60       FIXPVA
         29        60       FIXPVA
         30        60       FIXPVA
         31        60       FIXPVA
         32        60       FIXPVA
         33        60       FIXPVA
         34        60       FIXPVA
         35        60       FIXPVA
         36        60       FIXPVA
         37        60       FIXPVA
         38        60       FIXPVA
         39        60       FIXPVA
         40        60       FIXPVA
         41        60       FIXPVA
         42        60       FIXPVA
         43        60       FIXPVA
         44        60       FIXPVA
         45        60       FIXPVA
         46        60       FIXPVA
         47        60       FIXPVA
         48        60       FIXPVA
         49        60       FIXPVA
         50        60       FIXPVA
         51        60       FIXPVA
         52        60       FIXPVA
         53        60       FIXPVA
         54        60       FIXPVA
         55        60       FIXPVA
         56        60       FIXPVA
         57        60       FIXPVA
         58        60       FIXPVA
         59        60       FIXPVA
         60        60       FIXPVA
         61        60       FIXPVA
         62        60       FIXPVA
         63        60       FIXPVA
         64        60       FIXPVA
         65        60       FIXPVA
         66        60       FIXPVA
         67        60       FIXPVA
         68        60       FIXPVA
         69        60       FIXPVA
         70        60       FIXPVA
         71        60       FIXPVA
         72        60       FIXPVA
         73        60       FIXPVA
         74        60       FIXPVA
         75        60       FIXPVA
         76        60       FIXPVA
         77        60       FIXPVA
         78        60       FIXPVA
         79        60       FIXPVA
         80        60       FIXPVA
         81        60       FIXPVA
         82        60       FIXPVA
         83        60       FIXPVA
         84        60       FIXPVA
         85        60       FIXPVA
         86        60       FIXPVA
         87        60       FIXPVA
         88        60       FIXPVA
         89        60       FIXPVA
         90        60       FIXPVA
         91        60       FIXPVA
         92        60       FIXPVA
         93        60       FIXPVA
         94        60       FIXPVA
         95        60       FIXPVA
         96        60       FIXPVA
         97        60       FIXPVA
         98        60       FIXPVA
         99        60       FIXPVA
        100        60       FIXPVA
        101        60       FIXPVA
        102        60       FIXPVA
        103        60       FIXPVA
        104        60       FIXPVA
        105        60       FIXPVA
        106        60       FIXPVA
        107        60       FIXPVA
        108        60       FIXPVA
        109        60       FIXPVA
        110        60       FIXPVA
        111        60       FIXPVA
        112        60       FIXPVA
        113        60       FIXPVA
        114        60       FIXPVA
        115        60       FIXPVA
        116        60       FIXPVA
        117        60       FIXPVA
        118        60       FIXPVA
        119        60       FIXPVA
        120        60       FIXPVA
        121        60       FIXPVA
        122        60       FIXPVA
        123        60       FIXPVA
        124        60       FIXPVA
        125        60       FIXPVA
        126        60       FIXPVA
        127        60       FIXPVA
        128        60       FIXPVA
        129        60       FIXPVA
        130        60       FIXPVA
        131        60       FIXPVA
        132        60       FIXPVA
        133        60       FIXPVA
        134        60       FIXPVA
        135        60       FIXPVA
        136        60       FIXPVA
        137        60       FIXPVA
        138        60       FIXPVA
        139        60       FIXPVA
        140        60       FIXPVA
        141        60       FIXPVA
        142        60       FIXPVA
        143        60       FIXPVA
        144        60       FIXPVA
        145        60       FIXPVA
        146        60       FIXPVA
        147        60       FIXPVA
        148        60       FIXPVA
        149        60       FIXPVA
        150        60       FIXPVA
        151        60       FIXPVA
        152        60       FIXPVA
        153        60       FIXPVA
        154        60       FIXPVA
        155        60       FIXPVA
        156        60       FIXPVA
        157        60       FIXPVA
        158        60       FIXPVA
        159        60       FIXPVA
        160        60       FIXPVA
        161        60       FIXPVA
        162        60       FIXPVA
        163        60       FIXPVA
        164        60       FIXPVA
        165        60       FIXPVA
        166        60       FIXPVA
        167        60       FIXPVA
        168        60       FIXPVA
        169        60       FIXPVA
        170        60       FIXPVA
        171        60       FIXPVA
        172        60       FIXPVA
        173        60       FIXPVA
        174        60       FIXPVA
        175        60       FIXPVA
        176        60       FIXPVA
        177        60       FIXPVA
        178        60       FIXPVA
        179        60       FIXPVA
        180        60       FIXPVA
        181        60       FIXPVA
        182        60       FIXPVA
        183        60       FIXPVA
        184        60       FIXPVA
        185        60       FIXPVA
        186        60       FIXPVA
        187        60       FIXPVA
        188        60       FIXPVA
        189        60       FIXPVA
        190        60       FIXPVA
        191        60       FIXPVA
        192        60       FIXPVA
        193        60       FIXPVA
        194        60       FIXPVA
        195        60       FIXPVA
        196        60       FIXPVA
        197        60       FIXPVA
        198        60       FIXPVA
        199        60       FIXPVA
        200        60       FIXPVA
        201        60       FIXPVA
        202        60       FIXPVA
        203        60       FIXPVA
        204        60       FIXPVA
        205        60       FIXPVA
        206        60       FIXPVA
        207        60       FIXPVA
        208        60       FIXPVA
        209        60       FIXPVA
        210        60       FIXPVA
        211        60       FIXPVA
        212        60       FIXPVA
        213        60       FIXPVA
        214        60       FIXPVA
        215        60       FIXPVA
        216        60       FIXPVA
        217        60       FIXPVA
        218        60       FIXPVA
        219        60       FIXPVA
        220        60       FIXPVA
        221        60       FIXPVA
        222        60       FIXPVA
        223        60       FIXPVA
        224        60       FIXPVA
        225        60       FIXPVA
        226        60       FIXPVA
        227        60       FIXPVA
        228        60       FIXPVA
        229        60       FIXPVA
        230        60       FIXPVA
        231        60       FIXPVA
        232        60       FIXPVA
        233        60       FIXPVA
        234        60       FIXPVA
        235        60       FIXPVA
        236        60       FIXPVA
        237        60       FIXPVA
        238        60       FIXPVA
        239        60       FIXPVA
        240        60       FIXPVA
        241        60       FIXPVA
        242        60       FIXPVA
        243        60       FIXPVA
        244        60       FIXPVA
        245        60       FIXPVA
        246        60       FIXPVA
        247        60       FIXPVA
        248        60       FIXPVA
        249        60       FIXPVA
        250        60       FIXPVA
        251        60       FIXPVA
        252        60       FIXPVA
        253        60       FIXPVA
        254        60       FIXPVA
        255        60       FIXPVA
        256        60       FIXPVA
        257        60       FIXPVA
        258        60       FIXPVA
        259        60       FIXPVA
        260        60       FIXPVA
        261        60       FIXPVA
        262        60       FIXPVA
        263        60       FIXPVA
        264        60       FIXPVA
        265        60       FIXPVA
        266        60       FIXPVA
        267        60       FIXPVA
        268        60       FIXPVA
        269        60       FIXPVA
        270        60       FIXPVA
        271        60       FIXPVA
        272        60       FIXPVA
        273        60       FIXPVA
        274        60       FIXPVA
        275        60       FIXPVA
        276        60       FIXPVA
        277        60       FIXPVA
        278        60       FIXPVA
        279        60       FIXPVA
        280        60       FIXPVA
        281        60       FIXPVA
        282        60       FIXPVA
        283        60       FIXPVA
        284        60       FIXPVA
        285        60       FIXPVA
        286        60       FIXPVA
        287        60       FIXPVA
        288        60       FIXPVA
        289        60       FIXPVA
        290        60       FIXPVA
        291        60       FIXPVA
        292        60       FIXPVA
        293        60       FIXPVA
        294        60       FIXPVA
        295        60       FIXPVA
        296        60       FIXPVA
        297        60       FIXPVA
        298        60       FIXPVA
        299        60       FIXPVA
        300        60       FIXPVA
        301        60       FIXPVA
        302        60       FIXPVA
        303        60       FIXPVA
        304        60       FIXPVA
        305        60       FIXPVA
        306        60       FIXPVA
        307        60       FIXPVA
        308        60       FIXPVA
        309        60       FIXPVA
        310        60       FIXPVA
        311        60       FIXPVA
        312        60       FIXPVA
        313        60       FIXPVA
        314        60       FIXPVA
        315        60       FIXPVA
        316        60       FIXPVA
        317        60       FIXPVA
        318        60       FIXPVA
        319        60       FIXPVA
        320        60       FIXPVA
        321        60       FIXPVA
        322        60       FIXPVA
        323        60       FIXPVA
        324        60       FIXPVA
        325        60       FIXPVA
        326        60       FIXPVA
        327        60       FIXPVA
        328        60       FIXPVA
        329        60       FIXPVA
        330        60       FIXPVA
        331        60       FIXPVA
        332        60       FIXPVA
        333        60       FIXPVA
        334        60       FIXPVA
        335        60       FIXPVA
        336        60       FIXPVA
        337        60       FIXPVA
        338        60       FIXPVA
        339        60       FIXPVA
        340        60       FIXPVA
        341        60       FIXPVA
        342        60       FIXPVA
        343        60       FIXPVA
        344        60       FIXPVA
        345        60       FIXPVA
        346        60       FIXPVA
        347        60       FIXPVA
        348        60       FIXPVA
        349        60       FIXPVA
        350        60       FIXPVA
        351        60       FIXPVA
        352        60       FIXPVA
        353        60       FIXPVA
        354        60       FIXPVA
        355        60       FIXPVA
        356        60       FIXPVA
        357        60       FIXPVA
        358        60       FIXPVA
        359        60       FIXPVA
        360        60       FIXPVA
        361        60       FIXPVA
        362        60       FIXPVA
        363        60       FIXPVA
        364        60       FIXPVA
        365        60       FIXPVA
        366        60       FIXPVA
        367        60       FIXPVA
        368        60       FIXPVA
        369        60       FIXPVA
        370        60       FIXPVA
        371        60       FIXPVA
        372        60       FIXPVA
        373        60       FIXPVA
        374        60       FIXPVA
        375        60       FIXPVA
        376        60       FIXPVA
        377        60       FIXPVA
        378        60       FIXPVA
        379        60       FIXPVA
        380        60       FIXPVA
        381        60       FIXPVA
        382        60       FIXPVA
        383        60       FIXPVA
        384        60       FIXPVA
        385        60       FIXPVA
        386        60       FIXPVA
        387        60       FIXPVA
        388        60       FIXPVA
        389        60       FIXPVA
        390        60       FIXPVA
        391        60       FIXPVA
        392        60       FIXPVA
        393        60       FIXPVA
        394        60       FIXPVA
        395        60       FIXPVA
        396        60       FIXPVA
        397        60       FIXPVA
        398        60       FIXPVA
        399        60       FIXPVA
        400        60       FIXPVA
        401        60       FIXPVA
        402        60       FIXPVA
        403        60       FIXPVA
        404        60       FIXPVA
        405        60       FIXPVA
        406        60       FIXPVA
        407        60       FIXPVA
        408        60       FIXPVA
        409        60       FIXPVA
        410        60       FIXPVA
        411        60       FIXPVA
        412        60       FIXPVA
        413        60       FIXPVA
        414        60       FIXPVA
        415        60       FIXPVA
        416        60       FIXPVA
        417        60       FIXPVA
        418        60       FIXPVA
        419        60       FIXPVA
        420        60       FIXPVA
        421        60       FIXPVA
        422        60       FIXPVA
        423        60       FIXPVA
        424        60       FIXPVA
        425        60       FIXPVA
        426        60       FIXPVA
        427        60       FIXPVA
        428        60       FIXPVA
        429        60       FIXPVA
        430        60       FIXPVA
        431        60       FIXPVA
        432        60       FIXPVA
        433        60       FIXPVA
        434        60       FIXPVA
        435        60       FIXPVA
        436        60       FIXPVA
        437        60       FIXPVA
        438        60       FIXPVA
        439        60       FIXPVA
        440        60       FIXPVA
        441        60       FIXPVA
        442        60       FIXPVA
        443        60       FIXPVA
        444        60       FIXPVA
        445        60       FIXPVA
        446        60       FIXPVA
        447        60       FIXPVA
        448        60       FIXPVA
        449        60       FIXPVA
        450        60       FIXPVA
        451        60       FIXPVA
        452        60       FIXPVA
        453        60       FIXPVA
        454        60       FIXPVA
        455        60       FIXPVA
        456        60       FIXPVA
        457        60       FIXPVA
        458        60       FIXPVA
        459        60       FIXPVA
        460        60       FIXPVA
        461        60       FIXPVA
        462        60       FIXPVA
        463        60       FIXPVA
        464        60       FIXPVA
        465        60       FIXPVA
        466        60       FIXPVA
        467        60       FIXPVA
        468        60       FIXPVA
        469        60       FIXPVA
        470        60       FIXPVA
        471        60       FIXPVA
        472        60       FIXPVA
        473        60       FIXPVA
        474        60       FIXPVA
        475        60       FIXPVA
        476        60       FIXPVA
        477        60       FIXPVA
        478        60       FIXPVA
        479        60       FIXPVA
        480        60       FIXPVA
        481        60       FIXPVA
        482        60       FIXPVA
        483        60       FIXPVA
        484        60       FIXPVA
        485        60       FIXPVA
        486        60       FIXPVA
        487        60       FIXPVA
        488        60       FIXPVA
        489        60       FIXPVA
        490        60       FIXPVA
        491        60       FIXPVA
        492        60       FIXPVA
        493        60       FIXPVA
        494        60       FIXPVA
        495        60       FIXPVA
        496        60       FIXPVA
        497        60       FIXPVA
        498        60       FIXPVA
        499        60       FIXPVA
        500        60       FIXPVA
        501        60       FIXPVA
        502        60       FIXPVA
        503        60       FIXPVA
        504        60       FIXPVA
        505        60       FIXPVA
        506        60       FIXPVA
        507        60       FIXPVA
        508        60       FIXPVA
        509        60       FIXPVA
        510        60       FIXPVA
        511        60       FIXPVA
        512        60       FIXPVA
        513        60       FIXPVA
        514        60       FIXPVA
        515        60       FIXPVA
        516        60       FIXPVA
        517        60       FIXPVA
        518        60       FIXPVA

     ------------------------------
      FIXPVA TESSELLATION FOR PCM
         PEIFENG SU AND HUI LI
     UNIVERSITY OF NEBRASKA-LINCOLN
     ------------------------------


 PCM DIMENSIONS: MXSP=   518, MXTS=     20720, MEMORY=        212901

     INPUT FOR CAVITY DEFINITION 
     ---------------------------
   ATOM               COORDINATES                RADIUS       EPS
      1      3.6450    -53.9540     39.6810      0.0100     78.3900
      2      4.3990    -54.1120     39.0820      1.5900     78.3900
      3      5.4610    -54.6440     39.8880      1.7700     78.3900
      4      5.0880    -55.5390     40.4370      0.0100     78.3900
      5      5.7650    -53.8850     40.6440      0.0100     78.3900
      6      6.6890    -55.0500     39.0680      1.7700     78.3900
      7      7.4860    -55.4620     39.7220      0.0100     78.3900
      8      6.3210    -56.0970     38.1220      1.5900     78.3900
      9      7.0140    -55.8930     36.9030      1.7700     78.3900
     10      7.5750    -56.8320     36.6890      0.0100     78.3900
     11      6.0850    -55.6310     35.7920      1.6800     78.3900
     12      6.3800    -55.7150     34.4570      1.7700     78.3900
     13      8.6380    -56.3670     31.9180      1.6800     78.3900
     14      9.4780    -56.5770     32.4170      0.0100     78.3900
     15      8.6500    -56.3960     30.9150      0.0100     78.3900
     16      7.5750    -56.0310     33.9320      1.6800     78.3900
     17      7.5520    -56.0680     32.6040      1.7700     78.3900
     18      6.4250    -55.8150     31.8650      1.6800     78.3900
     19      6.4890    -55.8860     30.8610      0.0100     78.3900
     20      5.1740    -55.4950     32.3780      1.7700     78.3900
     21      4.2080    -55.2920     31.6350      1.5900     78.3900
     22      5.2000    -55.4300     33.7970      1.7700     78.3900
     23      4.1840    -55.1500     34.7010      1.6800     78.3900
     24      4.7530    -55.2820     35.8780      1.7700     78.3900
     25      4.2600    -55.1430     36.8440      0.0100     78.3900
     26      7.9950    -54.7620     37.1200      1.7700     78.3900
     27      8.1680    -54.1700     36.2000      0.0100     78.3900
     28      9.2220    -55.2800     37.5920      1.5900     78.3900
     29      9.7520    -54.5220     37.8720      0.0100     78.3900
     30      7.2970    -53.9380     38.1970      1.7700     78.3900
     31      6.4430    -53.3700     37.7550      0.0100     78.3900
     32      8.1800    -53.1120     38.9960      1.5900     78.3900
     33      8.4510    -51.6250     38.5530      2.1000     78.3900
     34      7.1410    -50.9720     38.3710      1.5900     78.3900
     35      9.4010    -50.9840     39.4870      1.5900     78.3900
     36      9.1350    -51.7570     37.1460      1.5900     78.3900
     37     10.5030    -52.1870     36.9720      1.7700     78.3900
     38     10.6680    -53.1990     37.4050      0.0100     78.3900
     39     11.2080    -51.4880     37.4830      0.0100     78.3900
     40     10.8780    -52.2430     35.4810      1.7700     78.3900
     41     11.9250    -52.5940     35.3500      0.0100     78.3900
     42     10.0170    -53.1840     34.7710      1.5900     78.3900
     43      9.7060    -52.6720     33.4810      1.7700     78.3900
     44     10.0610    -53.4470     32.7580      0.0100     78.3900
     45      8.2360    -52.4450     33.3030      1.6800     78.3900
     46      7.4130    -52.3000     34.3960      1.7700     78.3900
     47      7.9110    -52.3590     35.3610      0.0100     78.3900
     48      7.7180    -52.4010     32.0250      1.7700     78.3900
     49      8.4090    -52.5160     31.0200      1.5900     78.3900
     50      6.3550    -52.2330     31.9590      1.6800     78.3900
     51      5.9410    -52.2120     31.0400      0.0100     78.3900
     52      5.4750    -52.1150     33.0080      1.7700     78.3900
     53      4.2750    -51.9960     32.7880      1.5900     78.3900
     54      6.0850    -52.1510     34.3010      1.7700     78.3900
     55      5.4530    -52.0760     35.1840      0.0100     78.3900
     56     10.5310    -51.4080     33.2950      1.7700     78.3900
     57     10.0000    -50.6530     32.6810      0.0100     78.3900
     58     11.7780    -51.7210     32.7040      1.5900     78.3900
     59     12.3020    -50.9040     32.7060      0.0100     78.3900
     60     10.7120    -50.9180     34.7290      1.7700     78.3900
     61      9.7670    -50.4590     35.0980      0.0100     78.3900
     62     11.8690    -50.0730     34.9590      1.5900     78.3900
     63     11.7480    -48.5400     34.5980      2.1000     78.3900
     64     10.4670    -48.0320     35.1370      1.5900     78.3900
     65     12.9790    -47.8590     35.0430      1.5900     78.3900
     66     11.6970    -48.4980     33.0260      1.5900     78.3900
     67     11.1840    -47.3080     32.3700      1.7700     78.3900
     68     12.0030    -46.5740     32.2210      0.0100     78.3900
     69     10.3950    -46.7960     32.9770      0.0100     78.3900
     70     10.5620    -47.6280     31.0010      1.7700     78.3900
     71     11.3390    -47.8680     30.2460      0.0100     78.3900
     72      9.6970    -48.7950     31.1170      1.5900     78.3900
     73      8.4980    -48.5860     30.4050      1.7700     78.3900
     74      8.4200    -49.4480     29.7050      0.0100     78.3900
     75      7.2930    -48.5820     31.2900      1.6800     78.3900
     76      7.4080    -48.6680     32.6660      1.7700     78.3900
     77      8.4250    -48.7130     33.0680      0.0100     78.3900
     78      6.3200    -48.6940     33.4530      1.7700     78.3900
     79      6.3870    -48.7710     34.5350      0.0100     78.3900
     80      6.0300    -48.5310     30.7100      1.7700     78.3900
     81      5.9410    -48.4690     29.4780      1.5900     78.3900
     82      4.9340    -48.5510     31.4860      1.6800     78.3900
[...]
   466   15   6.0   0.00    0.0    0.000000    0.712670    0.712057
   467   15   7.0  20.21   39.6   -0.199349   -0.991759   -1.003234
   468   15   1.0   0.00    0.0    0.000000    0.452642    0.449162
   469   15   1.0   0.00    0.0    0.000000    0.454482    0.451391
   470   15   7.0   4.06    8.0    0.075734   -0.750128   -0.757119
   471   15   6.0   0.00    0.0    0.000227    1.006924    1.005595
   472   15   7.0   0.00    0.0    0.000145   -0.932703   -1.005058
   473   15   1.0   0.00    0.0    0.000000    0.454927    0.511691
   474   15   6.0   0.00    0.0    0.000000    0.905517    0.906568
   475   15   8.0   4.94   10.8    0.131763   -0.762518   -0.727007
   476   15   6.0   0.00    0.0    0.000000   -0.049797   -0.037195
   477   15   7.0   6.13   12.0    0.123970   -0.593111   -0.597922
   478   15   6.0   1.36    2.4    0.007665    0.295298    0.278020
   479   15   1.0   0.00    0.0    0.000000    0.245431    0.281698
   480   15   6.0   0.30    0.5    0.006907    0.136731    0.117708
   481   15   1.0   0.00    0.0    0.000000    0.197638    0.224322
   482   15   8.0  17.31   37.8    0.067789   -0.830170   -0.845407
   483   15   1.0   0.00    0.0    0.000000    0.500066    0.517801
   484   15   6.0   0.57    1.0   -0.013611    0.135449    0.100067
   485   15   1.0   0.00    0.0    0.000000    0.245407    0.250687
   486   15   8.0   4.60   10.1    0.052706   -0.790929   -0.797050
   487   15  15.0  11.65   14.6    0.155604    1.603376    1.643529
   488   15   8.0  14.60   31.9    0.325447   -0.893358   -0.887114
   489   15   8.0  16.61   36.3    0.326556   -0.893384   -0.888510
   490   15   8.0   1.28    2.8    0.025106   -0.980031   -0.791164
   491   16   6.0  10.56   18.6   -0.071824    0.195142   -0.019985
   492   16   1.0   0.00    0.0    0.000000    0.157350    0.168597
   493   16   1.0   0.00    0.0    0.000000    0.247941    0.226899
   494   16   6.0   5.95   10.5   -0.048446    0.094660    0.148312
   495   16   1.0   0.00    0.0    0.000000    0.250181    0.221834
   496   16   8.0   3.91    8.5    0.048124   -0.725305   -0.732484
   497   16   6.0   4.97    8.8   -0.036897    0.415070    0.415199
   498   16   1.0   0.00    0.0    0.000000    0.257932    0.248359
   499   16   7.0   0.00    0.0    0.000000   -0.824902   -0.832983
   500   16   6.0   2.32    4.1   -0.007388    0.198136    0.176777
   501   16   1.0   0.00    0.0    0.000000    0.295256    0.318754
   502   16   6.0   8.39   14.8   -0.045272   -0.389179   -0.399654
   503   16   1.0   0.00    0.0    0.000000    0.275874    0.283363
   504   16   6.0   2.82    5.0   -0.004785    1.064252    1.071646
   505   16   8.0  10.37   22.7    0.145398   -0.798821   -0.769189
   506   16   7.0   1.71    3.3    0.018237   -0.869568   -0.862069
   507   16   6.0   1.86    3.3   -0.000978    0.726043    0.736520
   508   16   7.0  14.30   28.0   -0.070641   -0.949666   -0.999787
   509   16   1.0   0.00    0.0    0.000000    0.460535    0.500801
   510   16   1.0   0.00    0.0    0.000000    0.450952    0.449966
   511   16   6.0   7.29   12.9   -0.065669    0.123892    0.124155
   512   16   1.0   0.00    0.0    0.000000    0.226728    0.226843
   513   16   8.0  20.70   45.3    0.051893   -0.838436   -0.841903
   514   16   1.0   0.00    0.0    0.000000    0.500661    0.501585
   515   16   6.0   5.38    9.5   -0.043501    0.166446    0.147276
   516   16   1.0   0.00    0.0    0.000000    0.218550    0.222389
   517   16   8.0  22.44   49.0   -0.012845   -0.850013   -0.852565
   518   16   1.0   0.00    0.0    0.000000    0.507805    0.507924

 Done with FMO properties.
 CPU     0: STEP CPU TIME=     0.01 TOTAL CPU TIME=      39486.2 (    658.1 MIN)
 TOTAL WALL CLOCK TIME=      93550.5 SECONDS, CPU UTILIZATION IS    42.21%
 CPU     0: STEP CPU TIME=     0.00 TOTAL CPU TIME=      39486.2 (    658.1 MIN)
 TOTAL WALL CLOCK TIME=      93550.5 SECONDS, CPU UTILIZATION IS    42.21%

 Total timing statistics in pairs (CPU,wall) for each rank, sec

    Rank   total     SCF    corr     DFT    CPHF     EFP    solv     ESP    geom
 -------------------------------------------------------------------------------
       1   39486.2   9498.4  15525.3      0.0    0.0   0.0  347.0 13343.7    0.0
       1   93550.6  20152.5  43583.7      0.0    0.0   0.0  905.6 27122.0    0.0
       2   38392.8   9385.4  14554.2      0.0    0.0   0.0  351.0 13339.8    0.0
       2   93550.6  20139.4  43585.1      0.0    0.0   0.0  906.1 27121.0    0.0
       3   39069.5   9437.7  15045.9      0.0    0.0   0.0  351.5 13470.2    0.0
       3   93550.6  20139.3  43585.0      0.0    0.0   0.0  906.4 27121.1    0.0
       4   39292.9   9442.1  15356.9      0.0    0.0   0.0  350.3 13384.8    0.0
       4   93550.6  20140.4  43585.0      0.0    0.0   0.0  904.8 27120.8    0.0
       5   37908.1   9421.7  13708.4      0.0    0.0   0.0  346.3 13656.1    0.0
       5   93550.6  20140.4  43585.0      0.0    0.0   0.0  905.5 27121.1    0.0
       6   38138.4   9366.9  13931.5      0.0    0.0   0.0  346.6 13746.0    0.0
       6   93550.6  20141.3  43585.0      0.0    0.0   0.0  904.1 27120.7    0.0
       7   37477.1   9347.2  13710.8      0.0    0.0   0.0  346.2 13372.9    0.0
       7   93550.6  20141.1  43585.0      0.0    0.0   0.0  904.5 27120.7    0.0
       8   37444.9   9318.0  13884.5      0.0    0.0   0.0  347.2 13194.1    0.0
       8   93550.6  20142.0  43585.0      0.0    0.0   0.0  902.6 27120.5    0.0
       9   38070.5   9424.3  14068.0      0.0    0.0   0.0  340.3 13486.7    0.0
       9   93550.6  20142.3  43584.9      0.0    0.0   0.0  903.4 27121.3    0.0
      10   37367.3   9327.7  13585.6      0.0    0.0   0.0  343.7 13412.3    0.0
      10   93550.6  20141.6  43584.9      0.0    0.0   0.0  903.4 27121.2    0.0
      11   39198.4   9365.7  15581.6      0.0    0.0   0.0  340.2 13185.5    0.0
      11   93550.6  20142.9  43584.8      0.0    0.0   0.0  902.7 27121.1    0.0
      12   39289.6   9408.6  15357.5      0.0    0.0   0.0  341.9 13427.7    0.0
      12   93550.6  20143.3  43584.8      0.0    0.0   0.0  901.5 27120.9    0.0
      13   38847.6   9395.1  15192.9      0.0    0.0   0.0  338.1 13195.4    0.0
      13   93550.6  20144.5  43584.8      0.0    0.0   0.0  901.7 27121.0    0.0
      14   37887.9   9400.3  13923.4      0.0    0.0   0.0  341.3 13484.9    0.0
      14   93550.6  20143.9  43584.8      0.0    0.0   0.0  901.5 27120.9    0.0
      15   38172.4   9426.8  14611.2      0.0    0.0   0.0  342.0 13074.5    0.0
      15   93550.6  20143.7  43584.9      0.0    0.0   0.0  901.5 27120.8    0.0
      16   36873.0   9279.0  13625.5      0.0    0.0   0.0  341.2 12919.4    0.0
      16   93550.6  20143.8  43584.8      0.0    0.0   0.0  900.3 27120.7    0.0
averaged   38307.3   9390.3  14478.9      0.0    0.0   0.0  344.7 13355.9    0.0
averaged   93550.6  20142.6  43584.8      0.0    0.0   0.0  903.5 27121.0    0.0

  FMO  timing statistics in pairs (CPU,wall) for each rank, sec

    Rank  FMOini FMOscf1  FMOdm1 FMOsyn1 FMOscf2  FMOes2 FMOsyn2 FMOscf3 FMOsyn3
 -------------------------------------------------------------------------------
       1    3.5   13065.5    0.5    0.0   25849.7     566.9    0.0    0.0    0.0
       1    9.2   27523.7    3.7    0.0   64900.6    1113.1    0.0    0.0    0.0
       2    2.6   13000.9    0.1    0.0   24826.9     562.2    0.0    0.0    0.0
       2    9.2   27523.7    3.7    0.0   64903.8    1109.9    0.0    0.0    0.0
       3    2.9   13216.7    0.2    0.0   25286.6     563.1    0.0    0.0    0.0
       3    9.2   27523.7    3.7    0.0   64908.9    1104.8    0.0    0.0    0.0
       4    2.6   13079.8    0.2    0.0   25652.5     557.7    0.0    0.0    0.0
       4    9.2   27523.7    3.7    0.0   64902.9    1110.8    0.0    0.0    0.0
       5    3.1   13395.8    0.3    0.0   23933.8     575.0    0.0    0.0    0.0
       5    9.2   27523.7    3.7    0.0   64904.4    1109.3    0.0    0.0    0.0
       6    2.7   13387.0    0.1    0.0   24199.1     549.5    0.0    0.0    0.0
       6    9.2   27523.7    3.7    0.0   64906.1    1107.6    0.0    0.0    0.0
       7    2.9   13351.3    0.2    0.0   23622.4     500.4    0.0    0.0    0.0
       7    9.2   27523.7    3.7    0.0   64905.1    1108.6    0.0    0.0    0.0
       8    2.5   13251.0    0.1    0.0   23687.4     503.8    0.0    0.0    0.0
       8    9.2   27523.7    3.7    0.0   64904.9    1108.8    0.0    0.0    0.0
       9    3.1   13339.5    0.4    0.0   24170.7     556.7    0.0    0.0    0.0
       9    9.2   27523.7    3.7    0.0   64909.0    1104.7    0.0    0.0    0.0
      10    2.5   13343.1    0.1    0.0   23518.8     502.8    0.0    0.0    0.0
      10    9.2   27523.7    3.7    0.0   64903.7    1110.0    0.0    0.0    0.0
      11    2.6   13150.0    0.2    0.0   25513.8     531.7    0.0    0.0    0.0
      11    9.2   27523.7    3.7    0.0   64904.7    1109.0    0.0    0.0    0.0
      12    2.3   13295.3    0.1    0.0   25430.3     561.5    0.0    0.0    0.0
      12    9.2   27523.7    3.7    0.0   64907.5    1106.2    0.0    0.0    0.0
      13    2.8   13290.7    0.3    0.0   25018.9     534.8    0.0    0.0    0.0
      13    9.2   27523.7    3.7    0.0   64906.4    1107.3    0.0    0.0    0.0
      14    2.3   13318.0    0.2    0.0   24020.5     546.9    0.0    0.0    0.0
      14    9.2   27523.7    3.7    0.0   64904.5    1109.2    0.0    0.0    0.0
      15    2.6   13261.9    0.2    0.0   24383.7     524.1    0.0    0.0    0.0
      15    9.2   27523.7    3.7    0.0   64908.2    1105.5    0.0    0.0    0.0
      16    2.4   13131.7    0.1    0.0   23221.9     516.9    0.0    0.0    0.0
      16    9.2   27523.7    3.7    0.0   64906.8    1106.9    0.0    0.0    0.0
averaged    2.7   13242.4    0.2    0.0   24521.1     540.9    0.0    0.0    0.0
averaged    9.2   27523.7    3.7    0.0   64905.5    1108.2    0.0    0.0    0.0
             62740072  WORDS OF DYNAMIC MEMORY USED
 EXECUTION OF GAMESS TERMINATED NORMALLY Sun Dec  8 10:23:03 2019
 DDI: 263640 bytes (0.3 MB / 0 MWords) used by master data server.

 ----------------------------------------
 CPU timing information for all processes
 ========================================
 0: 38582.444 + 903.730 = 39486.175
 1: 37588.953 + 803.817 = 38392.771
 2: 38216.734 + 852.838 = 39069.572
 3: 38442.602 + 850.300 = 39292.902
 4: 37101.647 + 806.442 = 37908.90
 5: 37368.281 + 770.153 = 38138.434
 6: 36672.963 + 804.198 = 37477.161
 7: 36693.618 + 751.296 = 37444.915
 8: 37239.834 + 830.665 = 38070.500
 9: 36639.942 + 727.391 = 37367.334
 10: 38331.982 + 866.437 = 39198.419
 11: 38436.972 + 852.610 = 39289.582
 12: 38003.532 + 844.71 = 38847.603
 13: 37138.780 + 749.116 = 37887.897
 14: 37345.852 + 826.601 = 38172.454
 15: 36112.372 + 760.632 = 36873.04
 ----------------------------------------
 ddikick.x: exited gracefully.
----- accounting info -----
Files used on the master node gollum082.lsa.umich.edu were:
-rw-r--r-- 1 hazwong frank    25668 Dec  7 08:23 /scratch/hazwong/824957/28SR_4/usrc/28SR_4_fmo_input.F05
-rw-r--r-- 1 hazwong frank      634 Dec  8 10:23 /scratch/hazwong/824957/28SR_4/usrc/28SR_4_fmo_input.F06.001
-rw-r--r-- 1 hazwong frank      634 Dec  8 10:23 /scratch/hazwong/824957/28SR_4/usrc/28SR_4_fmo_input.F06.002
-rw-r--r-- 1 hazwong frank      634 Dec  8 10:23 /scratch/hazwong/824957/28SR_4/usrc/28SR_4_fmo_input.F06.003
-rw-r--r-- 1 hazwong frank      634 Dec  8 10:23 /scratch/hazwong/824957/28SR_4/usrc/28SR_4_fmo_input.F06.004
-rw-r--r-- 1 hazwong frank      634 Dec  8 10:23 /scratch/hazwong/824957/28SR_4/usrc/28SR_4_fmo_input.F06.005
-rw-r--r-- 1 hazwong frank      634 Dec  8 10:23 /scratch/hazwong/824957/28SR_4/usrc/28SR_4_fmo_input.F06.006
-rw-r--r-- 1 hazwong frank      634 Dec  8 10:23 /scratch/hazwong/824957/28SR_4/usrc/28SR_4_fmo_input.F06.007
-rw-r--r-- 1 hazwong frank      634 Dec  8 10:23 /scratch/hazwong/824957/28SR_4/usrc/28SR_4_fmo_input.F06.008
-rw-r--r-- 1 hazwong frank      634 Dec  8 10:23 /scratch/hazwong/824957/28SR_4/usrc/28SR_4_fmo_input.F06.009
-rw-r--r-- 1 hazwong frank      634 Dec  8 10:23 /scratch/hazwong/824957/28SR_4/usrc/28SR_4_fmo_input.F06.010
-rw-r--r-- 1 hazwong frank      634 Dec  8 10:23 /scratch/hazwong/824957/28SR_4/usrc/28SR_4_fmo_input.F06.011
-rw-r--r-- 1 hazwong frank      634 Dec  8 10:23 /scratch/hazwong/824957/28SR_4/usrc/28SR_4_fmo_input.F06.012
-rw-r--r-- 1 hazwong frank      634 Dec  8 10:23 /scratch/hazwong/824957/28SR_4/usrc/28SR_4_fmo_input.F06.013
-rw-r--r-- 1 hazwong frank      634 Dec  8 10:23 /scratch/hazwong/824957/28SR_4/usrc/28SR_4_fmo_input.F06.014
-rw-r--r-- 1 hazwong frank      634 Dec  8 10:23 /scratch/hazwong/824957/28SR_4/usrc/28SR_4_fmo_input.F06.015
-rw-r--r-- 1 hazwong frank    21906 Dec  8 10:23 /scratch/hazwong/824957/28SR_4/usrc/28SR_4_fmo_input.F07
-rw-r--r-- 1 hazwong frank        0 Dec  7 08:23 /scratch/hazwong/824957/28SR_4/usrc/28SR_4_fmo_input.F07.001
-rw-r--r-- 1 hazwong frank        0 Dec  7 08:23 /scratch/hazwong/824957/28SR_4/usrc/28SR_4_fmo_input.F07.002
-rw-r--r-- 1 hazwong frank        0 Dec  7 08:23 /scratch/hazwong/824957/28SR_4/usrc/28SR_4_fmo_input.F07.003
-rw-r--r-- 1 hazwong frank        0 Dec  7 08:23 /scratch/hazwong/824957/28SR_4/usrc/28SR_4_fmo_input.F07.004
-rw-r--r-- 1 hazwong frank        0 Dec  7 08:23 /scratch/hazwong/824957/28SR_4/usrc/28SR_4_fmo_input.F07.005
-rw-r--r-- 1 hazwong frank        0 Dec  7 08:23 /scratch/hazwong/824957/28SR_4/usrc/28SR_4_fmo_input.F07.006
-rw-r--r-- 1 hazwong frank        0 Dec  7 08:23 /scratch/hazwong/824957/28SR_4/usrc/28SR_4_fmo_input.F07.007
-rw-r--r-- 1 hazwong frank        0 Dec  7 08:23 /scratch/hazwong/824957/28SR_4/usrc/28SR_4_fmo_input.F07.008
-rw-r--r-- 1 hazwong frank        0 Dec  7 08:23 /scratch/hazwong/824957/28SR_4/usrc/28SR_4_fmo_input.F07.009
-rw-r--r-- 1 hazwong frank        0 Dec  7 08:23 /scratch/hazwong/824957/28SR_4/usrc/28SR_4_fmo_input.F07.010
-rw-r--r-- 1 hazwong frank        0 Dec  7 08:23 /scratch/hazwong/824957/28SR_4/usrc/28SR_4_fmo_input.F07.011
-rw-r--r-- 1 hazwong frank        0 Dec  7 08:23 /scratch/hazwong/824957/28SR_4/usrc/28SR_4_fmo_input.F07.012
-rw-r--r-- 1 hazwong frank        0 Dec  7 08:23 /scratch/hazwong/824957/28SR_4/usrc/28SR_4_fmo_input.F07.013
-rw-r--r-- 1 hazwong frank        0 Dec  7 08:23 /scratch/hazwong/824957/28SR_4/usrc/28SR_4_fmo_input.F07.014
-rw-r--r-- 1 hazwong frank        0 Dec  7 08:23 /scratch/hazwong/824957/28SR_4/usrc/28SR_4_fmo_input.F07.015
-rw-r--r-- 1 hazwong frank    65440 Dec  8 10:23 /scratch/hazwong/824957/28SR_4/usrc/28SR_4_fmo_input.F10.000
-rw-r--r-- 1 hazwong frank        0 Dec  7 08:23 /scratch/hazwong/824957/28SR_4/usrc/28SR_4_fmo_input.F26.000
-rw-r--r-- 1 hazwong frank        0 Dec  7 08:23 /scratch/hazwong/824957/28SR_4/usrc/28SR_4_fmo_input.F26.001
-rw-r--r-- 1 hazwong frank        0 Dec  7 08:23 /scratch/hazwong/824957/28SR_4/usrc/28SR_4_fmo_input.F26.002
-rw-r--r-- 1 hazwong frank        0 Dec  7 08:23 /scratch/hazwong/824957/28SR_4/usrc/28SR_4_fmo_input.F26.003
-rw-r--r-- 1 hazwong frank        0 Dec  7 08:23 /scratch/hazwong/824957/28SR_4/usrc/28SR_4_fmo_input.F26.004
-rw-r--r-- 1 hazwong frank        0 Dec  7 08:23 /scratch/hazwong/824957/28SR_4/usrc/28SR_4_fmo_input.F26.005
-rw-r--r-- 1 hazwong frank        0 Dec  7 08:23 /scratch/hazwong/824957/28SR_4/usrc/28SR_4_fmo_input.F26.006
-rw-r--r-- 1 hazwong frank        0 Dec  7 08:23 /scratch/hazwong/824957/28SR_4/usrc/28SR_4_fmo_input.F26.007
-rw-r--r-- 1 hazwong frank        0 Dec  7 08:23 /scratch/hazwong/824957/28SR_4/usrc/28SR_4_fmo_input.F26.008
-rw-r--r-- 1 hazwong frank        0 Dec  7 08:23 /scratch/hazwong/824957/28SR_4/usrc/28SR_4_fmo_input.F26.009
-rw-r--r-- 1 hazwong frank        0 Dec  7 08:23 /scratch/hazwong/824957/28SR_4/usrc/28SR_4_fmo_input.F26.010
-rw-r--r-- 1 hazwong frank        0 Dec  7 08:23 /scratch/hazwong/824957/28SR_4/usrc/28SR_4_fmo_input.F26.011
-rw-r--r-- 1 hazwong frank        0 Dec  7 08:23 /scratch/hazwong/824957/28SR_4/usrc/28SR_4_fmo_input.F26.012
-rw-r--r-- 1 hazwong frank        0 Dec  7 08:23 /scratch/hazwong/824957/28SR_4/usrc/28SR_4_fmo_input.F26.013
-rw-r--r-- 1 hazwong frank        0 Dec  7 08:23 /scratch/hazwong/824957/28SR_4/usrc/28SR_4_fmo_input.F26.014
-rw-r--r-- 1 hazwong frank        0 Dec  7 08:23 /scratch/hazwong/824957/28SR_4/usrc/28SR_4_fmo_input.F26.015
-rw-r--r-- 1 hazwong frank        0 Dec  7 08:23 /scratch/hazwong/824957/28SR_4/usrc/28SR_4_fmo_input.F27.000
-rw-r--r-- 1 hazwong frank        0 Dec  7 08:23 /scratch/hazwong/824957/28SR_4/usrc/28SR_4_fmo_input.F27.001
-rw-r--r-- 1 hazwong frank        0 Dec  7 08:23 /scratch/hazwong/824957/28SR_4/usrc/28SR_4_fmo_input.F27.002
-rw-r--r-- 1 hazwong frank        0 Dec  7 08:23 /scratch/hazwong/824957/28SR_4/usrc/28SR_4_fmo_input.F27.003
-rw-r--r-- 1 hazwong frank        0 Dec  7 08:23 /scratch/hazwong/824957/28SR_4/usrc/28SR_4_fmo_input.F27.004
-rw-r--r-- 1 hazwong frank        0 Dec  7 08:23 /scratch/hazwong/824957/28SR_4/usrc/28SR_4_fmo_input.F27.005
-rw-r--r-- 1 hazwong frank        0 Dec  7 08:23 /scratch/hazwong/824957/28SR_4/usrc/28SR_4_fmo_input.F27.006
-rw-r--r-- 1 hazwong frank        0 Dec  7 08:23 /scratch/hazwong/824957/28SR_4/usrc/28SR_4_fmo_input.F27.007
-rw-r--r-- 1 hazwong frank        0 Dec  7 08:23 /scratch/hazwong/824957/28SR_4/usrc/28SR_4_fmo_input.F27.008
-rw-r--r-- 1 hazwong frank        0 Dec  7 08:23 /scratch/hazwong/824957/28SR_4/usrc/28SR_4_fmo_input.F27.009
-rw-r--r-- 1 hazwong frank        0 Dec  7 08:23 /scratch/hazwong/824957/28SR_4/usrc/28SR_4_fmo_input.F27.010
-rw-r--r-- 1 hazwong frank        0 Dec  7 08:23 /scratch/hazwong/824957/28SR_4/usrc/28SR_4_fmo_input.F27.011
-rw-r--r-- 1 hazwong frank        0 Dec  7 08:23 /scratch/hazwong/824957/28SR_4/usrc/28SR_4_fmo_input.F27.012
-rw-r--r-- 1 hazwong frank        0 Dec  7 08:23 /scratch/hazwong/824957/28SR_4/usrc/28SR_4_fmo_input.F27.013
-rw-r--r-- 1 hazwong frank        0 Dec  7 08:23 /scratch/hazwong/824957/28SR_4/usrc/28SR_4_fmo_input.F27.014
-rw-r--r-- 1 hazwong frank        0 Dec  7 08:23 /scratch/hazwong/824957/28SR_4/usrc/28SR_4_fmo_input.F27.015
-rw-r--r-- 1 hazwong frank 33538048 Dec  7 16:02 /scratch/hazwong/824957/28SR_4/usrc/28SR_4_fmo_input.F40.000
-rw-r--r-- 1 hazwong frank 33538048 Dec  7 16:02 /scratch/hazwong/824957/28SR_4/usrc/28SR_4_fmo_input.F40.001
-rw-r--r-- 1 hazwong frank 33538048 Dec  7 16:02 /scratch/hazwong/824957/28SR_4/usrc/28SR_4_fmo_input.F40.002
-rw-r--r-- 1 hazwong frank 33538048 Dec  7 16:02 /scratch/hazwong/824957/28SR_4/usrc/28SR_4_fmo_input.F40.003
-rw-r--r-- 1 hazwong frank 33538048 Dec  7 16:02 /scratch/hazwong/824957/28SR_4/usrc/28SR_4_fmo_input.F40.004
-rw-r--r-- 1 hazwong frank 33538048 Dec  7 16:02 /scratch/hazwong/824957/28SR_4/usrc/28SR_4_fmo_input.F40.005
-rw-r--r-- 1 hazwong frank 33538048 Dec  7 16:02 /scratch/hazwong/824957/28SR_4/usrc/28SR_4_fmo_input.F40.006
-rw-r--r-- 1 hazwong frank 33538048 Dec  7 16:02 /scratch/hazwong/824957/28SR_4/usrc/28SR_4_fmo_input.F40.007
-rw-r--r-- 1 hazwong frank 33538048 Dec  7 16:02 /scratch/hazwong/824957/28SR_4/usrc/28SR_4_fmo_input.F40.008
-rw-r--r-- 1 hazwong frank 33538048 Dec  7 16:02 /scratch/hazwong/824957/28SR_4/usrc/28SR_4_fmo_input.F40.009
-rw-r--r-- 1 hazwong frank 33538048 Dec  7 16:02 /scratch/hazwong/824957/28SR_4/usrc/28SR_4_fmo_input.F40.010
-rw-r--r-- 1 hazwong frank 33538048 Dec  7 16:02 /scratch/hazwong/824957/28SR_4/usrc/28SR_4_fmo_input.F40.011
-rw-r--r-- 1 hazwong frank 33538048 Dec  7 16:02 /scratch/hazwong/824957/28SR_4/usrc/28SR_4_fmo_input.F40.012
-rw-r--r-- 1 hazwong frank 33538048 Dec  7 16:02 /scratch/hazwong/824957/28SR_4/usrc/28SR_4_fmo_input.F40.013
-rw-r--r-- 1 hazwong frank 33538048 Dec  7 16:02 /scratch/hazwong/824957/28SR_4/usrc/28SR_4_fmo_input.F40.014
-rw-r--r-- 1 hazwong frank 33538048 Dec  7 16:02 /scratch/hazwong/824957/28SR_4/usrc/28SR_4_fmo_input.F40.015
Sun Dec  8 10:23:06 EST 2019
0.200u 0.103s 25:59:14.19 0.0%	0+0k 1600+184io 26pf+0w
