----- GAMESS execution script 'rungms' -----
This job is running on host gollum050.lsa.umich.edu
under operating system Linux at Sun Nov 17 21:45:39 EST 2019
Available scratch disk space (Kbyte units) at beginning of the job is
Filesystem     1K-blocks  Used Available Use% Mounted on
/dev/sda4      426933580 33532 426900048   1% /scratch
GAMESS temporary binary files will be written to /scratch/hazwong/638839/2ADT_4/usrc
GAMESS supplementary output files will be written to /scratch/hazwong/638839/2ADT_4/src
Copying input file 2ADT_4_fmo_input.inp to your run's scratch directory...
This is a GDDI run, keeping various output files on local disks
 
Assuming a single but multicore node.
 

 Distributed Data Interface kickoff program.
 Initiating 16 compute processes on 1 nodes to run the following command:
 /export/apps/CentOS7/gamess/src/build//gamess.R3.x 2ADT_4_fmo_input 

          ******************************************************
          *         GAMESS VERSION = 30 SEP 2018 (R3)         *
          *             FROM IOWA STATE UNIVERSITY             *
          * M.W.SCHMIDT, K.K.BALDRIDGE, J.A.BOATZ, S.T.ELBERT, *
          *   M.S.GORDON, J.H.JENSEN, S.KOSEKI, N.MATSUNAGA,   *
          *          K.A.NGUYEN, S.J.SU, T.L.WINDUS,           *
          *       TOGETHER WITH M.DUPUIS, J.A.MONTGOMERY       *
          *         J.COMPUT.CHEM.  14, 1347-1363(1993)        *
          **************** 64 BIT LINUX VERSION ****************

  SINCE 1993, STUDENTS AND POSTDOCS WORKING AT IOWA STATE UNIVERSITY
  AND ALSO IN THEIR VARIOUS JOBS AFTER LEAVING ISU HAVE MADE IMPORTANT
  CONTRIBUTIONS TO THE CODE:
     IVANA ADAMOVIC, CHRISTINE AIKENS, YURI ALEXEEV, POOJA ARORA,
     ANDREY ASADCHEV, ROB BELL, PRADIPTA BANDYOPADHYAY, JONATHAN BENTZ,
     BRETT BODE, KURT BRORSEN, CALEB CARLIN, GALINA CHABAN, WEI CHEN,
     CHEOL HO CHOI, PAUL DAY, ALBERT DEFUSCO, NUWAN DESILVA, TIM DUDLEY,
     DMITRI FEDOROV, ALEX FINDLATER, GRAHAM FLETCHER, MARK FREITAG,
     KURT GLAESEMANN, ANASTASIA GUNINA,
     DAN KEMP, GRANT MERRILL, NORIYUKI MINEZAWA, JONATHAN MULLIN,
     TAKESHI NAGATA, SEAN NEDD, HEATHER NETZLOFF, BOSILJKA NJEGIC, RYAN OLSON,
     MIKE PAK, BUU PHAM,
     SPENCER PRUITT, LUKE ROSKOP, JIM SHOEMAKER, LYUDMILA SLIPCHENKO,
     TONY SMITH, SAROM SOK LEANG, JIE SONG, TETSUYA TAKETSUGU, SIMON WEBB,
     PENG XU, SOOHAENG YOO, FEDERICO ZAHARIEV

  ADDITIONAL CODE HAS BEEN PROVIDED BY COLLABORATORS IN OTHER GROUPS:
     IOWA STATE UNIVERSITY:
          JOE IVANIC, AARON WEST, LAIMUTIS BYTAUTAS, KLAUS RUEDENBERG
     UNIVERSITY OF TOKYO: KIMIHIKO HIRAO, TAKAHITO NAKAJIMA,
          TAKAO TSUNEDA, MUNEAKI KAMIYA, SUSUMU YANAGISAWA,
          KIYOSHI YAGI, MAHITO CHIBA, SEIKEN TOKURA, NAOAKI KAWAKAMI
     UNIVERSITY OF AARHUS: FRANK JENSEN
     UNIVERSITY OF IOWA: VISVALDAS KAIRYS, HUI LI
     NATIONAL INST. OF STANDARDS AND TECHNOLOGY: WALT STEVENS, DAVID GARMER
     UNIVERSITY OF PISA: BENEDETTA MENNUCCI, JACOPO TOMASI
     UNIVERSITY OF MEMPHIS: HENRY KURTZ, PRAKASHAN KORAMBATH
     UNIVERSITY OF ALBERTA: TOBY ZENG, MARIUSZ KLOBUKOWSKI
     UNIVERSITY OF NEW ENGLAND: MARK SPACKMAN
     MIE UNIVERSITY: HIROAKI UMEDA
     NAT. INST. OF ADVANCED INDUSTRIAL SCIENCE AND TECHNOLOGY: KAZUO KITAURA
     MICHIGAN STATE UNIVERSITY:
          KAROL KOWALSKI, MARTA WLOCH, JEFFREY GOUR, JESSE LUTZ,
          WEI LI, JUN SHEN, J. EMILIANO DEUSTUA, PIOTR PIECUCH
     UNIVERSITY OF MINNESOTA:
          YINAN SHU
     UNIVERSITY OF SILESIA: MONIKA MUSIAL, STANISLAW KUCHARSKI
     FACULTES UNIVERSITAIRES NOTRE-DAME DE LA PAIX:
          OLIVIER QUINET, BENOIT CHAMPAGNE
     UNIVERSITY OF CALIFORNIA - SANTA BARBARA: BERNARD KIRTMAN
     INSTITUTE FOR MOLECULAR SCIENCE:
          KAZUYA ISHIMURA, MICHIO KATOUDA, AND SHIGERU NAGASE
     UNIVERSITY OF NOTRE DAME: ANNA POMOGAEVA, DAN CHIPMAN
     KYUSHU UNIVERSITY:
          HARUYUKI NAKANO,
          FENG LONG GU, JACEK KORCHOWIEC, MARCIN MAKOWSKI, AND YURIKO AOKI,
          HIROTOSHI MORI AND EISAKU MIYOSHI
     PENNSYLVANIA STATE UNIVERSITY:
          TZVETELIN IORDANOV, CHET SWALINA, JONATHAN SKONE,
          SHARON HAMMES-SCHIFFER
     WASEDA UNIVERSITY:
          MASATO KOBAYASHI, TOMOKO AKAMA, TSUGUKI TOUMA,
          TAKESHI YOSHIKAWA, YASUHIRO IKABATA, JUNJI SEINO,
          YUYA NAKAJIMA, HIROMI NAKAI
     NANJING UNIVERSITY: SHUHUA LI
     UNIVERSITY OF NEBRASKA:
          PEIFENG SU, DEJUN SI, NANDUN THELLAMUREGE, YALI WANG, HUI LI
     UNIVERSITY OF ZURICH: ROBERTO PEVERATI, KIM BALDRIDGE
     N. COPERNICUS UNIVERSITY AND JACKSON STATE UNIVERSITY:
          MARIA BARYSZ
     UNIVERSITY OF COPENHAGEN: Jimmy Kromann, CASPER STEINMANN
     TOKYO INSTITUTE OF TECHNOLOGY: HIROYA NAKATA
     NAGOYA UNIVERSITY: YOSHIO NISHIMOTO, STEPHAN IRLE
     MOSCOW STATE UNIVERSITY: VLADIMIR MIRONOV


 PARALLEL VERSION RUNNING ON       16 PROCESSORS IN        1 NODES.

 EXECUTION OF GAMESS BEGUN Sun Nov 17 21:45:39 2019

            ECHO OF THE FIRST FEW INPUT CARDS -
 INPUT CARD>!*** FMO 5.3 (Gamess) INPUT generated by Facio 22.1.1.32 ***                    
 INPUT CARD> $CONTRL RUNTYP=ENERGY NPRINT=-5 ISPHER=1 MAXIT=200 $END                        
 INPUT CARD> $SYSTEM MWORDS=63 MEMDDI=63 $END                                               
 INPUT CARD> $GDDI NGROUP=1 $END                                                            
 INPUT CARD> $SCF DIRSCF=.TRUE. NPUNCH=0 $END                                               
 INPUT CARD>!*** NumCPU : 2  MemPerNode : 512MB                                             
 INPUT CARD> $PCM SOLVNT=WATER IEF=-10 ICOMP=2 ICAV=1 IDISP=1 IFMO=-1 $END                  
 INPUT CARD> $PCMCAV RADII=SUAHF $END                                                       
 INPUT CARD> $TESCAV NTSALL=60 $END                                                         
 INPUT CARD> $FMOPRP                                                                        
 INPUT CARD>    NAODIR=200                                                                  
 INPUT CARD>    NGRFMO(1)=1, 1, 0, 0, 0,   0, 0, 0, 0, 0                                    
 INPUT CARD>    IPIEDA=1                                                                    
 INPUT CARD>    NPRINT=9                                                                    
 INPUT CARD> $END                                                                           
 INPUT CARD> $FMO                                                                           
 INPUT CARD>      SCFTYP(1)=RHF                                                             
 INPUT CARD>      MODGRD=10                                                                 
 INPUT CARD>      MODMUL=0                                                                  
 INPUT CARD>      MAXCAO=5                                                                  
 INPUT CARD>      MAXBND=23                                                                 
 INPUT CARD>      NLAYER=1                                                                  
 INPUT CARD>      MPLEVL(1)=2                                                               
 INPUT CARD>      NFRAG=21                                                                  
 INPUT CARD>      ICHARG(1)=-1, -1, -1, -1, -1, -1, -1, 0, -1, -1, -1, -1, -1, 0, -1,       
 INPUT CARD>-1, -1, -1, -1, -1, 0                                                           
 INPUT CARD>      FRGNAM(1)=F1, F2, F3, F4, F5, F6, F7, F8, F9, F10, F11, F12, F13,         
 INPUT CARD>F14, F15, F16, F17, F18, F19, F20, F21                                          
 INPUT CARD>      indat(1)=0                                                                
 INPUT CARD>               1   -36   0                                                      
 INPUT CARD>               37   -70   0                                                     
 INPUT CARD>               71   -104   0                                                    
 INPUT CARD>               105   -137   0                                                   
 INPUT CARD>               138   -170   0                                                   
 INPUT CARD>               171   -203   0                                                   
 INPUT CARD>               204   -234   0                                                   
 INPUT CARD>               235   -263   0                                                   
 INPUT CARD>               264   -296   0                                                   
 INPUT CARD>               297   -326   0                                                   
 INPUT CARD>               327   -359   0                                                   
 INPUT CARD>               360   -389   0                                                   
 INPUT CARD>               390   -423   0                                                   
 INPUT CARD>               424   -456   0                                                   
 INPUT CARD>               457   -487   0                                                   
 INPUT CARD>               488   -518   0                                                   
 INPUT CARD>               519   -548   0                                                   
 INPUT CARD>               549   -581   0                                                   
 INPUT CARD>               582   -614   0                                                   
 INPUT CARD>               615   -648   0                                                   
 INPUT CARD>               649   -675   0                                                   


 -------------------------------------------------------------
 GROUP DDI, PROGRAMMED BY: RYAN M. OLSON AND DMITRI G. FEDOROV
        FEDOROV ET AL., J. COMPUT. CHEM., 25 (2004) 872.
 -------------------------------------------------------------

 -------------------------------------------------------
 GDDI: INITIALIZATION COMPLETED FOR GROUP     1 OF     1
 WITH    16 PROCESSES BALTYP=DLB   global rank=        0
 -------------------------------------------------------

   63000000 WORDS OF MEMORY AVAILABLE


     RUN TITLE
     ---------
  FMO calculation                                                                

 THE POINT GROUP OF THE MOLECULE IS C1      
 THE ORDER OF THE PRINCIPAL AXIS IS     0

 ATOM   ATOMIC CHARGE
 H.1-1       1.0
 O.1-1       8.0
 C.1-1       6.0
 N.1-1       7.0
 P.1-1      15.0

     ATOMIC BASIS SET LIBRARY
     ----------------
 THE CONTRACTED PRIMITIVE FUNCTIONS HAVE BEEN UNNORMALIZED
 THE CONTRACTED BASIS FUNCTIONS ARE NOW NORMALIZED TO UNITY

  SHELL TYPE  PRIMITIVE        EXPONENT          CONTRACTION COEFFICIENT(S)

 H.1-1     

      1   S       1            18.7311370    0.033494604338
      1   S       2             2.8253944    0.234726953484
      1   S       3             0.6401217    0.813757326146

      2   S       4             0.1612778    1.000000000000

 O.1-1     

      3   S       5          5484.6716600    0.001831074430
      3   S       6           825.2349460    0.013950172200
      3   S       7           188.0469580    0.068445078098
      3   S       8            52.9645000    0.232714335992
      3   S       9            16.8975704    0.470192897984
      3   S      10             5.7996353    0.358520852987

      4   L      11            15.5396162   -0.110777549525    0.070874268231
      4   L      12             3.5999336   -0.148026262701    0.339752839147
      4   L      13             1.0137618    1.130767015354    0.727158577316

      5   L      14             0.2700058    1.000000000000    1.000000000000

      6   D      15             0.8000000    1.000000000000

 C.1-1     

      7   S      16          3047.5248800    0.001834737132
      7   S      17           457.3695180    0.014037322813
      7   S      18           103.9486850    0.068842622264
      7   S      19            29.2101553    0.232184443216
      7   S      20             9.2866630    0.467941348435
      7   S      21             3.1639270    0.362311985337

      8   L      22             7.8682723   -0.119332419775    0.068999066591
      8   L      23             1.8812885   -0.160854151696    0.316423960957
      8   L      24             0.5442493    1.143456437840    0.744308290898

      9   L      25             0.1687145    1.000000000000    1.000000000000

     10   D      26             0.8000000    1.000000000000

 N.1-1     

     11   S      27          4173.5114600    0.001834772160
     11   S      28           627.4579110    0.013994627002
     11   S      29           142.9020930    0.068586551812
     11   S      30            40.2343293    0.232240873040
     11   S      31            12.8202129    0.469069948082
     11   S      32             4.3904370    0.360455199063

     12   L      33            11.6263619   -0.114961181702    0.067579743878
     12   L      34             2.7162798   -0.169117478561    0.323907295893
     12   L      35             0.7722184    1.145851947027    0.740895139755

     13   L      36             0.2120315    1.000000000000    1.000000000000

     14   D      37             0.8000000    1.000000000000

 P.1-1     

     15   S      38         19413.3000000    0.001851598923
     15   S      39          2909.4200000    0.014206191735
     15   S      40           661.3640000    0.069999459277
     15   S      41           185.7590000    0.240078860331
     15   S      42            59.1943000    0.484761717984
     15   S      43            20.0310000    0.335199804993

     16   L      44           339.4780000   -0.002782170105    0.004564616191
     16   L      45            81.0101000   -0.036049901354    0.033693571881
     16   L      46            25.8780000   -0.116631004382    0.139754883368
     16   L      47             9.4522100    0.096832803638    0.339361716786
     16   L      48             3.6656600    0.614418023082    0.450920623685
     16   L      49             1.4674600    0.403798015170    0.238585800889

     17   L      50             2.1562300   -0.252924113863   -0.017765312733
     17   L      51             0.7489970    0.032851844678    0.274058196433
     17   L      52             0.2831450    1.081254761783    0.785421562957

     18   L      53             0.0998317    1.000000000000    1.000000000000

     19   D      54             0.5500000    1.000000000000

 TOTAL NUMBER OF BASIS SET SHELLS             =   19
 NUMBER OF CARTESIAN GAUSSIAN BASIS FUNCTIONS =   66

     $CONTRL OPTIONS
     ---------------
 SCFTYP=RHF          RUNTYP=ENERGY       EXETYP=RUN     
 MPLEVL=       0     CITYP =NONE         CCTYP =NONE         VBTYP =NONE    
 DFTTYP=NONE         TDDFT =NONE    
 MULT  =       1     ICHARG=       0     NZVAR =       0     COORD =UNIQUE  
 PP    =NONE         RELWFN=NONE         LOCAL =NONE         NUMGRD=       F
 ISPHER=       1     NOSYM =       0     MAXIT =     200     UNITS =ANGS    
 PLTORB=       F     MOLPLT=       F     AIMPAC=       F     FRIEND=        
 NPRINT=      -5     IREST =       0     GEOM  =INPUT   
 NORMF =       0     NORMP =       0     ITOL  =      24     ICUT  =      12
 INTTYP=BEST         GRDTYP=BEST         QMTTOL= 1.0E-06

     $SYSTEM OPTIONS
     ---------------
  REPLICATED MEMORY=    63000000 WORDS (ON EVERY NODE).
 DISTRIBUTED MEMDDI=          63 MILLION WORDS IN AGGREGATE,
 MEMDDI DISTRIBUTED OVER  16 PROCESSORS IS     3937500 WORDS/PROCESSOR.
 TOTAL MEMORY REQUESTED ON EACH PROCESSOR=    66937500 WORDS.
 TIMLIM=      525600.00 MINUTES, OR     365.0 DAYS.
 PARALL= T  BALTYP=  DLB     KDIAG=    0  COREFL= F
 MXSEQ2=     300 MXSEQ3=     150  mem10=         0

 ** LOOKING UP INTERNALLY STORED DATA FOR SOLVENT=WATER    **
 OPTICAL AND PHYSICAL CONSTANTS:
 EPS= 78.390; EPSINF=  1.776; RSOLV=  1.385 A; VMOL=  18.070 ML/MOL;
 TCE= .25700E-03 1/K; STEN= 71.810 DYN/CM;  DSTEN=  0.6500; CMF=  1.2770


     -----------------------------------
     INPUT FOR PCM SOLVATION CALCULATION 
     -----------------------------------
     IEF   =     -10
     ICOMP =       2     IFIELD=       0     ICAV  =       1
     IDISP =       1     IREP  =       0     IDP   =       0

     SOLVNT=WATER        EPS   = 78.3900     EPSINF=  1.7760
     VMOL  = 18.0700     TCE   =  0.00025700 STEN  = 71.8100
     DSTEN =  0.6500     CMF   =  1.2770     RSOLV =  1.3850

     NESFP =       0
     OMEGA = 40.0000     RET   =100.0000     FRO   =  0.7000

     TABS  =298.0000     IPRINT=       0

     --------------------------------
     INPUT FOR ITERATIVE C-PCM METHOD 
     --------------------------------
     IPCMIT  =         1     MXDIIS  =        50
     MXITR1  =       200     MXITR2  =       200
     THRES   = 0.100E-09     IMUL    =         3
     RCUT(1) =   20.0000     RCUT(2) =   50.0000

     IDIRCT  =         1
     IMGABI  =         0     RABI    =    4.0000
     IMGASC  =         0     RASC    =   20.0000
     THRSLS  = 0.500E-03     DENSLS  =    0.0100
     IEFPOL  =         1     REFPOL  =    0.0000

     INPUT FOR ISOTROPIC DIELECTRICS
     -------------------------------
     EPS=    78.39

          ----------------
          PROPERTIES INPUT
          ----------------

     MOMENTS            FIELD           POTENTIAL          DENSITY
 IEMOM =       1   IEFLD =       0   IEPOT =       0   IEDEN =       0
 WHERE =COMASS     WHERE =NUCLEI     WHERE =NUCLEI     WHERE =NUCLEI  
 OUTPUT=BOTH       OUTPUT=BOTH       OUTPUT=NONE       OUTPUT=BOTH    
 IEMINT=       0   IEFINT=       0                     IEDINT=       0
                                                       MORB  =       0
          EXTRAPOLATION IN EFFECT
          SOSCF IN EFFECT
 ORBITAL PRINTING OPTION: NPREO=     1 32767     2     1

     -------------------------------
     INTEGRAL TRANSFORMATION OPTIONS
     -------------------------------
     NWORD  =            0
     CUTOFF = 1.0E-10     MPTRAN =       0
     DIRTRF =       T     AOINTS =DUP     

          ----------------------
          INTEGRAL INPUT OPTIONS
          ----------------------
 NOPK  =       1 NORDER=       0 SCHWRZ=       T

 ..... DONE SETTING UP THE RUN .....
 CPU     0: STEP CPU TIME=     0.05 TOTAL CPU TIME=          0.0 (      0.0 MIN)
 TOTAL WALL CLOCK TIME=          0.1 SECONDS, CPU UTILIZATION IS    71.43%
 CPU     0: STEP CPU TIME=     0.00 TOTAL CPU TIME=          0.0 (      0.0 MIN)
 TOTAL WALL CLOCK TIME=          0.1 SECONDS, CPU UTILIZATION IS    71.43%

                    ----------------------
                    AO INTEGRAL TECHNOLOGY
                    ----------------------
     S,P,L SHELL ROTATED AXIS INTEGRALS, REPROGRAMMED BY
        KAZUYA ISHIMURA (IMS) AND JOSE SIERRA (SYNSTAR).
     S,P,D,L SHELL ROTATED AXIS INTEGRALS PROGRAMMED BY
        KAZUYA ISHIMURA (INSTITUTE FOR MOLECULAR SCIENCE).
     S,P,D,F,G SHELL TO TOTAL QUARTET ANGULAR MOMENTUM SUM 5,
        ERIC PROGRAM BY GRAHAM FLETCHER (ELORET AND NASA ADVANCED
        SUPERCOMPUTING DIVISION, AMES RESEARCH CENTER).
     S,P,D,F,G,L SHELL GENERAL RYS QUADRATURE PROGRAMMED BY
        MICHEL DUPUIS (PACIFIC NORTHWEST NATIONAL LABORATORY).
 Setting modorb=1 flag...
 Setting modorb=1 flag...

          -----------------------
          MP2 CONTROL INFORMATION
          -----------------------
          NACORE =        8  NBCORE =        8
          LMOMP2 =        F  AOINTS = DUP     
          METHOD =        2  NWORD  =               0
          MP2PRP =        F  OSPT   = NONE    
          CUTOFF = 1.00E-12  CPHFBS = BASISAO 
          CODE   = IMS     

          NUMBER OF CORE -A-  ORBITALS =     8
          NUMBER OF CORE -B-  ORBITALS =     8
          NUMBER OF OCC. -A-  ORBITALS =    18
          NUMBER OF OCC. -B-  ORBITALS =    18
          NUMBER OF MOLECULAR ORBITALS =    66
          NUMBER OF   BASIS  FUNCTIONS =    66

 CPU     0: STEP CPU TIME=     0.04 TOTAL CPU TIME=          0.1 (      0.0 MIN)
 TOTAL WALL CLOCK TIME=          0.1 SECONDS, CPU UTILIZATION IS    81.82%
 CPU     0: STEP CPU TIME=     0.00 TOTAL CPU TIME=          0.1 (      0.0 MIN)
 TOTAL WALL CLOCK TIME=          0.1 SECONDS, CPU UTILIZATION IS    81.82%

     INPUT FOR CAVITY DEFINITION 
     ---------------------------
   ATOM               COORDINATES                RADIUS       EPS
      1    -16.0190     -6.7480     -8.9200      0.0100     78.3900
      2    -15.1470     -6.4130     -8.6520      1.5900     78.3900
      3    -14.7440     -5.4550     -9.6420      1.7700     78.3900
      4    -15.4570     -4.5990     -9.6270      0.0100     78.3900
      5    -14.7860     -5.9220    -10.6510      0.0100     78.3900
      6    -13.3320     -4.9090     -9.4040      1.7700     78.3900
      7    -13.0500     -4.1740    -10.1860      0.0100     78.3900
      8    -13.2970     -4.2130     -8.1260      1.5900     78.3900
      9    -12.0760     -4.5010     -7.4620      1.7700     78.3900
     10    -11.6050     -3.5210     -7.2210      0.0100     78.3900
     11    -12.3030     -5.2380     -6.2050      1.6800     78.3900
     12    -11.3760     -5.4860     -5.2240      1.7700     78.3900
     13     -8.1420     -5.2450     -4.0020      1.6800     78.3900
     14     -7.6240     -5.5300     -3.2000      0.0100     78.3900
     15     -7.6690     -4.7630     -4.7430      0.0100     78.3900
     16    -10.0820     -5.1150     -5.2480      1.6800     78.3900
     17     -9.4260     -5.5050     -4.1560      1.7700     78.3900
     18    -10.0180     -6.1740     -3.1200      1.6800     78.3900
     19     -9.4440     -6.4180     -2.3310      0.0100     78.3900
     20    -11.3530     -6.5520     -3.0590      1.7700     78.3900
     21    -11.7900     -7.1540     -2.0720      1.5900     78.3900
     22    -12.0630     -6.1530     -4.2250      1.7700     78.3900
     23    -13.3960     -6.3360     -4.5730      1.6800     78.3900
     24    -13.4890     -5.7910     -5.7660      1.7700     78.3900
     25    -14.3990     -5.7410     -6.3720      0.0100     78.3900
     26    -11.1950     -5.2590     -8.4300      1.7700     78.3900
     27    -10.5260     -5.9860     -7.9220      0.0100     78.3900
     28    -10.4190     -4.3490     -9.1840      1.5900     78.3900
     29    -10.0440     -4.8490     -9.9230      0.0100     78.3900
     30    -12.2210     -5.9680     -9.3040      1.7700     78.3900
     31    -12.6550     -6.8410     -8.7600      0.0100     78.3900
     32    -11.7400     -6.3050    -10.6250      1.5900     78.3900
     33    -11.1600     -7.7430    -10.8930      2.1000     78.3900
     34    -12.2260     -8.7220    -10.5830      1.5900     78.3900
     35    -10.5950     -7.7930    -12.2600      1.5900     78.3900
     36     -9.9900     -7.8820     -9.8420      1.5900     78.3900
     37     -8.7140     -7.2460    -10.1170      1.7700     78.3900
     38     -8.8200     -6.1390    -10.1860      0.0100     78.3900
     39     -8.2930     -7.6060    -11.0850      0.0100     78.3900
     40     -7.6780     -7.5520     -9.0280      1.7700     78.3900
     41     -6.7070     -7.0660     -9.2690      0.0100     78.3900
     42     -8.1100     -7.0060     -7.7520      1.5900     78.3900
     43     -7.7300     -7.9030     -6.7130      1.7700     78.3900
     44     -7.1230     -7.3180     -5.9830      0.0100     78.3900
     45     -8.9020     -8.4540     -6.0240      1.6800     78.3900
     46     -8.8980     -9.0780     -4.8110      1.7700     78.3900
     47     -7.1920    -10.2080     -2.0400      1.6800     78.3900
     48     -7.3760    -10.6710     -1.1690      0.0100     78.3900
     49     -6.2400    -10.1050     -2.3390      0.0100     78.3900
     50     -7.8200     -9.2800     -4.0370      1.6800     78.3900
     51     -8.1220     -9.9180     -2.9160      1.7700     78.3900
     52     -9.3900    -10.2760     -2.5670      1.6800     78.3900
     53     -9.5040    -10.7980     -1.7140      0.0100     78.3900
     54    -10.5240    -10.0610     -3.3320      1.7700     78.3900
     55    -11.6300    -10.4200     -2.9190      1.5900     78.3900
     56    -10.2140     -9.4040     -4.5530      1.7700     78.3900
     57    -11.0360     -8.9950     -5.5950      1.6800     78.3900
     58    -10.2100     -8.4350     -6.4450      1.7700     78.3900
     59    -10.4850     -7.9830     -7.3990      0.0100     78.3900
     60     -6.8670     -8.9900     -7.3290      1.7700     78.3900
     61     -6.9900     -9.9740     -6.8230      0.0100     78.3900
     62     -5.5010     -8.5990     -7.3020      1.5900     78.3900
     63     -5.0100     -9.2380     -7.8410      0.0100     78.3900
     64     -7.4150     -9.0360     -8.7490      1.7700     78.3900
     65     -8.4080     -9.5420     -8.7630      0.0100     78.3900
     66     -6.5010     -9.5590     -9.7290      1.5900     78.3900
     67     -6.6750    -11.0090    -10.3090      2.1000     78.3900
     68     -8.0520    -11.1700    -10.8270      1.5900     78.3900
     69     -5.5750    -11.2450    -11.2710      1.5900     78.3900
     70     -6.4740    -11.9260     -9.0620      1.5900     78.3900
     71     -6.8330    -13.3270     -9.0950      1.7700     78.3900
     72     -6.0900    -13.8980     -9.6910      0.0100     78.3900
     73     -7.8400    -13.4650     -9.5530      0.0100     78.3900
     74     -6.8860    -13.9640     -7.6950      1.7700     78.3900
     75     -5.8550    -14.1810     -7.3370      0.0100     78.3900
     76     -7.4690    -13.0340     -6.7340      1.5900     78.3900
     77     -8.2230    -13.7350     -5.7630      1.7700     78.3900
     78     -7.7620    -13.5020     -4.7740      0.0100     78.3900
     79     -9.6100    -13.2810     -5.7300      1.6800     78.3900
     80    -10.4850    -13.4440     -4.6900      1.7700     78.3900
     81    -11.2470    -14.7710     -1.6020      1.6800     78.3900
     82    -12.0730    -15.1050     -1.1300      0.0100     78.3900
     83    -10.3620    -15.1610     -1.3380      0.0100     78.3900
     84    -10.2120    -14.0320     -3.5120      1.6800     78.3900
     85    -11.3020    -14.1750     -2.7670      1.7700     78.3900
     86    -12.5220    -13.6370     -3.0910      1.6800     78.3900
     87    -13.2830    -13.7470     -2.4450      0.0100     78.3900
     88    -12.7990    -12.9330     -4.2580      1.7700     78.3900
     89    -13.9210    -12.4620     -4.4800      1.5900     78.3900
     90    -11.6670    -12.8690     -5.1140      1.7700     78.3900
     91    -11.5270    -12.3250     -6.3900      1.6800     78.3900
     92    -10.2790    -12.5770     -6.7060      1.7700     78.3900
     93     -9.7880    -12.3060     -7.6440      0.0100     78.3900
     94     -8.0970    -15.2160     -6.0580      1.7700     78.3900
     95     -9.0020    -15.8110     -5.8160      0.0100     78.3900
     96     -7.0100    -15.6950     -5.3220      1.5900     78.3900
     97     -6.2410    -15.3430     -5.7630      0.0100     78.3900
     98     -7.7710    -15.2220     -7.5590      1.7700     78.3900
     99     -8.6990    -15.0170     -8.1380      0.0100     78.3900
    100     -7.0520    -16.3880     -8.0380      1.5900     78.3900
    101     -7.8450    -17.5490     -8.7650      2.1000     78.3900
    102     -8.5170    -16.9610     -9.9470      1.5900     78.3900
    103     -6.9290    -18.6810     -9.0290      1.5900     78.3900
    104     -8.9640    -18.0380     -7.7670      1.5900     78.3900
    105    -10.0690    -18.8310     -8.2860      1.7700     78.3900
    106     -9.8300    -19.3380     -9.2510      0.0100     78.3900
    107    -10.9380    -18.1630     -8.4740      0.0100     78.3900
    108    -10.5280    -19.9130     -7.3080      1.7700     78.3900
    109    -11.4600    -20.4020     -7.6670      0.0100     78.3900
    110     -9.5100    -20.9480     -7.2580      1.5900     78.3900
    111     -9.3640    -21.3920     -5.9280      1.7700     78.3900
    112     -9.4670    -22.5020     -5.9460      0.0100     78.3900
    113     -8.0380    -21.0440     -5.4030      1.6800     78.3900
    114     -6.2320    -20.9450     -4.1590      1.7700     78.3900
    115     -5.9490    -20.2240     -5.3010      1.6800     78.3900
    116     -7.0530    -20.2910     -6.0010      1.7700     78.3900
    117     -7.2110    -19.8100     -6.9690      0.0100     78.3900
    118     -6.0810    -21.9630     -2.0420      1.6800     78.3900
    119     -7.3390    -22.3530     -2.2150      1.7700     78.3900
    120     -7.7650    -22.9300     -1.3860      0.0100     78.3900
    121     -8.1350    -22.1890     -3.2710      1.6800     78.3900
    122     -7.5170    -21.4540     -4.2090      1.7700     78.3900
    123     -5.4710    -21.2420     -3.0150      1.7700     78.3900
    124     -4.1800    -20.8790     -2.8780      1.6800     78.3900
    125     -3.7320    -20.2530     -3.5170      0.0100     78.3900
    126     -3.6470    -21.1830     -2.0930      0.0100     78.3900
    127    -10.4970    -20.7950     -5.1170      1.7700     78.3900
    128    -10.2030    -20.6180     -4.0630      0.0100     78.3900
    129    -11.6510    -21.6220     -5.1570      1.5900     78.3900
    130    -12.3520    -21.1230     -4.7150      0.0100     78.3900
    131    -10.7330    -19.4840     -5.8440      1.7700     78.3900
    132     -9.9210    -18.7590     -5.5950      0.0100     78.3900
    133    -12.0620    -18.9570     -5.6500      1.5900     78.3900
    134    -12.3250    -17.5410     -5.0200      2.1000     78.3900
    135    -11.2230    -16.6450     -5.3900      1.5900     78.3900
    136    -13.6830    -17.1070     -5.4160      1.5900     78.3900
    137    -12.3210    -17.8060     -3.4620      1.5900     78.3900
    138    -13.3180    -18.6150     -2.7960      1.7700     78.3900
    139    -13.7790    -19.3600     -3.4870      0.0100     78.3900
    140    -14.1390    -17.9620     -2.4160      0.0100     78.3900
    141    -12.7290    -19.3900     -1.6030      1.7700     78.3900
    142    -13.4680    -20.1200     -1.2100      0.0100     78.3900
    143    -11.5640    -20.1550     -2.0360      1.5900     78.3900
    144    -10.5610    -20.0900     -1.0330      1.7700     78.3900
    145    -10.2680    -21.1420     -0.8100      0.0100     78.3900
    146     -9.3780    -19.3600     -1.4970      1.6800     78.3900
    147     -7.3360    -18.5850     -1.6940      1.7700     78.3900
    148     -8.0380    -18.1120     -2.7840      1.6800     78.3900
    149     -9.2420    -18.5770     -2.6190      1.7700     78.3900
    150    -10.0720    -18.3900     -3.2980      0.0100     78.3900
    151     -5.6300    -19.0000     -0.1210      1.6800     78.3900
    152     -6.5080    -19.7540      0.5330      1.7700     78.3900
    153     -6.1250    -20.2130      1.4490      0.0100     78.3900
    154     -7.8120    -19.9560      0.2670      1.6800     78.3900
    155     -8.1510    -19.3540     -0.8880      1.7700     78.3900
    156     -6.0070    -18.4040     -1.2710      1.7700     78.3900
    157     -5.1060    -17.6690     -1.9290      1.6800     78.3900
    158     -5.2560    -17.3340     -2.8660      0.0100     78.3900
    159     -4.2170    -17.4930     -1.5000      0.0100     78.3900
    160    -11.1790    -19.4720      0.1940      1.7700     78.3900
    161    -10.4360    -18.9120      0.7940      0.0100     78.3900
    162    -11.7720    -20.4710      1.0000      1.5900     78.3900
    163    -12.2480    -20.0110      1.7090      0.0100     78.3900
    164    -12.2250    -18.5490     -0.4150      1.7700     78.3900
    165    -11.7290    -17.6520     -0.8570      0.0100     78.3900
    166    -13.3020    -18.2310      0.4950      1.5900     78.3900
    167    -13.7390    -16.7550      0.8170      2.1000     78.3900
    168    -13.3640    -15.8610     -0.3020      1.5900     78.3900
    169    -15.1690    -16.7510      1.1990      1.5900     78.3900
    170    -12.8880    -16.3260      2.0740      1.5900     78.3900
    171    -13.0460    -16.9190      3.3820      1.7700     78.3900
    172    -13.6460    -17.8620      3.3510      0.0100     78.3900
    173    -13.5860    -16.2030      4.0460      0.0100     78.3900
    174    -11.6970    -17.2470      4.0430      1.7700     78.3900
    175    -11.8550    -17.8880      4.9390      0.0100     78.3900
    176    -10.8630    -18.0000      3.1060      1.5900     78.3900
    177     -9.5120    -17.5720      3.2230      1.7700     78.3900
    178     -8.8810    -18.4850      3.3640      0.0100     78.3900
    179     -9.0650    -16.8550      2.0140      1.6800     78.3900
    180     -7.8580    -15.8790      0.4480      1.7700     78.3900
    181     -9.1660    -15.8670      0.0010      1.6800     78.3900
    182     -9.8360    -16.4360      0.9650      1.7700     78.3900
    183    -10.9090    -16.6010      0.9600      0.0100     78.3900
    184     -5.5160    -15.6180      0.5840      1.6800     78.3900
    185     -5.6110    -16.2240      1.7760      1.7700     78.3900
    186     -4.6690    -16.4030      2.2980      0.0100     78.3900
    187     -6.6810    -16.6880      2.4180      1.6800     78.3900
    188     -7.7830    -16.4830      1.6940      1.7700     78.3900
    189     -6.6540    -15.4280     -0.1380      1.7700     78.3900
    190     -6.6180    -14.8770     -1.3790      1.6800     78.3900
    191     -7.4170    -14.9520     -1.9780      0.0100     78.3900
    192     -5.7270    -14.7320     -1.8120      0.0100     78.3900
    193     -9.4470    -16.6980      4.4480      1.7700     78.3900
    194     -8.6430    -15.9500      4.3590      0.0100     78.3900
    195     -9.2050    -17.4860      5.5990      1.5900     78.3900
    196     -9.3320    -16.9180      6.3750      0.0100     78.3900
    197    -10.8250    -16.0560      4.4720      1.7700     78.3900
    198    -10.9260    -15.2880      3.6730      0.0100     78.3900
    199    -11.2100    -15.5720      5.7740      1.5900     78.3900
    200    -11.4030    -14.0490      6.1180      2.1000     78.3900
    201    -12.5740    -13.5560      5.3620      1.5900     78.3900
    202    -11.4630    -13.9030      7.5900      1.5900     78.3900
    203    -10.1040    -13.3260      5.5840      1.5900     78.3900
    204     -8.7950    -13.6190      6.1350      1.7700     78.3900
    205     -8.6750    -14.7050      6.3550      0.0100     78.3900
    206     -8.6540    -13.0700      7.0940      0.0100     78.3900
    207     -7.6540    -13.2250      5.1710      1.7700     78.3900
    208     -6.6760    -13.5580      5.5700      0.0100     78.3900
    209     -7.8490    -13.8670      3.8800      1.5900     78.3900
    210     -7.5060    -12.9790      2.8300      1.7700     78.3900
    211     -6.7560    -13.5170      2.2030      0.0100     78.3900
    212     -8.6770    -12.6150      1.9770      1.6800     78.3900
    213     -9.9500    -12.9450      2.3750      1.7700     78.3900
    214    -10.0310    -13.4510      3.3340      0.0100     78.3900
    215    -11.0190    -12.6620      1.6230      1.7700     78.3900
    216    -12.0270    -12.9310      1.9240      0.0100     78.3900
    217     -8.4930    -12.0000      0.7410      1.7700     78.3900
    218     -7.3450    -11.7580      0.3520      1.5900     78.3900
    219     -9.5640    -11.6730     -0.0200      1.6800     78.3900
    220    -10.8010    -11.9990      0.3850      1.7700     78.3900
    221    -11.8400    -11.6920     -0.3870      1.6800     78.3900
    222    -11.6920    -11.2490     -1.2730      0.0100     78.3900
    223    -12.7720    -11.9380     -0.1230      0.0100     78.3900
    224     -6.8400    -11.7870      3.4830      1.7700     78.3900
    225     -6.9780    -10.8490      2.9050      0.0100     78.3900
    226     -5.4620    -12.0430      3.6730      1.5900     78.3900
    227     -5.1320    -11.3370      4.2360      0.0100     78.3900
    228     -7.5460    -11.7330      4.8310      1.7700     78.3900
    229     -8.5920    -11.3810      4.7090      0.0100     78.3900
    230     -6.8120    -11.0290      5.8670      1.5900     78.3900
    231     -7.1180     -9.5020      6.1120      2.1000     78.3900
    232     -8.5760     -9.3210      6.2720      1.5900     78.3900
    233     -6.2600     -9.0120      7.2150      1.5900     78.3900
    234     -6.6910     -8.7900      4.7850      1.5900     78.3900
    235     -5.3200     -8.6470      4.3670      1.7700     78.3900
    236     -4.8390     -9.6340      4.2180      0.0100     78.3900
    237     -4.7250     -8.0870      5.1260      0.0100     78.3900
    238     -5.2380     -7.9060      3.0220      1.7700     78.3900
    239     -4.1810     -7.7890      2.7100      0.0100     78.3900
    240     -5.9160     -8.6620      1.9710      1.5900     78.3900
    241     -6.6250     -7.7790      1.1080      1.7700     78.3900
    242     -6.2510     -7.9910      0.0790      0.0100     78.3900
    243     -8.1070     -8.0130      1.1540      1.6800     78.3900
    244     -8.6820     -8.6140      2.2500      1.7700     78.3900
    245     -7.9840     -8.9480      3.0090      0.0100     78.3900
    246     -8.8900     -7.6250      0.0850      1.7700     78.3900
    247     -8.4290     -7.0650     -0.9050      1.5900     78.3900
    248    -10.2330     -7.9090      0.2070      1.6800     78.3900
    249    -10.8300     -7.6420     -0.5620      0.0100     78.3900
    250    -10.8650     -8.5180      1.2750      1.7700     78.3900
    251    -12.0780     -8.7230      1.2540      1.5900     78.3900
    252     -9.9920     -8.8680      2.3490      1.7700     78.3900
    253    -10.4180     -9.3570      3.2230      0.0100     78.3900
    254     -6.2310     -6.3590      1.5060      1.7700     78.3900
    255     -7.0770     -5.6500      1.3810      0.0100     78.3900
    256     -5.1180     -5.9120      0.7430      1.5900     78.3900
    257     -4.3680     -6.5100      0.8980      0.0100     78.3900
    258     -5.8940     -6.5270      2.9900      1.7700     78.3900
    259     -6.8260     -6.5780      3.5930      0.0100     78.3900
    260     -4.9840     -5.5460      3.5210      1.5900     78.3900
    261     -5.3780     -4.6590      3.4430      0.0100     78.3900
    262      6.2070    -28.2930      8.4970      0.0100     78.3900
    263      6.4860    -28.5950      7.6140      1.5900     78.3900
    264      7.8910    -28.8760      7.6910      1.7700     78.3900
    265      8.0650    -29.6150      8.5050      0.0100     78.3900
    266      8.4390    -27.9430      7.9530      0.0100     78.3900
    267      8.4680    -29.4450      6.3880      1.7700     78.3900
    268      9.5610    -29.6360      6.4860      0.0100     78.3900
    269      7.8330    -30.7270      6.0900      1.5900     78.3900
    270      7.6380    -30.8380      4.6900      1.7700     78.3900
    271      8.1420    -31.7780      4.3650      0.0100     78.3900
    272      6.2120    -30.9170      4.3470      1.6800     78.3900
    273      4.3110    -31.2840      3.3000      1.7700     78.3900
    274      3.9750    -30.7830      4.5520      1.6800     78.3900
    275      5.1340    -30.5760      5.1320      1.7700     78.3900
    276      5.2730    -30.1790      6.1410      0.0100     78.3900
    277      4.1830    -32.0950      1.0770      1.6800     78.3900
    278      5.5210    -32.0960      1.0840      1.7700     78.3900
    279      5.9960    -32.4430      0.1590      0.0100     78.3900
    280      6.3590    -31.7880      2.0810      1.6800     78.3900
    281      5.6850    -31.3650      3.1610      1.7700     78.3900
    282      3.5280    -31.6930      2.1980      1.7700     78.3900
    283      2.1820    -31.7110      2.2140      1.6800     78.3900
    284      1.6660    -31.4690      3.0400      0.0100     78.3900
    285      1.6600    -32.0210      1.4140      0.0100     78.3900
    286      8.3230    -29.6570      4.0430      1.7700     78.3900
    287      7.8130    -29.3310      3.1180      0.0100     78.3900
    288      9.6680    -29.9800      3.7580      1.5900     78.3900
    289     10.0930    -29.1540      3.4910      0.0100     78.3900
    290      8.2300    -28.5910      5.1310      1.7700     78.3900
    291      7.1920    -28.1910      5.2020      0.0100     78.3900
    292      9.2270    -27.5450      5.0430      1.5900     78.3900
    293      8.9300    -26.2330      4.2170      2.1000     78.3900
    294      7.6650    -25.6450      4.7040      1.5900     78.3900
    295     10.1240    -25.3630      4.2470      1.5900     78.3900
    296      8.6820    -26.7460      2.7560      1.5900     78.3900
    297      9.7320    -27.1650      1.8610      1.7700     78.3900
    298     10.3660    -27.9560      2.3220      0.0100     78.3900
    299     10.3940    -26.3050      1.6130      0.0100     78.3900
    300      9.1500    -27.7200      0.5450      1.7700     78.3900
    301      9.9590    -28.1180     -0.1030      0.0100     78.3900
    302      8.2200    -28.8160      0.8060      1.5900     78.3900
    303      7.1250    -28.7490     -0.0980      1.7700     78.3900
    304      7.0980    -29.7310     -0.6300      0.0100     78.3900
    305      5.8170    -28.5160      0.5990      1.6800     78.3900
    306      5.7650    -28.0360      1.8880      1.7700     78.3900
    307      6.7320    -27.8360      2.3420      0.0100     78.3900
    308      4.6530    -28.7860     -0.0870      1.7700     78.3900
    309      4.6420    -29.1650     -1.2530      1.5900     78.3900
    310      3.4930    -28.5930      0.6250      1.6800     78.3900
    311      2.6320    -28.8660      0.1770      0.0100     78.3900
    312      3.3740    -28.2250      1.9420      1.7700     78.3900
    313      2.2670    -28.1980      2.4750      1.5900     78.3900
    314      4.6200    -27.9030      2.5750      1.7700     78.3900
    315      4.6160    -27.6140      3.6230      0.0100     78.3900
    316      7.4540    -27.6570     -1.0920      1.7700     78.3900
    317      6.5450    -27.1260     -1.4260      0.0100     78.3900
    318      8.1470    -28.2000     -2.2010      1.5900     78.3900
    319      8.4560    -27.4470     -2.7200      0.0100     78.3900
    320      8.3390    -26.7190     -0.2800      1.7700     78.3900
    321      7.7310    -26.1330      0.4450      0.0100     78.3900
    322      9.2260    -25.8910     -1.0670      1.5900     78.3900
    323      8.7620    -24.4620     -1.5380      2.1000     78.3900
    324      8.4030    -23.6630     -0.3480      1.5900     78.3900
    325      9.8110    -23.9010     -2.4200      1.5900     78.3900
    326      7.4450    -24.7130     -2.3600      1.5900     78.3900
    327      7.4700    -25.2530     -3.6970      1.7700     78.3900
    328      8.0590    -26.1930     -3.7490      0.0100     78.3900
    329      7.9470    -24.5320     -4.3900      0.0100     78.3900
    330      6.0550    -25.5450     -4.2130      1.7700     78.3900
    331      6.0820    -26.0570     -5.1990      0.0100     78.3900
    332      5.3510    -26.4220     -3.2860      1.5900     78.3900
    333      4.0150    -26.0010     -3.1580      1.7700     78.3900
    334      3.3880    -26.8970     -3.3630      0.0100     78.3900
    335      3.7180    -25.5300     -1.7960      1.6800     78.3900
    336      2.6620    -24.9760      0.0540      1.7700     78.3900
    337      4.0160    -24.8280      0.3210      1.6800     78.3900
    338      4.5990    -25.1670     -0.8020      1.7700     78.3900
    339      5.6770    -25.1820     -0.9610      0.0100     78.3900
    340      0.3040    -25.0120      0.2570      1.6800     78.3900
    341      0.2740    -25.3760     -1.0270      1.7700     78.3900
    342     -0.7250    -25.5300     -1.4510      0.0100     78.3900
    343      1.2980    -25.6740     -1.8380      1.6800     78.3900
    344      2.4680    -25.4120     -1.2430      1.7700     78.3900
    345      1.5090    -24.7790      0.8420      1.7700     78.3900
    346      1.5640    -24.3540      2.1180      1.6800     78.3900
    347      2.4300    -24.1760      2.5930      0.0100     78.3900
    348      0.7140    -24.2730      2.6360      0.0100     78.3900
    349      3.7740    -24.9600     -4.2310      1.7700     78.3900
    350      3.0010    -24.2190     -3.9480      0.0100     78.3900
    351      3.4280    -25.6100     -5.4450      1.5900     78.3900
    352      2.7610    -26.2890     -5.2890      0.0100     78.3900
    353      5.1530    -24.3130     -4.3380      1.7700     78.3900
    354      5.3550    -23.6840     -3.4410      0.0100     78.3900
    355      5.4280    -23.6380     -5.5900      1.5900     78.3900
    356      5.3280    -22.0790     -5.6880      2.1000     78.3900
    357      5.8230    -21.4990     -4.4200      1.5900     78.3900
    358      6.0170    -21.6390     -6.9210      1.5900     78.3900
    359      3.7990    -21.7770     -5.8210      1.5900     78.3900
    360      2.9570    -22.4080     -6.8080      1.7700     78.3900
    361      3.2110    -23.4850     -6.9510      0.0100     78.3900
    362      3.0800    -21.9040     -7.7930      0.0100     78.3900
    363      1.4720    -22.3340     -6.4170      1.7700     78.3900
    364      0.8510    -22.8130     -7.2040      0.0100     78.3900
    365      1.2350    -23.0760     -5.1860      1.5900     78.3900
    366      0.3270    -22.3600     -4.3600      1.7700     78.3900
    367     -0.4790    -23.0810     -4.0850      0.0100     78.3900
    368      0.9720    -21.8400     -3.1090      1.6800     78.3900
    369      2.3380    -21.7500     -2.9950      1.7700     78.3900
    370      2.8940    -22.1260     -3.8450      0.0100     78.3900
    371      0.1670    -21.4170     -2.0740      1.7700     78.3900
    372     -1.0550    -21.4190     -2.1410      1.5900     78.3900
    373      0.8230    -20.9850     -0.9500      1.6800     78.3900
    374      0.2230    -20.6190     -0.2240      0.0100     78.3900
    375      2.1830    -20.9210     -0.7520      1.7700     78.3900
    376      2.6340    -20.5530      0.3320      1.5900     78.3900
    377      2.9590    -21.3340     -1.8820      1.7700     78.3900
    378      4.0440    -21.3160     -1.8140      0.0100     78.3900
    379     -0.2640    -21.2620     -5.2260      1.7700     78.3900
    380     -0.6140    -20.3960     -4.6390      0.0100     78.3900
    381     -1.3390    -21.7840     -5.9680      1.5900     78.3900
    382     -0.9660    -22.2220     -6.7430      0.0100     78.3900
    383      0.9000    -20.9290     -6.1550      1.7700     78.3900
    384      1.6800    -20.3650     -5.5920      0.0100     78.3900
    385      0.5220    -20.3090     -7.4150      1.5900     78.3900
    386      0.9050    -18.8100     -7.7130      2.1000     78.3900
    387      2.1790    -18.4870     -7.0370      1.5900     78.3900
    388      0.8670    -18.5790     -9.1730      1.5900     78.3900
    389     -0.2260    -17.9500     -7.0460      1.5900     78.3900
    390     -1.5760    -17.9190     -7.5670      1.7700     78.3900
    391     -1.8720    -18.8870     -8.0380      0.0100     78.3900
    392     -1.6600    -17.1180     -8.3390      0.0100     78.3900
    393     -2.5740    -17.6290     -6.4370      1.7700     78.3900
    394     -3.6250    -17.7220     -6.7790      0.0100     78.3900
    395     -2.3910    -18.5760     -5.3480      1.5900     78.3900
    396     -2.5640    -17.8910     -4.1180      1.7700     78.3900
    397     -3.3330    -18.4590     -3.5550      0.0100     78.3900
    398     -1.3430    -17.8470     -3.3260      1.6800     78.3900
    399     -1.2360    -17.4390     -2.0300      1.7700     78.3900
    400     -2.6670    -16.2200      0.8720      1.6800     78.3900
    401     -2.3900    -16.0850      1.8270      0.0100     78.3900
    402     -3.6080    -16.0040      0.5870      0.0100     78.3900
    403     -2.2360    -16.9760     -1.2610      1.6800     78.3900
    404     -1.8380    -16.7130     -0.0220      1.7700     78.3900
    405     -0.5520    -16.8990      0.4050      1.6800     78.3900
    406     -0.3440    -16.6990      1.3690      0.0100     78.3900
    407      0.5050    -17.3480     -0.3750      1.7700     78.3900
    408      1.6440    -17.4760      0.0850      1.5900     78.3900
    409      0.0950    -17.6080     -1.7040      1.7700     78.3900
    410      0.8240    -18.0620     -2.7950      1.6800     78.3900
    411     -0.0770    -18.1740     -3.7370      1.7700     78.3900
    412      0.1110    -18.4890     -4.7640      0.0100     78.3900
    413     -3.0670    -16.5130     -4.4280      1.7700     78.3900
    414     -2.7830    -15.7510     -3.6750      0.0100     78.3900
    415     -4.4660    -16.5740     -4.5210      1.5900     78.3900
    416     -4.8150    -15.7180     -4.7780      0.0100     78.3900
    417     -2.4290    -16.2550     -5.7820      1.7700     78.3900
    418     -1.3350    -16.0700     -5.6800      0.0100     78.3900
    419     -3.1010    -15.2670     -6.5870      1.5900     78.3900
    420     -2.6280    -13.7790     -6.5120      2.1000     78.3900
    421     -1.1530    -13.7210     -6.5550      1.5900     78.3900
    422     -3.3530    -13.0240     -7.5390      1.5900     78.3900
    423     -3.1000    -13.2850     -5.0980      1.5900     78.3900
    424     -4.5020    -13.0840     -4.8220      1.7700     78.3900
    425     -5.0820    -14.0140     -4.9990      0.0100     78.3900
    426     -4.9350    -12.2870     -5.4760      0.0100     78.3900
    427     -4.7010    -12.6750     -3.3610      1.7700     78.3900
    428     -5.7770    -12.5220     -3.1280      0.0100     78.3900
    429     -4.1950    -13.7170     -2.4800      1.5900     78.3900
    430     -3.5680    -13.1220     -1.3480      1.7700     78.3900
    431     -4.0990    -13.5110     -0.4460      0.0100     78.3900
    432     -2.1480    -13.4730     -1.2670      1.6800     78.3900
    433     -1.3520    -13.3540     -0.1620      1.7700     78.3900
    434     -0.9350    -12.4740      3.1580      1.6800     78.3900
    435     -1.8590    -12.2020      3.4070      0.0100     78.3900
    436     -0.2320    -12.5440      3.8700      0.0100     78.3900
    437     -1.7310    -12.8870      1.0360      1.6800     78.3900
    438     -0.7460    -12.9080      1.9280      1.7700     78.3900
    439      0.5210    -13.3260      1.6290      1.6800     78.3900
    440      1.1970    -13.3380      2.3750      0.0100     78.3900
    441      0.9520    -13.7950      0.3950      1.7700     78.3900
    442      2.1230    -14.1470      0.2100      1.5900     78.3900
    443     -0.1030    -13.7910     -0.5570      1.7700     78.3900
    444     -0.1090    -14.1610     -1.8970      1.6800     78.3900
    445     -1.3440    -13.9410     -2.2810      1.7700     78.3900
    446     -1.7390    -14.1030     -3.2850      0.0100     78.3900
    447     -3.7490    -11.6240     -1.4520      1.7700     78.3900
    448     -2.8570    -11.0630     -1.1000      0.0100     78.3900
    449     -4.8540    -11.1960     -0.6900      1.5900     78.3900
    450     -5.6020    -11.8120     -0.7710      0.0100     78.3900
    451     -3.9190    -11.4300     -2.9490      1.7700     78.3900
    452     -2.9220    -11.4660     -3.4340      0.0100     78.3900
    453     -4.6220    -10.2400     -3.3320      1.5900     78.3900
    454     -4.1180     -9.4580     -3.0540      0.0100     78.3900
    455      6.8800    -13.9810      8.8750      0.0100     78.3900
    456      5.9360    -13.9140      8.6390      1.5900     78.3900
    457      5.3160    -13.0840      9.6310      1.7700     78.3900
    458      5.8730    -12.1240      9.7130      0.0100     78.3900
    459      5.3660    -13.5940     10.6200      0.0100     78.3900
    460      3.8470    -12.7730      9.3230      1.7700     78.3900
    461      3.3670    -12.2480     10.1760      0.0100     78.3900
    462      3.7570    -11.8910      8.1630      1.5900     78.3900
    463      2.6520    -12.2940      7.3620      1.7700     78.3900
    464      2.0220    -11.3840      7.2420      0.0100     78.3900
    465      3.0530    -12.7880      6.0130      1.6800     78.3900
    466      4.3400    -13.2210      5.7850      1.7700     78.3900
    467      5.0260    -13.1650      6.6310      0.0100     78.3900
    468      4.7300    -13.6520      4.5790      1.7700     78.3900
    469      5.7490    -13.9720      4.3760      0.0100     78.3900
    470      2.1190    -12.8300      4.9800      1.7700     78.3900
    471      0.9560    -12.4550      5.2000      1.5900     78.3900
    472      2.4980    -13.2600      3.7530      1.6800     78.3900
    473      3.7690    -13.6430      3.5300      1.7700     78.3900
    474      4.1310    -14.0200      2.3040      1.6800     78.3900
    475      3.4390    -14.0750      1.5790      0.0100     78.3900
    476      5.0590    -14.3280      2.0960      0.0100     78.3900
    477      1.8740    -13.3260      8.1530      1.7700     78.3900
    478      1.3510    -14.0550      7.5010      0.0100     78.3900
    479      0.9370    -12.6910      9.0000      1.5900     78.3900
    480      0.4600    -13.3970      9.4520      0.0100     78.3900
    481      2.9860    -13.9900      8.9570      1.7700     78.3900
    482      3.5970    -14.6370      8.2890      0.0100     78.3900
    483      2.5700    -14.6690     10.1660      1.5900     78.3900
    484      2.1510    -16.1850     10.0700      2.1000     78.3900
    485      3.2100    -16.9220      9.3520      1.5900     78.3900
    486      1.8030    -16.6800     11.4180      1.5900     78.3900
    487      0.8650    -16.1670      9.1700      1.5900     78.3900
    488     -0.4080    -15.7450      9.7000      1.7700     78.3900
    489     -0.3710    -14.6950     10.0710      0.0100     78.3900
    490     -0.7200    -16.3930     10.5550      0.0100     78.3900
    491     -1.4950    -15.8340      8.6250      1.7700     78.3900
    492     -2.4750    -15.4850      9.0270      0.0100     78.3900
    493     -1.1660    -14.9670      7.4960      1.5900     78.3900
    494     -1.6110    -15.5910      6.2960      1.7700     78.3900
    495     -2.3170    -14.8720      5.8380      0.0100     78.3900
    496     -0.5170    -15.8730      5.3240      1.6800     78.3900
    497      0.7660    -16.0520      5.7840      1.7700     78.3900
    498      0.9010    -15.9400      6.8590      0.0100     78.3900
    499      1.7820    -16.3030      4.9480      1.7700     78.3900
    500      2.8100    -16.4050      5.2960      0.0100     78.3900
    501     -0.7870    -15.9890      3.9580      1.7700     78.3900
    502     -1.9460    -15.8240      3.5420      1.5900     78.3900
    503      0.2280    -16.2620      3.1050      1.6800     78.3900
    504      1.4810    -16.4160      3.5600      1.7700     78.3900
    505      2.4520    -16.6870      2.6900      1.6800     78.3900
    506      2.2130    -16.8290      1.7250      0.0100     78.3900
    507      3.4010    -16.8330      2.9730      0.0100     78.3900
    508     -2.3560    -16.8440      6.7030      1.7700     78.3900
    509     -2.2520    -17.6440      5.9500      0.0100     78.3900
    510     -3.7190    -16.5450      6.9300      1.5900     78.3900
    511     -4.1250    -17.3550      7.2590      0.0100     78.3900
    512     -1.6820    -17.2280      8.0050      1.7700     78.3900
    513     -0.6730    -17.6580      7.8240      0.0100     78.3900
    514     -2.4820    -18.0560      8.8750      1.5900     78.3900
    515     -2.5140    -19.6230      8.7510      2.1000     78.3900
    516     -1.1900    -20.1400      9.1570      1.5900     78.3900
    517     -3.6840    -20.1220      9.5010      1.5900     78.3900
    518     -2.7220    -19.9340      7.2210      1.5900     78.3900
    519     -4.0480    -19.9110      6.6320      1.7700     78.3900
    520     -4.5510    -18.9400      6.8200      0.0100     78.3900
    521     -4.6980    -20.6920      7.0850      0.0100     78.3900
    522     -4.0170    -20.1450      5.1060      1.7700     78.3900
    523     -5.0290    -20.0080      4.6670      0.0100     78.3900
    524     -3.1520    -19.1790      4.4540      1.5900     78.3900
    525     -2.4980    -19.7740      3.3500      1.7700     78.3900
    526     -2.8000    -19.1830      2.4470      0.0100     78.3900
    527     -1.0120    -19.7660      3.5250      1.6800     78.3900
    528     -0.4470    -19.6460      4.7760      1.7700     78.3900
    529     -1.1530    -19.5160      5.5950      0.0100     78.3900
    530     -0.2180    -19.9310      2.4140      1.7700     78.3900
    531     -0.6800    -20.0860      1.2890      1.5900     78.3900
    532      1.1350    -19.9250      2.6540      1.6800     78.3900
    533      1.7320    -20.0470      1.8480      0.0100     78.3900
    534      1.7680    -19.7640      3.8690      1.7700     78.3900
    535      2.9960    -19.7280      3.9320      1.5900     78.3900
    536      0.8780    -19.6270      4.9820      1.7700     78.3900
    537      1.3030    -19.4810      5.9710      0.0100     78.3900
    538     -3.0390    -21.1870      3.2250      1.7700     78.3900
    539     -2.2510    -21.8980      2.9040      0.0100     78.3900
    540     -4.1070    -21.2570      2.3110      1.5900     78.3900
    541     -4.3090    -22.1990      2.2200      0.0100     78.3900
    542     -3.5070    -21.5080      4.6510      1.7700     78.3900
    543     -2.6460    -21.7580      5.3070      0.0100     78.3900
    544     -4.5800    -22.4710      4.7840      1.5900     78.3900
    545     -4.3640    -24.0070      4.5330      2.1000     78.3900
    546     -3.6710    -24.5920      5.7050      1.5900     78.3900
    547     -5.6970    -24.5810      4.2580      1.5900     78.3900
    548     -3.4290    -24.1110      3.2730      1.5900     78.3900
    549     -3.3910    -25.2490      2.3890      1.7700     78.3900
    550     -3.1830    -26.1920      2.9400      0.0100     78.3900
    551     -2.5450    -25.1040      1.6750      0.0100     78.3900
    552     -4.6740    -25.4100      1.5650      1.7700     78.3900
    553     -5.5860    -25.4180      2.1840      0.0100     78.3900
    554     -4.8020    -24.3050      0.6490      1.5900     78.3900
    555     -5.3990    -24.7660     -0.5440      1.7700     78.3900
    556     -6.3180    -24.1590     -0.6650      0.0100     78.3900
    557     -4.5340    -24.5720     -1.7130      1.6800     78.3900
    558     -3.8000    -24.3310     -3.7650      1.7700     78.3900
    559     -2.7120    -24.0640     -2.9390      1.6800     78.3900
    560     -3.2110    -24.1840     -1.7330      1.7700     78.3900
    561     -2.6620    -24.0070     -0.8040      0.0100     78.3900
    562     -5.1830    -24.5270     -5.6870      1.6800     78.3900
    563     -6.1750    -24.8290     -4.8510      1.7700     78.3900
    564     -7.1320    -25.0450     -5.3340      0.0100     78.3900
    565     -6.1480    -24.9570     -3.5200      1.6800     78.3900
    566     -4.9250    -24.6490     -3.0290      1.7700     78.3900
    567     -3.9570    -24.2930     -5.1630      1.7700     78.3900
    568     -2.9460    -24.0430     -5.9900      1.6800     78.3900
    569     -2.2230    -23.4440     -5.6260      0.0100     78.3900
    570     -3.1560    -23.9270     -6.9600      0.0100     78.3900
    571     -5.7810    -26.2030     -0.3380      1.7700     78.3900
    572     -5.6640    -26.7830     -1.2580      0.0100     78.3900
    573     -7.1190    -26.3070      0.1240      1.5900     78.3900
    574     -7.2370    -27.2110      0.4520      0.0100     78.3900
    575     -4.7650    -26.6610      0.6880      1.7700     78.3900
    576     -3.7580    -26.7940      0.2260      0.0100     78.3900
    577     -5.2080    -27.8040      1.4550      1.5900     78.3900
    578     -4.6850    -29.2400      1.0800      2.1000     78.3900
    579     -3.2420    -29.2770      1.3600      1.5900     78.3900
    580     -5.5100    -30.2510      1.7750      1.5900     78.3900
    581     -4.9000    -29.3730     -0.4790      1.5900     78.3900
    582     -6.2100    -29.6570     -1.0320      1.7700     78.3900
    583     -6.9860    -28.9840     -0.5980      0.0100     78.3900
    584     -6.5140    -30.7020     -0.8030      0.0100     78.3900
    585     -6.2660    -29.4950     -2.5650      1.7700     78.3900
    586     -7.3140    -29.5710     -2.9230      0.0100     78.3900
    587     -5.7890    -28.1840     -2.9550      1.5900     78.3900
    588     -4.9980    -28.2660     -4.1170      1.7700     78.3900
    589     -5.4220    -27.5260     -4.8330      0.0100     78.3900
    590     -3.5970    -27.9140     -3.8510      1.6800     78.3900
    591     -1.5150    -27.2900     -4.1570      1.7700     78.3900
    592     -1.6720    -27.4350     -2.7860      1.6800     78.3900
    593     -2.9210    -27.8160     -2.6550      1.7700     78.3900
    594     -3.4150    -28.0340     -1.7080      0.0100     78.3900
    595     -0.5920    -26.9060     -6.3050      1.6800     78.3900
    596     -1.7960    -27.2140     -6.7880      1.7700     78.3900
    597     -1.8730    -27.1750     -7.8790      0.0100     78.3900
    598     -2.9040    -27.5820     -6.1430      1.6800     78.3900
    599     -2.6930    -27.5860     -4.8180      1.7700     78.3900
    600     -0.4190    -26.9240     -4.9640      1.7700     78.3900
    601      0.7660    -26.5170     -4.5040      1.6800     78.3900
    602      0.8390    -26.3640     -3.5060      0.0100     78.3900
    603      1.1750    -25.8080     -5.0710      0.0100     78.3900
    604     -5.1570    -29.6600     -4.6640      1.7700     78.3900
    605     -4.2510    -30.0170     -5.1910      0.0100     78.3900
    606     -6.2700    -29.6990     -5.5420      1.5900     78.3900
    607     -6.5190    -30.6280     -5.6650      0.0100     78.3900
    608     -5.4040    -30.4560     -3.3870      1.7700     78.3900
    609     -4.4560    -30.5750     -2.8100      0.0100     78.3900
    610     -6.1070    -31.6900     -3.6040      1.5900     78.3900
    611     -5.4080    -33.0720     -3.3550      2.1000     78.3900
    612     -4.8490    -33.1260     -1.9900      1.5900     78.3900
    613     -6.3580    -34.1370     -3.7360      1.5900     78.3900
    614     -4.1940    -33.0730     -4.3510      1.5900     78.3900
    615     -4.3600    -33.1020     -5.7830      1.7700     78.3900
    616     -5.1080    -32.3490     -6.1240      0.0100     78.3900
    617     -4.7220    -34.1030     -6.1060      0.0100     78.3900
    618     -3.0250    -32.8170     -6.4930      1.7700     78.3900
    619     -3.1330    -32.8990     -7.5950      0.0100     78.3900
    620     -2.6110    -31.4490     -6.2020      1.5900     78.3900
    621     -1.2090    -31.4040     -5.9750      1.7700     78.3900
    622     -0.7980    -30.6290     -6.6640      0.0100     78.3900
    623     -0.8930    -31.0180     -4.5910      1.6800     78.3900
    624      0.2930    -30.5010     -4.1330      1.7700     78.3900
    625      3.5530    -29.4740     -4.6880      1.6800     78.3900
    626      4.3470    -29.1850     -4.1580      0.0100     78.3900
    627      3.6850    -29.7140     -5.6530      0.0100     78.3900
    628      1.3920    -30.2690     -4.8690      1.6800     78.3900
    629      2.3830    -29.7530     -4.1440      1.7700     78.3900
    630      2.2740    -29.4620     -2.8120      1.6800     78.3900
    631      3.0930    -29.1440     -2.3240      0.0100     78.3900
    632      1.1500    -29.6750     -2.0290      1.7700     78.3900
    633      1.1600    -29.3730     -0.8320      1.5900     78.3900
    634      0.0980    -30.2710     -2.7830      1.7700     78.3900
    635     -1.1710    -30.6780     -2.3940      1.6800     78.3900
    636     -1.7250    -31.1030     -3.5000      1.7700     78.3900
    637     -2.7400    -31.4870     -3.5860      0.0100     78.3900
    638     -0.6490    -32.7590     -6.3480      1.7700     78.3900
    639      0.2410    -33.0380     -5.7450      0.0100     78.3900
    640     -0.3120    -32.7730     -7.7220      1.5900     78.3900
    641     -0.1920    -33.6990     -7.9770      0.0100     78.3900
    642     -1.8290    -33.6810     -6.0530      1.7700     78.3900
    643     -1.9310    -33.8330     -4.9530      0.0100     78.3900
    644     -1.8160    -34.9210     -6.7940      1.5900     78.3900
    645     -1.3090    -36.2490     -6.1170      2.1000     78.3900
    646     -2.0180    -36.4520     -4.8370      1.5900     78.3900
    647     -1.3970    -37.3450     -7.1030      1.5900     78.3900
    648      0.2000    -35.9420     -5.7900      1.5900     78.3900
    649      1.1950    -35.8630     -6.8340      1.7700     78.3900
    650      0.9780    -35.0200     -7.5250      0.0100     78.3900
    651      1.2110    -36.8020     -7.4350      0.0100     78.3900
    652      2.6020    -35.6460     -6.2560      1.7700     78.3900
    653      3.3710    -35.7630     -7.0530      0.0100     78.3900
    654      2.7190    -34.2840     -5.7440      1.5900     78.3900
    655      3.5070    -34.2930     -4.5590      1.7700     78.3900
    656      4.3530    -33.5900     -4.7510      0.0100     78.3900
    657      2.7250    -33.8390     -3.3720      1.6800     78.3900
    658      1.3490    -33.8680     -3.3710      1.7700     78.3900
    659      0.8920    -34.2650     -4.2780      0.0100     78.3900
    660      3.4170    -33.4010     -2.2670      1.7700     78.3900
    661      4.6420    -33.3810     -2.2230      1.5900     78.3900
    662      2.6360    -32.9920     -1.2150      1.6800     78.3900
    663      3.1440    -32.6760     -0.3970      0.0100     78.3900
    664      1.2600    -33.0150     -1.1350      1.7700     78.3900
    665      0.6970    -32.6660     -0.0990      1.5900     78.3900
    666      0.6100    -33.4750     -2.3240      1.7700     78.3900
    667     -0.4770    -33.5010     -2.3470      0.0100     78.3900
    668      4.0620    -35.7010     -4.3910      1.7700     78.3900
    669      4.1580    -35.9790     -3.3190      0.0100     78.3900
    670      5.3240    -35.8230     -5.0340      1.5900     78.3900
    671      5.5720    -36.7650     -5.0540      0.0100     78.3900
    672      2.9870    -36.5400     -5.0700      1.7700     78.3900
    673      2.1050    -36.6410     -4.4020      0.0100     78.3900
    674      3.4420    -37.8290     -5.5220      1.5900     78.3900
    675      3.6030    -38.4050     -4.7540      0.0100     78.3900

     ----------------------------
     INPUT FOR TESSERA DEFINITION
     ----------------------------
     NTSALL  =        60     MTHALL  =         4
     MTHAUT  =         0     AUTFRE  =    2.0000
     NTSFRZ  =        60     KEEPSM  =         0
     AREAKP  =   10.0000     BONDRY  =    1.0000
     AREATL  =    0.0100

     SPHERE     INITS       METHOD
          1        60       FIXPVA
          2        60       FIXPVA
          3        60       FIXPVA
          4        60       FIXPVA
          5        60       FIXPVA
          6        60       FIXPVA
          7        60       FIXPVA
          8        60       FIXPVA
          9        60       FIXPVA
         10        60       FIXPVA
         11        60       FIXPVA
         12        60       FIXPVA
         13        60       FIXPVA
         14        60       FIXPVA
         15        60       FIXPVA
         16        60       FIXPVA
         17        60       FIXPVA
         18        60       FIXPVA
         19        60       FIXPVA
         20        60       FIXPVA
         21        60       FIXPVA
         22        60       FIXPVA
         23        60       FIXPVA
         24        60       FIXPVA
         25        60       FIXPVA
         26        60       FIXPVA
         27        60       FIXPVA
         28        60       FIXPVA
         29        60       FIXPVA
         30        60       FIXPVA
         31        60       FIXPVA
         32        60       FIXPVA
         33        60       FIXPVA
         34        60       FIXPVA
         35        60       FIXPVA
         36        60       FIXPVA
         37        60       FIXPVA
         38        60       FIXPVA
         39        60       FIXPVA
         40        60       FIXPVA
         41        60       FIXPVA
         42        60       FIXPVA
         43        60       FIXPVA
         44        60       FIXPVA
         45        60       FIXPVA
         46        60       FIXPVA
         47        60       FIXPVA
         48        60       FIXPVA
         49        60       FIXPVA
         50        60       FIXPVA
         51        60       FIXPVA
         52        60       FIXPVA
         53        60       FIXPVA
         54        60       FIXPVA
         55        60       FIXPVA
         56        60       FIXPVA
         57        60       FIXPVA
         58        60       FIXPVA
         59        60       FIXPVA
         60        60       FIXPVA
         61        60       FIXPVA
         62        60       FIXPVA
         63        60       FIXPVA
         64        60       FIXPVA
         65        60       FIXPVA
         66        60       FIXPVA
         67        60       FIXPVA
         68        60       FIXPVA
         69        60       FIXPVA
         70        60       FIXPVA
         71        60       FIXPVA
         72        60       FIXPVA
         73        60       FIXPVA
         74        60       FIXPVA
         75        60       FIXPVA
         76        60       FIXPVA
         77        60       FIXPVA
         78        60       FIXPVA
         79        60       FIXPVA
         80        60       FIXPVA
         81        60       FIXPVA
         82        60       FIXPVA
         83        60       FIXPVA
         84        60       FIXPVA
         85        60       FIXPVA
         86        60       FIXPVA
         87        60       FIXPVA
         88        60       FIXPVA
         89        60       FIXPVA
         90        60       FIXPVA
         91        60       FIXPVA
         92        60       FIXPVA
         93        60       FIXPVA
         94        60       FIXPVA
         95        60       FIXPVA
         96        60       FIXPVA
         97        60       FIXPVA
         98        60       FIXPVA
         99        60       FIXPVA
        100        60       FIXPVA
        101        60       FIXPVA
        102        60       FIXPVA
        103        60       FIXPVA
        104        60       FIXPVA
        105        60       FIXPVA
        106        60       FIXPVA
        107        60       FIXPVA
        108        60       FIXPVA
        109        60       FIXPVA
        110        60       FIXPVA
        111        60       FIXPVA
        112        60       FIXPVA
        113        60       FIXPVA
        114        60       FIXPVA
        115        60       FIXPVA
        116        60       FIXPVA
        117        60       FIXPVA
        118        60       FIXPVA
        119        60       FIXPVA
        120        60       FIXPVA
        121        60       FIXPVA
        122        60       FIXPVA
        123        60       FIXPVA
        124        60       FIXPVA
        125        60       FIXPVA
        126        60       FIXPVA
        127        60       FIXPVA
        128        60       FIXPVA
        129        60       FIXPVA
        130        60       FIXPVA
        131        60       FIXPVA
        132        60       FIXPVA
        133        60       FIXPVA
        134        60       FIXPVA
        135        60       FIXPVA
        136        60       FIXPVA
        137        60       FIXPVA
        138        60       FIXPVA
        139        60       FIXPVA
        140        60       FIXPVA
        141        60       FIXPVA
        142        60       FIXPVA
        143        60       FIXPVA
        144        60       FIXPVA
        145        60       FIXPVA
        146        60       FIXPVA
        147        60       FIXPVA
        148        60       FIXPVA
        149        60       FIXPVA
        150        60       FIXPVA
        151        60       FIXPVA
        152        60       FIXPVA
        153        60       FIXPVA
        154        60       FIXPVA
        155        60       FIXPVA
        156        60       FIXPVA
        157        60       FIXPVA
        158        60       FIXPVA
        159        60       FIXPVA
        160        60       FIXPVA
        161        60       FIXPVA
        162        60       FIXPVA
        163        60       FIXPVA
        164        60       FIXPVA
        165        60       FIXPVA
        166        60       FIXPVA
        167        60       FIXPVA
        168        60       FIXPVA
        169        60       FIXPVA
        170        60       FIXPVA
        171        60       FIXPVA
        172        60       FIXPVA
        173        60       FIXPVA
        174        60       FIXPVA
        175        60       FIXPVA
        176        60       FIXPVA
        177        60       FIXPVA
        178        60       FIXPVA
        179        60       FIXPVA
        180        60       FIXPVA
        181        60       FIXPVA
        182        60       FIXPVA
        183        60       FIXPVA
        184        60       FIXPVA
        185        60       FIXPVA
        186        60       FIXPVA
        187        60       FIXPVA
        188        60       FIXPVA
        189        60       FIXPVA
        190        60       FIXPVA
        191        60       FIXPVA
        192        60       FIXPVA
        193        60       FIXPVA
        194        60       FIXPVA
        195        60       FIXPVA
        196        60       FIXPVA
        197        60       FIXPVA
        198        60       FIXPVA
        199        60       FIXPVA
        200        60       FIXPVA
        201        60       FIXPVA
        202        60       FIXPVA
        203        60       FIXPVA
        204        60       FIXPVA
        205        60       FIXPVA
        206        60       FIXPVA
        207        60       FIXPVA
        208        60       FIXPVA
        209        60       FIXPVA
        210        60       FIXPVA
        211        60       FIXPVA
        212        60       FIXPVA
        213        60       FIXPVA
        214        60       FIXPVA
        215        60       FIXPVA
        216        60       FIXPVA
        217        60       FIXPVA
        218        60       FIXPVA
        219        60       FIXPVA
        220        60       FIXPVA
        221        60       FIXPVA
        222        60       FIXPVA
        223        60       FIXPVA
        224        60       FIXPVA
        225        60       FIXPVA
        226        60       FIXPVA
        227        60       FIXPVA
        228        60       FIXPVA
        229        60       FIXPVA
        230        60       FIXPVA
        231        60       FIXPVA
        232        60       FIXPVA
        233        60       FIXPVA
        234        60       FIXPVA
        235        60       FIXPVA
        236        60       FIXPVA
        237        60       FIXPVA
        238        60       FIXPVA
        239        60       FIXPVA
        240        60       FIXPVA
        241        60       FIXPVA
        242        60       FIXPVA
        243        60       FIXPVA
        244        60       FIXPVA
        245        60       FIXPVA
        246        60       FIXPVA
        247        60       FIXPVA
        248        60       FIXPVA
        249        60       FIXPVA
        250        60       FIXPVA
        251        60       FIXPVA
        252        60       FIXPVA
        253        60       FIXPVA
        254        60       FIXPVA
        255        60       FIXPVA
        256        60       FIXPVA
        257        60       FIXPVA
        258        60       FIXPVA
        259        60       FIXPVA
        260        60       FIXPVA
        261        60       FIXPVA
        262        60       FIXPVA
        263        60       FIXPVA
        264        60       FIXPVA
        265        60       FIXPVA
        266        60       FIXPVA
        267        60       FIXPVA
        268        60       FIXPVA
        269        60       FIXPVA
        270        60       FIXPVA
        271        60       FIXPVA
        272        60       FIXPVA
        273        60       FIXPVA
        274        60       FIXPVA
        275        60       FIXPVA
        276        60       FIXPVA
        277        60       FIXPVA
        278        60       FIXPVA
        279        60       FIXPVA
        280        60       FIXPVA
        281        60       FIXPVA
        282        60       FIXPVA
        283        60       FIXPVA
        284        60       FIXPVA
        285        60       FIXPVA
        286        60       FIXPVA
        287        60       FIXPVA
        288        60       FIXPVA
        289        60       FIXPVA
        290        60       FIXPVA
        291        60       FIXPVA
        292        60       FIXPVA
        293        60       FIXPVA
        294        60       FIXPVA
        295        60       FIXPVA
        296        60       FIXPVA
        297        60       FIXPVA
        298        60       FIXPVA
        299        60       FIXPVA
        300        60       FIXPVA
        301        60       FIXPVA
        302        60       FIXPVA
        303        60       FIXPVA
        304        60       FIXPVA
        305        60       FIXPVA
        306        60       FIXPVA
        307        60       FIXPVA
        308        60       FIXPVA
        309        60       FIXPVA
        310        60       FIXPVA
        311        60       FIXPVA
        312        60       FIXPVA
        313        60       FIXPVA
        314        60       FIXPVA
        315        60       FIXPVA
        316        60       FIXPVA
        317        60       FIXPVA
        318        60       FIXPVA
        319        60       FIXPVA
        320        60       FIXPVA
        321        60       FIXPVA
        322        60       FIXPVA
        323        60       FIXPVA
        324        60       FIXPVA
        325        60       FIXPVA
        326        60       FIXPVA
        327        60       FIXPVA
        328        60       FIXPVA
        329        60       FIXPVA
        330        60       FIXPVA
        331        60       FIXPVA
        332        60       FIXPVA
        333        60       FIXPVA
        334        60       FIXPVA
        335        60       FIXPVA
        336        60       FIXPVA
        337        60       FIXPVA
        338        60       FIXPVA
        339        60       FIXPVA
        340        60       FIXPVA
        341        60       FIXPVA
        342        60       FIXPVA
        343        60       FIXPVA
        344        60       FIXPVA
        345        60       FIXPVA
        346        60       FIXPVA
        347        60       FIXPVA
        348        60       FIXPVA
        349        60       FIXPVA
        350        60       FIXPVA
        351        60       FIXPVA
        352        60       FIXPVA
        353        60       FIXPVA
        354        60       FIXPVA
        355        60       FIXPVA
        356        60       FIXPVA
        357        60       FIXPVA
        358        60       FIXPVA
        359        60       FIXPVA
        360        60       FIXPVA
        361        60       FIXPVA
        362        60       FIXPVA
        363        60       FIXPVA
        364        60       FIXPVA
        365        60       FIXPVA
        366        60       FIXPVA
        367        60       FIXPVA
        368        60       FIXPVA
        369        60       FIXPVA
        370        60       FIXPVA
        371        60       FIXPVA
        372        60       FIXPVA
        373        60       FIXPVA
        374        60       FIXPVA
        375        60       FIXPVA
        376        60       FIXPVA
        377        60       FIXPVA
        378        60       FIXPVA
        379        60       FIXPVA
        380        60       FIXPVA
        381        60       FIXPVA
        382        60       FIXPVA
        383        60       FIXPVA
[...]
   623   20   7.0   0.00    0.0    0.000000   -0.801217   -0.813421
   624   20   6.0   0.00    0.0    0.000000    0.702536    0.711659
   625   20   7.0  17.06   33.4   -0.186666   -0.994664   -1.000910
   626   20   1.0   0.00    0.0    0.000000    0.450297    0.448071
   627   20   1.0   0.00    0.0    0.000000    0.458672    0.463075
   628   20   7.0   3.93    7.7    0.069795   -0.744543   -0.743442
   629   20   6.0   0.20    0.4    0.002863    0.988056    0.989495
   630   20   7.0   0.00    0.0    0.000096   -0.931151   -0.998362
   631   20   1.0   0.00    0.0    0.000000    0.453831    0.501565
   632   20   6.0   0.00    0.0    0.000004    0.892290    0.890810
   633   20   8.0   3.06    6.7    0.101924   -0.748250   -0.734922
   634   20   6.0   0.00    0.0    0.000000   -0.041814   -0.035126
   635   20   7.0   4.06    7.9    0.118074   -0.564753   -0.576604
   636   20   6.0   1.20    2.1   -0.002686    0.269311    0.256347
   637   20   1.0   0.00    0.0    0.000000    0.263264    0.293880
   638   20   6.0   1.15    2.0    0.011134    0.139534    0.115695
   639   20   1.0   0.00    0.0    0.000000    0.189141    0.218331
   640   20   8.0  17.71   38.7    0.064399   -0.830424   -0.842734
   641   20   1.0   0.00    0.0    0.000000    0.502387    0.521597
   642   20   6.0   0.79    1.4   -0.010879    0.139793    0.105439
   643   20   1.0   0.00    0.0    0.000000    0.242732    0.245504
   644   20   8.0   5.13   11.2    0.059329   -0.793048   -0.798999
   645   20  15.0   9.84   12.3    0.117964    1.601086    1.642726
   646   20   8.0  14.79   32.3    0.339676   -0.892048   -0.887563
   647   20   8.0  18.25   39.9    0.354665   -0.889628   -0.884661
   648   20   8.0   1.53    3.3    0.027803   -0.978175   -0.788344
   649   21   6.0  10.89   19.2   -0.079929    0.204459   -0.019002
   650   21   1.0   0.00    0.0    0.000000    0.154136    0.167982
   651   21   1.0   0.00    0.0    0.000000    0.248670    0.227898
   652   21   6.0   5.69   10.0   -0.051857    0.086943    0.145069
   653   21   1.0   0.00    0.0    0.000000    0.252363    0.226993
   654   21   8.0   4.73   10.3    0.050426   -0.728596   -0.734098
   655   21   6.0   5.96   10.5   -0.047459    0.412380    0.411588
   656   21   1.0   0.00    0.0    0.000000    0.264639    0.261573
   657   21   7.0   0.85    1.7   -0.007076   -0.830239   -0.836014
   658   21   6.0   2.49    4.4   -0.011500    0.194849    0.180879
   659   21   1.0   0.00    0.0    0.000000    0.296952    0.320311
   660   21   6.0   2.83    5.0   -0.013356    1.111368    1.109220
   661   21   8.0  12.11   26.5    0.167457   -0.684330   -0.691388
   662   21   7.0   2.55    5.0    0.002178   -0.935897   -1.016527
   663   21   1.0   0.00    0.0    0.000000    0.484937    0.539112
   664   21   6.0   2.78    4.9   -0.005739    0.886361    0.889169
   665   21   8.0  12.14   26.5    0.171267   -0.727981   -0.715918
   666   21   6.0   8.15   14.4   -0.016538   -0.436301   -0.438431
   667   21   1.0   0.00    0.0    0.000000    0.268000    0.272243
   668   21   6.0   5.99   10.6   -0.059247    0.117106    0.117732
   669   21   1.0   0.00    0.0    0.000000    0.229915    0.227157
   670   21   8.0  20.96   45.8    0.035853   -0.839844   -0.840558
   671   21   1.0   0.00    0.0    0.000000    0.505231    0.505672
   672   21   6.0   4.41    7.8   -0.049770    0.164725    0.145754
   673   21   1.0   0.00    0.0    0.000000    0.226078    0.226948
   674   21   8.0  22.52   49.2   -0.007623   -0.848484   -0.850710
   675   21   1.0   0.00    0.0    0.000000    0.509262    0.508371

 Done with FMO properties.
 CPU     0: STEP CPU TIME=     0.01 TOTAL CPU TIME=      57854.0 (    964.2 MIN)
 TOTAL WALL CLOCK TIME=     135427.9 SECONDS, CPU UTILIZATION IS    42.72%
 CPU     0: STEP CPU TIME=     0.00 TOTAL CPU TIME=      57854.0 (    964.2 MIN)
 TOTAL WALL CLOCK TIME=     135427.9 SECONDS, CPU UTILIZATION IS    42.72%

 Total timing statistics in pairs (CPU,wall) for each rank, sec

    Rank   total     SCF    corr     DFT    CPHF     EFP    solv     ESP    geom
 -------------------------------------------------------------------------------
       1   57854.0  13113.8  21889.4      0.0    0.0   0.0  560.3 21057.8    0.0
       1  135428.0  28184.8  59687.1      0.0    0.0   0.0 1576.8 42973.4    0.0
       2   55744.1  12630.3  20534.2      0.0    0.0   0.0  566.8 20776.3    0.0
       2  135428.0  28169.8  59689.3      0.0    0.0   0.0 1577.3 42972.1    0.0
       3   57021.4  12858.9  21051.7      0.0    0.0   0.0  567.9 21279.9    0.0
       3  135428.0  28169.9  59689.1      0.0    0.0   0.0 1577.5 42972.3    0.0
       4   56560.3  12680.1  20699.6      0.0    0.0   0.0  567.6 21363.6    0.0
       4  135428.0  28171.9  59689.1      0.0    0.0   0.0 1575.0 42972.0    0.0
       5   57025.1  12841.5  21409.3      0.0    0.0   0.0  564.2 20969.4    0.0
       5  135428.0  28170.6  59689.0      0.0    0.0   0.0 1576.8 42972.4    0.0
       6   57388.0  12902.1  21605.9      0.0    0.0   0.0  567.3 21067.9    0.0
       6  135428.0  28172.0  59689.0      0.0    0.0   0.0 1574.6 42972.2    0.0
       7   56615.6  12905.0  20404.7      0.0    0.0   0.0  565.1 21511.0    0.0
       7  135428.0  28171.7  59689.0      0.0    0.0   0.0 1575.2 42972.1    0.0
       8   58285.3  12924.2  21235.8      0.0    0.0   0.0  566.7 22288.8    0.0
       8  135428.0  28172.8  59688.9      0.0    0.0   0.0 1573.3 42972.2    0.0
       9   55843.2  12891.7  20908.8      0.0    0.0   0.0  554.5 20226.8    0.0
       9  135428.0  28173.6  59689.0      0.0    0.0   0.0 1573.8 42972.3    0.0
      10   56566.9  12760.9  21479.6      0.0    0.0   0.0  559.6 20533.3    0.0
      10  135428.0  28172.6  59689.0      0.0    0.0   0.0 1574.5 42971.8    0.0
      11   55606.5  12832.0  20626.3      0.0    0.0   0.0  557.1 20381.2    0.0
      11  135428.0  28173.3  59689.0      0.0    0.0   0.0 1573.2 42972.0    0.0
      12   54817.6  12758.3  19901.2      0.0    0.0   0.0  560.3 20363.6    0.0
      12  135428.0  28173.8  59688.9      0.0    0.0   0.0 1572.1 42971.8    0.0
      13   55674.6  12824.6  20619.1      0.0    0.0   0.0  553.1 20453.9    0.0
      13  135428.0  28174.9  59688.9      0.0    0.0   0.0 1572.6 42971.7    0.0
      14   57804.4  12921.1  21966.8      0.0    0.0   0.0  563.1 21121.3    0.0
      14  135428.0  28174.4  59689.0      0.0    0.0   0.0 1572.0 42971.5    0.0
      15   59145.5  13094.2  23059.5      0.0    0.0   0.0  558.5 21198.3    0.0
      15  135428.0  28174.5  59688.9      0.0    0.0   0.0 1571.9 42971.5    0.0
      16   57053.2  12871.9  20918.9      0.0    0.0   0.0  562.3 21485.3    0.0
      16  135428.0  28174.9  59688.8      0.0    0.0   0.0 1570.0 42971.2    0.0
averaged   56812.9  12863.2  21144.4      0.0    0.0   0.0  562.1 21004.9    0.0
averaged  135428.0  28173.5  59688.9      0.0    0.0   0.0 1574.2 42972.0    0.0

  FMO  timing statistics in pairs (CPU,wall) for each rank, sec

    Rank  FMOini FMOscf1  FMOdm1 FMOsyn1 FMOscf2  FMOes2 FMOsyn2 FMOscf3 FMOsyn3
 -------------------------------------------------------------------------------
       1    4.5   18262.2    0.7    0.0   38679.0     907.3    0.0    0.0    0.0
       1   10.9   38959.9    5.4    0.0   94552.4    1899.0    0.0    0.0    0.0
       2    3.4   18052.4    0.2    0.0   36771.1     917.0    0.0    0.0    0.0
       2   10.9   38959.9    5.4    0.0   94559.8    1891.6    0.0    0.0    0.0
       3    3.7   18532.4    0.3    0.0   37541.3     943.7    0.0    0.0    0.0
       3   10.9   38959.9    5.4    0.0   94564.5    1886.9    0.0    0.0    0.0
       4    3.4   18913.2    0.2    0.0   36709.1     934.4    0.0    0.0    0.0
       4   10.9   38959.9    5.4    0.0   94569.2    1882.1    0.0    0.0    0.0
       5    4.0   18301.3    0.4    0.0   37797.0     922.3    0.0    0.0    0.0
       5   10.9   38959.9    5.4    0.0   94564.0    1887.4    0.0    0.0    0.0
       6    3.5   18473.7    0.2    0.0   37982.4     928.1    0.0    0.0    0.0
       6   10.9   38959.9    5.4    0.0   94568.6    1882.8    0.0    0.0    0.0
       7    3.7   18825.9    0.2    0.0   36873.4     912.3    0.0    0.0    0.0
       7   10.9   38959.9    5.4    0.0   94563.4    1888.0    0.0    0.0    0.0
       8    3.2   19646.0    0.2    0.0   37681.4     954.5    0.0    0.0    0.0
       8   10.9   38959.9    5.4    0.0   94567.0    1884.4    0.0    0.0    0.0
       9    4.0   18045.3    0.5    0.0   36847.9     945.5    0.0    0.0    0.0
       9   10.9   38959.9    5.4    0.0   94561.7    1889.7    0.0    0.0    0.0
      10    3.1   18102.1    0.1    0.0   37539.0     922.5    0.0    0.0    0.0
      10   10.9   38959.9    5.4    0.0   94567.3    1884.1    0.0    0.0    0.0
      11    3.3   18267.8    0.3    0.0   36438.8     896.3    0.0    0.0    0.0
      11   10.9   38959.9    5.4    0.0   94565.3    1886.1    0.0    0.0    0.0
      12    3.0   18144.2    0.1    0.0   35749.9     920.3    0.0    0.0    0.0
      12   10.9   38959.9    5.5    0.0   94567.8    1883.6    0.0    0.0    0.0
      13    3.6   18099.7    0.4    0.0   36656.5     914.3    0.0    0.0    0.0
      13   10.9   38959.9    5.4    0.0   94564.4    1887.0    0.0    0.0    0.0
      14    3.0   18782.3    0.1    0.0   38099.2     919.7    0.0    0.0    0.0
      14   10.9   38959.9    5.4    0.0   94574.1    1877.3    0.0    0.0    0.0
      15    3.3   18654.6    0.2    0.0   39564.2     923.0    0.0    0.0    0.0
      15   10.9   38959.9    5.4    0.0   94568.0    1883.4    0.0    0.0    0.0
      16    3.1   18918.9    0.2    0.0   37228.5     902.5    0.0    0.0    0.0
      16   10.9   38959.9    5.4    0.0   94565.7    1885.7    0.0    0.0    0.0
averaged    3.5   18501.4    0.3    0.0   37384.9     922.7    0.0    0.0    0.0
averaged   10.9   38959.9    5.5    0.0   94565.2    1886.2    0.0    0.0    0.0
             62805228  WORDS OF DYNAMIC MEMORY USED
 EXECUTION OF GAMESS TERMINATED NORMALLY Tue Nov 19 11:22:47 2019
 DDI: 263640 bytes (0.3 MB / 0 MWords) used by master data server.

 ----------------------------------------
 CPU timing information for all processes
 ========================================
 0: 56435.980 + 1418.03 = 57853.984
 1: 54497.07 + 1247.146 = 55744.153
 2: 55724.948 + 1296.567 = 57021.515
 3: 55314.112 + 1246.242 = 56560.355
 4: 55669.359 + 1355.771 = 57025.130
 5: 56082.930 + 1305.184 = 57388.114
 6: 55340.836 + 1274.860 = 56615.696
 7: 57000.582 + 1284.782 = 58285.365
 8: 54537.190 + 1306.21 = 55843.211
 9: 55330.794 + 1236.229 = 56567.24
 10: 54364.102 + 1242.440 = 55606.542
 11: 53643.67 + 1174.597 = 54817.664
 12: 54384.659 + 1290.33 = 55674.692
 13: 56524.04 + 1280.497 = 57804.501
 14: 57780.897 + 1364.697 = 59145.595
 15: 55831.717 + 1221.587 = 57053.305
 ----------------------------------------
 ddikick.x: exited gracefully.
----- accounting info -----
Files used on the master node gollum050.lsa.umich.edu were:
-rw-r--r-- 1 hazwong frank    32899 Nov 17 21:45 /scratch/hazwong/638839/2ADT_4/usrc/2ADT_4_fmo_input.F05
-rw-r--r-- 1 hazwong frank      634 Nov 19 11:22 /scratch/hazwong/638839/2ADT_4/usrc/2ADT_4_fmo_input.F06.001
-rw-r--r-- 1 hazwong frank      634 Nov 19 11:22 /scratch/hazwong/638839/2ADT_4/usrc/2ADT_4_fmo_input.F06.002
-rw-r--r-- 1 hazwong frank      634 Nov 19 11:22 /scratch/hazwong/638839/2ADT_4/usrc/2ADT_4_fmo_input.F06.003
-rw-r--r-- 1 hazwong frank      634 Nov 19 11:22 /scratch/hazwong/638839/2ADT_4/usrc/2ADT_4_fmo_input.F06.004
-rw-r--r-- 1 hazwong frank      634 Nov 19 11:22 /scratch/hazwong/638839/2ADT_4/usrc/2ADT_4_fmo_input.F06.005
-rw-r--r-- 1 hazwong frank      634 Nov 19 11:22 /scratch/hazwong/638839/2ADT_4/usrc/2ADT_4_fmo_input.F06.006
-rw-r--r-- 1 hazwong frank      634 Nov 19 11:22 /scratch/hazwong/638839/2ADT_4/usrc/2ADT_4_fmo_input.F06.007
-rw-r--r-- 1 hazwong frank      634 Nov 19 11:22 /scratch/hazwong/638839/2ADT_4/usrc/2ADT_4_fmo_input.F06.008
-rw-r--r-- 1 hazwong frank      634 Nov 19 11:22 /scratch/hazwong/638839/2ADT_4/usrc/2ADT_4_fmo_input.F06.009
-rw-r--r-- 1 hazwong frank      634 Nov 19 11:22 /scratch/hazwong/638839/2ADT_4/usrc/2ADT_4_fmo_input.F06.010
-rw-r--r-- 1 hazwong frank      634 Nov 19 11:22 /scratch/hazwong/638839/2ADT_4/usrc/2ADT_4_fmo_input.F06.011
-rw-r--r-- 1 hazwong frank      634 Nov 19 11:22 /scratch/hazwong/638839/2ADT_4/usrc/2ADT_4_fmo_input.F06.012
-rw-r--r-- 1 hazwong frank      634 Nov 19 11:22 /scratch/hazwong/638839/2ADT_4/usrc/2ADT_4_fmo_input.F06.013
-rw-r--r-- 1 hazwong frank      634 Nov 19 11:22 /scratch/hazwong/638839/2ADT_4/usrc/2ADT_4_fmo_input.F06.014
-rw-r--r-- 1 hazwong frank      634 Nov 19 11:22 /scratch/hazwong/638839/2ADT_4/usrc/2ADT_4_fmo_input.F06.015
-rw-r--r-- 1 hazwong frank    37036 Nov 19 11:22 /scratch/hazwong/638839/2ADT_4/usrc/2ADT_4_fmo_input.F07
-rw-r--r-- 1 hazwong frank        0 Nov 17 21:45 /scratch/hazwong/638839/2ADT_4/usrc/2ADT_4_fmo_input.F07.001
-rw-r--r-- 1 hazwong frank        0 Nov 17 21:45 /scratch/hazwong/638839/2ADT_4/usrc/2ADT_4_fmo_input.F07.002
-rw-r--r-- 1 hazwong frank        0 Nov 17 21:45 /scratch/hazwong/638839/2ADT_4/usrc/2ADT_4_fmo_input.F07.003
-rw-r--r-- 1 hazwong frank        0 Nov 17 21:45 /scratch/hazwong/638839/2ADT_4/usrc/2ADT_4_fmo_input.F07.004
-rw-r--r-- 1 hazwong frank        0 Nov 17 21:45 /scratch/hazwong/638839/2ADT_4/usrc/2ADT_4_fmo_input.F07.005
-rw-r--r-- 1 hazwong frank        0 Nov 17 21:45 /scratch/hazwong/638839/2ADT_4/usrc/2ADT_4_fmo_input.F07.006
-rw-r--r-- 1 hazwong frank        0 Nov 17 21:45 /scratch/hazwong/638839/2ADT_4/usrc/2ADT_4_fmo_input.F07.007
-rw-r--r-- 1 hazwong frank        0 Nov 17 21:45 /scratch/hazwong/638839/2ADT_4/usrc/2ADT_4_fmo_input.F07.008
-rw-r--r-- 1 hazwong frank        0 Nov 17 21:45 /scratch/hazwong/638839/2ADT_4/usrc/2ADT_4_fmo_input.F07.009
-rw-r--r-- 1 hazwong frank        0 Nov 17 21:45 /scratch/hazwong/638839/2ADT_4/usrc/2ADT_4_fmo_input.F07.010
-rw-r--r-- 1 hazwong frank        0 Nov 17 21:45 /scratch/hazwong/638839/2ADT_4/usrc/2ADT_4_fmo_input.F07.011
-rw-r--r-- 1 hazwong frank        0 Nov 17 21:45 /scratch/hazwong/638839/2ADT_4/usrc/2ADT_4_fmo_input.F07.012
-rw-r--r-- 1 hazwong frank        0 Nov 17 21:45 /scratch/hazwong/638839/2ADT_4/usrc/2ADT_4_fmo_input.F07.013
-rw-r--r-- 1 hazwong frank        0 Nov 17 21:45 /scratch/hazwong/638839/2ADT_4/usrc/2ADT_4_fmo_input.F07.014
-rw-r--r-- 1 hazwong frank        0 Nov 17 21:45 /scratch/hazwong/638839/2ADT_4/usrc/2ADT_4_fmo_input.F07.015
-rw-r--r-- 1 hazwong frank    65440 Nov 19 11:22 /scratch/hazwong/638839/2ADT_4/usrc/2ADT_4_fmo_input.F10.000
-rw-r--r-- 1 hazwong frank        0 Nov 17 21:45 /scratch/hazwong/638839/2ADT_4/usrc/2ADT_4_fmo_input.F26.000
-rw-r--r-- 1 hazwong frank        0 Nov 17 21:45 /scratch/hazwong/638839/2ADT_4/usrc/2ADT_4_fmo_input.F26.001
-rw-r--r-- 1 hazwong frank        0 Nov 17 21:45 /scratch/hazwong/638839/2ADT_4/usrc/2ADT_4_fmo_input.F26.002
-rw-r--r-- 1 hazwong frank        0 Nov 17 21:45 /scratch/hazwong/638839/2ADT_4/usrc/2ADT_4_fmo_input.F26.003
-rw-r--r-- 1 hazwong frank        0 Nov 17 21:45 /scratch/hazwong/638839/2ADT_4/usrc/2ADT_4_fmo_input.F26.004
-rw-r--r-- 1 hazwong frank        0 Nov 17 21:45 /scratch/hazwong/638839/2ADT_4/usrc/2ADT_4_fmo_input.F26.005
-rw-r--r-- 1 hazwong frank        0 Nov 17 21:45 /scratch/hazwong/638839/2ADT_4/usrc/2ADT_4_fmo_input.F26.006
-rw-r--r-- 1 hazwong frank        0 Nov 17 21:45 /scratch/hazwong/638839/2ADT_4/usrc/2ADT_4_fmo_input.F26.007
-rw-r--r-- 1 hazwong frank        0 Nov 17 21:45 /scratch/hazwong/638839/2ADT_4/usrc/2ADT_4_fmo_input.F26.008
-rw-r--r-- 1 hazwong frank        0 Nov 17 21:45 /scratch/hazwong/638839/2ADT_4/usrc/2ADT_4_fmo_input.F26.009
-rw-r--r-- 1 hazwong frank        0 Nov 17 21:45 /scratch/hazwong/638839/2ADT_4/usrc/2ADT_4_fmo_input.F26.010
-rw-r--r-- 1 hazwong frank        0 Nov 17 21:45 /scratch/hazwong/638839/2ADT_4/usrc/2ADT_4_fmo_input.F26.011
-rw-r--r-- 1 hazwong frank        0 Nov 17 21:45 /scratch/hazwong/638839/2ADT_4/usrc/2ADT_4_fmo_input.F26.012
-rw-r--r-- 1 hazwong frank        0 Nov 17 21:45 /scratch/hazwong/638839/2ADT_4/usrc/2ADT_4_fmo_input.F26.013
-rw-r--r-- 1 hazwong frank        0 Nov 17 21:45 /scratch/hazwong/638839/2ADT_4/usrc/2ADT_4_fmo_input.F26.014
-rw-r--r-- 1 hazwong frank        0 Nov 17 21:45 /scratch/hazwong/638839/2ADT_4/usrc/2ADT_4_fmo_input.F26.015
-rw-r--r-- 1 hazwong frank        0 Nov 17 21:45 /scratch/hazwong/638839/2ADT_4/usrc/2ADT_4_fmo_input.F27.000
-rw-r--r-- 1 hazwong frank        0 Nov 17 21:45 /scratch/hazwong/638839/2ADT_4/usrc/2ADT_4_fmo_input.F27.001
-rw-r--r-- 1 hazwong frank        0 Nov 17 21:45 /scratch/hazwong/638839/2ADT_4/usrc/2ADT_4_fmo_input.F27.002
-rw-r--r-- 1 hazwong frank        0 Nov 17 21:45 /scratch/hazwong/638839/2ADT_4/usrc/2ADT_4_fmo_input.F27.003
-rw-r--r-- 1 hazwong frank        0 Nov 17 21:45 /scratch/hazwong/638839/2ADT_4/usrc/2ADT_4_fmo_input.F27.004
-rw-r--r-- 1 hazwong frank        0 Nov 17 21:45 /scratch/hazwong/638839/2ADT_4/usrc/2ADT_4_fmo_input.F27.005
-rw-r--r-- 1 hazwong frank        0 Nov 17 21:45 /scratch/hazwong/638839/2ADT_4/usrc/2ADT_4_fmo_input.F27.006
-rw-r--r-- 1 hazwong frank        0 Nov 17 21:45 /scratch/hazwong/638839/2ADT_4/usrc/2ADT_4_fmo_input.F27.007
-rw-r--r-- 1 hazwong frank        0 Nov 17 21:45 /scratch/hazwong/638839/2ADT_4/usrc/2ADT_4_fmo_input.F27.008
-rw-r--r-- 1 hazwong frank        0 Nov 17 21:45 /scratch/hazwong/638839/2ADT_4/usrc/2ADT_4_fmo_input.F27.009
-rw-r--r-- 1 hazwong frank        0 Nov 17 21:45 /scratch/hazwong/638839/2ADT_4/usrc/2ADT_4_fmo_input.F27.010
-rw-r--r-- 1 hazwong frank        0 Nov 17 21:45 /scratch/hazwong/638839/2ADT_4/usrc/2ADT_4_fmo_input.F27.011
-rw-r--r-- 1 hazwong frank        0 Nov 17 21:45 /scratch/hazwong/638839/2ADT_4/usrc/2ADT_4_fmo_input.F27.012
-rw-r--r-- 1 hazwong frank        0 Nov 17 21:45 /scratch/hazwong/638839/2ADT_4/usrc/2ADT_4_fmo_input.F27.013
-rw-r--r-- 1 hazwong frank        0 Nov 17 21:45 /scratch/hazwong/638839/2ADT_4/usrc/2ADT_4_fmo_input.F27.014
-rw-r--r-- 1 hazwong frank        0 Nov 17 21:45 /scratch/hazwong/638839/2ADT_4/usrc/2ADT_4_fmo_input.F27.015
-rw-r--r-- 1 hazwong frank 43401216 Nov 18 08:35 /scratch/hazwong/638839/2ADT_4/usrc/2ADT_4_fmo_input.F40.000
-rw-r--r-- 1 hazwong frank 43401216 Nov 18 08:35 /scratch/hazwong/638839/2ADT_4/usrc/2ADT_4_fmo_input.F40.001
-rw-r--r-- 1 hazwong frank 43401216 Nov 18 08:35 /scratch/hazwong/638839/2ADT_4/usrc/2ADT_4_fmo_input.F40.002
-rw-r--r-- 1 hazwong frank 43401216 Nov 18 08:35 /scratch/hazwong/638839/2ADT_4/usrc/2ADT_4_fmo_input.F40.003
-rw-r--r-- 1 hazwong frank 43401216 Nov 18 08:35 /scratch/hazwong/638839/2ADT_4/usrc/2ADT_4_fmo_input.F40.004
-rw-r--r-- 1 hazwong frank 43401216 Nov 18 08:35 /scratch/hazwong/638839/2ADT_4/usrc/2ADT_4_fmo_input.F40.005
-rw-r--r-- 1 hazwong frank 43401216 Nov 18 08:35 /scratch/hazwong/638839/2ADT_4/usrc/2ADT_4_fmo_input.F40.006
-rw-r--r-- 1 hazwong frank 43401216 Nov 18 08:35 /scratch/hazwong/638839/2ADT_4/usrc/2ADT_4_fmo_input.F40.007
-rw-r--r-- 1 hazwong frank 43401216 Nov 18 08:35 /scratch/hazwong/638839/2ADT_4/usrc/2ADT_4_fmo_input.F40.008
-rw-r--r-- 1 hazwong frank 43401216 Nov 18 08:35 /scratch/hazwong/638839/2ADT_4/usrc/2ADT_4_fmo_input.F40.009
-rw-r--r-- 1 hazwong frank 43401216 Nov 18 08:35 /scratch/hazwong/638839/2ADT_4/usrc/2ADT_4_fmo_input.F40.010
-rw-r--r-- 1 hazwong frank 43401216 Nov 18 08:35 /scratch/hazwong/638839/2ADT_4/usrc/2ADT_4_fmo_input.F40.011
-rw-r--r-- 1 hazwong frank 43401216 Nov 18 08:35 /scratch/hazwong/638839/2ADT_4/usrc/2ADT_4_fmo_input.F40.012
-rw-r--r-- 1 hazwong frank 43401216 Nov 18 08:35 /scratch/hazwong/638839/2ADT_4/usrc/2ADT_4_fmo_input.F40.013
-rw-r--r-- 1 hazwong frank 43401216 Nov 18 08:35 /scratch/hazwong/638839/2ADT_4/usrc/2ADT_4_fmo_input.F40.014
-rw-r--r-- 1 hazwong frank 43401216 Nov 18 08:35 /scratch/hazwong/638839/2ADT_4/usrc/2ADT_4_fmo_input.F40.015
Tue Nov 19 11:22:50 EST 2019
0.204u 0.123s 37:37:11.83 0.0%	0+0k 1824+232io 30pf+0w
