----- GAMESS execution script 'rungms' -----
This job is running on host gollum073.lsa.umich.edu
under operating system Linux at Thu Aug 1 22:38:03 EDT 2019
Available scratch disk space (Kbyte units) at beginning of the job is
Filesystem     1K-blocks  Used Available Use% Mounted on
/dev/sda4      426933580 33268 426900312   1% /scratch
GAMESS temporary binary files will be written to /scratch/afrankz/839414/2KOC_18/usrc
GAMESS supplementary output files will be written to /scratch/afrankz/839414/2KOC_18/src
Copying input file 2KOC_18_minimized_charmm.inp to your run's scratch directory...
This is a GDDI run, keeping various output files on local disks
 
Assuming a single but multicore node.
 

 Distributed Data Interface kickoff program.
 Initiating 14 compute processes on 1 nodes to run the following command:
 /export/apps/CentOS7/gamess/src/build//gamess.R3.x 2KOC_18_minimized_charmm 

          ******************************************************
          *         GAMESS VERSION = 30 SEP 2018 (R3)         *
          *             FROM IOWA STATE UNIVERSITY             *
          * M.W.SCHMIDT, K.K.BALDRIDGE, J.A.BOATZ, S.T.ELBERT, *
          *   M.S.GORDON, J.H.JENSEN, S.KOSEKI, N.MATSUNAGA,   *
          *          K.A.NGUYEN, S.J.SU, T.L.WINDUS,           *
          *       TOGETHER WITH M.DUPUIS, J.A.MONTGOMERY       *
          *         J.COMPUT.CHEM.  14, 1347-1363(1993)        *
          **************** 64 BIT LINUX VERSION ****************

  SINCE 1993, STUDENTS AND POSTDOCS WORKING AT IOWA STATE UNIVERSITY
  AND ALSO IN THEIR VARIOUS JOBS AFTER LEAVING ISU HAVE MADE IMPORTANT
  CONTRIBUTIONS TO THE CODE:
     IVANA ADAMOVIC, CHRISTINE AIKENS, YURI ALEXEEV, POOJA ARORA,
     ANDREY ASADCHEV, ROB BELL, PRADIPTA BANDYOPADHYAY, JONATHAN BENTZ,
     BRETT BODE, KURT BRORSEN, CALEB CARLIN, GALINA CHABAN, WEI CHEN,
     CHEOL HO CHOI, PAUL DAY, ALBERT DEFUSCO, NUWAN DESILVA, TIM DUDLEY,
     DMITRI FEDOROV, ALEX FINDLATER, GRAHAM FLETCHER, MARK FREITAG,
     KURT GLAESEMANN, ANASTASIA GUNINA,
     DAN KEMP, GRANT MERRILL, NORIYUKI MINEZAWA, JONATHAN MULLIN,
     TAKESHI NAGATA, SEAN NEDD, HEATHER NETZLOFF, BOSILJKA NJEGIC, RYAN OLSON,
     MIKE PAK, BUU PHAM,
     SPENCER PRUITT, LUKE ROSKOP, JIM SHOEMAKER, LYUDMILA SLIPCHENKO,
     TONY SMITH, SAROM SOK LEANG, JIE SONG, TETSUYA TAKETSUGU, SIMON WEBB,
     PENG XU, SOOHAENG YOO, FEDERICO ZAHARIEV

  ADDITIONAL CODE HAS BEEN PROVIDED BY COLLABORATORS IN OTHER GROUPS:
     IOWA STATE UNIVERSITY:
          JOE IVANIC, AARON WEST, LAIMUTIS BYTAUTAS, KLAUS RUEDENBERG
     UNIVERSITY OF TOKYO: KIMIHIKO HIRAO, TAKAHITO NAKAJIMA,
          TAKAO TSUNEDA, MUNEAKI KAMIYA, SUSUMU YANAGISAWA,
          KIYOSHI YAGI, MAHITO CHIBA, SEIKEN TOKURA, NAOAKI KAWAKAMI
     UNIVERSITY OF AARHUS: FRANK JENSEN
     UNIVERSITY OF IOWA: VISVALDAS KAIRYS, HUI LI
     NATIONAL INST. OF STANDARDS AND TECHNOLOGY: WALT STEVENS, DAVID GARMER
     UNIVERSITY OF PISA: BENEDETTA MENNUCCI, JACOPO TOMASI
     UNIVERSITY OF MEMPHIS: HENRY KURTZ, PRAKASHAN KORAMBATH
     UNIVERSITY OF ALBERTA: TOBY ZENG, MARIUSZ KLOBUKOWSKI
     UNIVERSITY OF NEW ENGLAND: MARK SPACKMAN
     MIE UNIVERSITY: HIROAKI UMEDA
     NAT. INST. OF ADVANCED INDUSTRIAL SCIENCE AND TECHNOLOGY: KAZUO KITAURA
     MICHIGAN STATE UNIVERSITY:
          KAROL KOWALSKI, MARTA WLOCH, JEFFREY GOUR, JESSE LUTZ,
          WEI LI, JUN SHEN, J. EMILIANO DEUSTUA, PIOTR PIECUCH
     UNIVERSITY OF MINNESOTA:
          YINAN SHU
     UNIVERSITY OF SILESIA: MONIKA MUSIAL, STANISLAW KUCHARSKI
     FACULTES UNIVERSITAIRES NOTRE-DAME DE LA PAIX:
          OLIVIER QUINET, BENOIT CHAMPAGNE
     UNIVERSITY OF CALIFORNIA - SANTA BARBARA: BERNARD KIRTMAN
     INSTITUTE FOR MOLECULAR SCIENCE:
          KAZUYA ISHIMURA, MICHIO KATOUDA, AND SHIGERU NAGASE
     UNIVERSITY OF NOTRE DAME: ANNA POMOGAEVA, DAN CHIPMAN
     KYUSHU UNIVERSITY:
          HARUYUKI NAKANO,
          FENG LONG GU, JACEK KORCHOWIEC, MARCIN MAKOWSKI, AND YURIKO AOKI,
          HIROTOSHI MORI AND EISAKU MIYOSHI
     PENNSYLVANIA STATE UNIVERSITY:
          TZVETELIN IORDANOV, CHET SWALINA, JONATHAN SKONE,
          SHARON HAMMES-SCHIFFER
     WASEDA UNIVERSITY:
          MASATO KOBAYASHI, TOMOKO AKAMA, TSUGUKI TOUMA,
          TAKESHI YOSHIKAWA, YASUHIRO IKABATA, JUNJI SEINO,
          YUYA NAKAJIMA, HIROMI NAKAI
     NANJING UNIVERSITY: SHUHUA LI
     UNIVERSITY OF NEBRASKA:
          PEIFENG SU, DEJUN SI, NANDUN THELLAMUREGE, YALI WANG, HUI LI
     UNIVERSITY OF ZURICH: ROBERTO PEVERATI, KIM BALDRIDGE
     N. COPERNICUS UNIVERSITY AND JACKSON STATE UNIVERSITY:
          MARIA BARYSZ
     UNIVERSITY OF COPENHAGEN: Jimmy Kromann, CASPER STEINMANN
     TOKYO INSTITUTE OF TECHNOLOGY: HIROYA NAKATA
     NAGOYA UNIVERSITY: YOSHIO NISHIMOTO, STEPHAN IRLE
     MOSCOW STATE UNIVERSITY: VLADIMIR MIRONOV


 PARALLEL VERSION RUNNING ON       14 PROCESSORS IN        1 NODES.

 EXECUTION OF GAMESS BEGUN Thu Aug  1 22:38:06 2019

            ECHO OF THE FIRST FEW INPUT CARDS -
 INPUT CARD>!*** FMO 5.3 (Gamess) INPUT generated by Facio 22.1.1.32 ***                    
 INPUT CARD> $CONTRL RUNTYP=ENERGY NPRINT=-5 ISPHER=1 MAXIT=200 $END                        
 INPUT CARD> $SYSTEM MWORDS=63 MEMDDI=63 $END                                               
 INPUT CARD> $GDDI NGROUP=1 $END                                                            
 INPUT CARD> $SCF DIRSCF=.TRUE. NPUNCH=0 $END                                               
 INPUT CARD>!*** NumCPU : 2  MemPerNode : 512MB                                             
 INPUT CARD> $PCM SOLVNT=WATER IEF=-10 ICOMP=2 ICAV=1 IDISP=1 IFMO=-1 $END                  
 INPUT CARD> $PCMCAV RADII=SUAHF $END                                                       
 INPUT CARD> $TESCAV NTSALL=60 $END                                                         
 INPUT CARD> $FMOPRP                                                                        
 INPUT CARD>    NAODIR=200                                                                  
 INPUT CARD>    NGRFMO(1)=1, 1, 0, 0, 0,   0, 0, 0, 0, 0                                    
 INPUT CARD>    IPIEDA=1                                                                    
 INPUT CARD>    NPRINT=9                                                                    
 INPUT CARD> $END                                                                           
 INPUT CARD> $FMO                                                                           
 INPUT CARD>      SCFTYP(1)=RHF                                                             
 INPUT CARD>      MODGRD=10                                                                 
 INPUT CARD>      MODMUL=0                                                                  
 INPUT CARD>      MAXCAO=5                                                                  
 INPUT CARD>      MAXBND=16                                                                 
 INPUT CARD>      NLAYER=1                                                                  
 INPUT CARD>      MPLEVL(1)=2                                                               
 INPUT CARD>      NFRAG=14                                                                  
 INPUT CARD>      ICHARG(1)=-1, -1, -1, -1, -1, -1, -1, -1, -1, -1, -1, -1, -1, 0           
 INPUT CARD>      FRGNAM(1)=F1, F2, F3, F4, F5, F6, F7, F8, F9, F10, F11, F12, F13, F14     
 INPUT CARD>      indat(1)=0                                                                
 INPUT CARD>               1   -36   0                                                      
 INPUT CARD>               37   -70   0                                                     
 INPUT CARD>               71   -101   0                                                    
 INPUT CARD>               102   -134   0                                                   
 INPUT CARD>               135   -165   0                                                   
 INPUT CARD>               166   -195   0                                                   
 INPUT CARD>               196   -225   0                                                   
 INPUT CARD>               226   -256   0                                                   
 INPUT CARD>               257   -290   0                                                   
 INPUT CARD>               291   -324   0                                                   
 INPUT CARD>               325   -354   0                                                   
 INPUT CARD>               355   -388   0                                                   
 INPUT CARD>               389   -419   0                                                   
 INPUT CARD>               420   -447   0                                                   
 INPUT CARD> $END                                                                           
 INPUT CARD>                                                                                
 INPUT CARD> $FMOBND                                                                        
 INPUT CARD>   -37   36       6-31G*    MINI                                                
 INPUT CARD>   -71   70       6-31G*    MINI                                                
 INPUT CARD>   -102   101       6-31G*    MINI                                              
 INPUT CARD>   -135   134       6-31G*    MINI                                              
 INPUT CARD>   -166   165       6-31G*    MINI                                              
 INPUT CARD>   -196   195       6-31G*    MINI                                              


 -------------------------------------------------------------
 GROUP DDI, PROGRAMMED BY: RYAN M. OLSON AND DMITRI G. FEDOROV
        FEDOROV ET AL., J. COMPUT. CHEM., 25 (2004) 872.
 -------------------------------------------------------------

 -------------------------------------------------------
 GDDI: INITIALIZATION COMPLETED FOR GROUP     1 OF     1
 WITH    14 PROCESSES BALTYP=DLB   global rank=        0
 -------------------------------------------------------

   63000000 WORDS OF MEMORY AVAILABLE


     RUN TITLE
     ---------
  FMO calculation                                                                

 THE POINT GROUP OF THE MOLECULE IS C1      
 THE ORDER OF THE PRINCIPAL AXIS IS     0

 ATOM   ATOMIC CHARGE
 H.1-1       1.0
 O.1-1       8.0
 C.1-1       6.0
 N.1-1       7.0
 P.1-1      15.0

     ATOMIC BASIS SET LIBRARY
     ----------------
 THE CONTRACTED PRIMITIVE FUNCTIONS HAVE BEEN UNNORMALIZED
 THE CONTRACTED BASIS FUNCTIONS ARE NOW NORMALIZED TO UNITY

  SHELL TYPE  PRIMITIVE        EXPONENT          CONTRACTION COEFFICIENT(S)

 H.1-1     

      1   S       1            18.7311370    0.033494604338
      1   S       2             2.8253944    0.234726953484
      1   S       3             0.6401217    0.813757326146

      2   S       4             0.1612778    1.000000000000

 O.1-1     

      3   S       5          5484.6716600    0.001831074430
      3   S       6           825.2349460    0.013950172200
      3   S       7           188.0469580    0.068445078098
      3   S       8            52.9645000    0.232714335992
      3   S       9            16.8975704    0.470192897984
      3   S      10             5.7996353    0.358520852987

      4   L      11            15.5396162   -0.110777549525    0.070874268231
      4   L      12             3.5999336   -0.148026262701    0.339752839147
      4   L      13             1.0137618    1.130767015354    0.727158577316

      5   L      14             0.2700058    1.000000000000    1.000000000000

      6   D      15             0.8000000    1.000000000000

 C.1-1     

      7   S      16          3047.5248800    0.001834737132
      7   S      17           457.3695180    0.014037322813
      7   S      18           103.9486850    0.068842622264
      7   S      19            29.2101553    0.232184443216
      7   S      20             9.2866630    0.467941348435
      7   S      21             3.1639270    0.362311985337

      8   L      22             7.8682723   -0.119332419775    0.068999066591
      8   L      23             1.8812885   -0.160854151696    0.316423960957
      8   L      24             0.5442493    1.143456437840    0.744308290898

      9   L      25             0.1687145    1.000000000000    1.000000000000

     10   D      26             0.8000000    1.000000000000

 N.1-1     

     11   S      27          4173.5114600    0.001834772160
     11   S      28           627.4579110    0.013994627002
     11   S      29           142.9020930    0.068586551812
     11   S      30            40.2343293    0.232240873040
     11   S      31            12.8202129    0.469069948082
     11   S      32             4.3904370    0.360455199063

     12   L      33            11.6263619   -0.114961181702    0.067579743878
     12   L      34             2.7162798   -0.169117478561    0.323907295893
     12   L      35             0.7722184    1.145851947027    0.740895139755

     13   L      36             0.2120315    1.000000000000    1.000000000000

     14   D      37             0.8000000    1.000000000000

 P.1-1     

     15   S      38         19413.3000000    0.001851598923
     15   S      39          2909.4200000    0.014206191735
     15   S      40           661.3640000    0.069999459277
     15   S      41           185.7590000    0.240078860331
     15   S      42            59.1943000    0.484761717984
     15   S      43            20.0310000    0.335199804993

     16   L      44           339.4780000   -0.002782170105    0.004564616191
     16   L      45            81.0101000   -0.036049901354    0.033693571881
     16   L      46            25.8780000   -0.116631004382    0.139754883368
     16   L      47             9.4522100    0.096832803638    0.339361716786
     16   L      48             3.6656600    0.614418023082    0.450920623685
     16   L      49             1.4674600    0.403798015170    0.238585800889

     17   L      50             2.1562300   -0.252924113863   -0.017765312733
     17   L      51             0.7489970    0.032851844678    0.274058196433
     17   L      52             0.2831450    1.081254761783    0.785421562957

     18   L      53             0.0998317    1.000000000000    1.000000000000

     19   D      54             0.5500000    1.000000000000

 TOTAL NUMBER OF BASIS SET SHELLS             =   19
 NUMBER OF CARTESIAN GAUSSIAN BASIS FUNCTIONS =   66

     $CONTRL OPTIONS
     ---------------
 SCFTYP=RHF          RUNTYP=ENERGY       EXETYP=RUN     
 MPLEVL=       0     CITYP =NONE         CCTYP =NONE         VBTYP =NONE    
 DFTTYP=NONE         TDDFT =NONE    
 MULT  =       1     ICHARG=       0     NZVAR =       0     COORD =UNIQUE  
 PP    =NONE         RELWFN=NONE         LOCAL =NONE         NUMGRD=       F
 ISPHER=       1     NOSYM =       0     MAXIT =     200     UNITS =ANGS    
 PLTORB=       F     MOLPLT=       F     AIMPAC=       F     FRIEND=        
 NPRINT=      -5     IREST =       0     GEOM  =INPUT   
 NORMF =       0     NORMP =       0     ITOL  =      24     ICUT  =      12
 INTTYP=BEST         GRDTYP=BEST         QMTTOL= 1.0E-06

     $SYSTEM OPTIONS
     ---------------
  REPLICATED MEMORY=    63000000 WORDS (ON EVERY NODE).
 DISTRIBUTED MEMDDI=          63 MILLION WORDS IN AGGREGATE,
 MEMDDI DISTRIBUTED OVER  14 PROCESSORS IS     4500000 WORDS/PROCESSOR.
 TOTAL MEMORY REQUESTED ON EACH PROCESSOR=    67500000 WORDS.
 TIMLIM=      525600.00 MINUTES, OR     365.0 DAYS.
 PARALL= T  BALTYP=  DLB     KDIAG=    0  COREFL= F
 MXSEQ2=     300 MXSEQ3=     150  mem10=         0

 ** LOOKING UP INTERNALLY STORED DATA FOR SOLVENT=WATER    **
 OPTICAL AND PHYSICAL CONSTANTS:
 EPS= 78.390; EPSINF=  1.776; RSOLV=  1.385 A; VMOL=  18.070 ML/MOL;
 TCE= .25700E-03 1/K; STEN= 71.810 DYN/CM;  DSTEN=  0.6500; CMF=  1.2770


     -----------------------------------
     INPUT FOR PCM SOLVATION CALCULATION 
     -----------------------------------
     IEF   =     -10
     ICOMP =       2     IFIELD=       0     ICAV  =       1
     IDISP =       1     IREP  =       0     IDP   =       0

     SOLVNT=WATER        EPS   = 78.3900     EPSINF=  1.7760
     VMOL  = 18.0700     TCE   =  0.00025700 STEN  = 71.8100
     DSTEN =  0.6500     CMF   =  1.2770     RSOLV =  1.3850

     NESFP =       0
     OMEGA = 40.0000     RET   =100.0000     FRO   =  0.7000

     TABS  =298.0000     IPRINT=       0

     --------------------------------
     INPUT FOR ITERATIVE C-PCM METHOD 
     --------------------------------
     IPCMIT  =         1     MXDIIS  =        50
     MXITR1  =       200     MXITR2  =       200
     THRES   = 0.100E-09     IMUL    =         3
     RCUT(1) =   20.0000     RCUT(2) =   50.0000

     IDIRCT  =         1
     IMGABI  =         0     RABI    =    4.0000
     IMGASC  =         0     RASC    =   20.0000
     THRSLS  = 0.500E-03     DENSLS  =    0.0100
     IEFPOL  =         1     REFPOL  =    0.0000

     INPUT FOR ISOTROPIC DIELECTRICS
     -------------------------------
     EPS=    78.39

          ----------------
          PROPERTIES INPUT
          ----------------

     MOMENTS            FIELD           POTENTIAL          DENSITY
 IEMOM =       1   IEFLD =       0   IEPOT =       0   IEDEN =       0
 WHERE =COMASS     WHERE =NUCLEI     WHERE =NUCLEI     WHERE =NUCLEI  
 OUTPUT=BOTH       OUTPUT=BOTH       OUTPUT=NONE       OUTPUT=BOTH    
 IEMINT=       0   IEFINT=       0                     IEDINT=       0
                                                       MORB  =       0
          EXTRAPOLATION IN EFFECT
          SOSCF IN EFFECT
 ORBITAL PRINTING OPTION: NPREO=     1 32767     2     1

     -------------------------------
     INTEGRAL TRANSFORMATION OPTIONS
     -------------------------------
     NWORD  =            0
     CUTOFF = 1.0E-10     MPTRAN =       0
     DIRTRF =       T     AOINTS =DUP     

          ----------------------
          INTEGRAL INPUT OPTIONS
          ----------------------
 NOPK  =       1 NORDER=       0 SCHWRZ=       T

 ..... DONE SETTING UP THE RUN .....
 CPU     0: STEP CPU TIME=     0.04 TOTAL CPU TIME=          0.0 (      0.0 MIN)
 TOTAL WALL CLOCK TIME=          0.1 SECONDS, CPU UTILIZATION IS    50.00%
 CPU     0: STEP CPU TIME=     0.00 TOTAL CPU TIME=          0.0 (      0.0 MIN)
 TOTAL WALL CLOCK TIME=          0.1 SECONDS, CPU UTILIZATION IS    50.00%

                    ----------------------
                    AO INTEGRAL TECHNOLOGY
                    ----------------------
     S,P,L SHELL ROTATED AXIS INTEGRALS, REPROGRAMMED BY
        KAZUYA ISHIMURA (IMS) AND JOSE SIERRA (SYNSTAR).
     S,P,D,L SHELL ROTATED AXIS INTEGRALS PROGRAMMED BY
        KAZUYA ISHIMURA (INSTITUTE FOR MOLECULAR SCIENCE).
     S,P,D,F,G SHELL TO TOTAL QUARTET ANGULAR MOMENTUM SUM 5,
        ERIC PROGRAM BY GRAHAM FLETCHER (ELORET AND NASA ADVANCED
        SUPERCOMPUTING DIVISION, AMES RESEARCH CENTER).
     S,P,D,F,G,L SHELL GENERAL RYS QUADRATURE PROGRAMMED BY
        MICHEL DUPUIS (PACIFIC NORTHWEST NATIONAL LABORATORY).
 Setting modorb=1 flag...
 Setting modorb=1 flag...

          -----------------------
          MP2 CONTROL INFORMATION
          -----------------------
          NACORE =        8  NBCORE =        8
          LMOMP2 =        F  AOINTS = DUP     
          METHOD =        2  NWORD  =               0
          MP2PRP =        F  OSPT   = NONE    
          CUTOFF = 1.00E-12  CPHFBS = BASISAO 
          CODE   = IMS     

          NUMBER OF CORE -A-  ORBITALS =     8
          NUMBER OF CORE -B-  ORBITALS =     8
          NUMBER OF OCC. -A-  ORBITALS =    18
          NUMBER OF OCC. -B-  ORBITALS =    18
          NUMBER OF MOLECULAR ORBITALS =    66
          NUMBER OF   BASIS  FUNCTIONS =    66

 CPU     0: STEP CPU TIME=     0.03 TOTAL CPU TIME=          0.1 (      0.0 MIN)
 TOTAL WALL CLOCK TIME=          0.2 SECONDS, CPU UTILIZATION IS    46.67%
 CPU     0: STEP CPU TIME=     0.00 TOTAL CPU TIME=          0.1 (      0.0 MIN)
 TOTAL WALL CLOCK TIME=          0.2 SECONDS, CPU UTILIZATION IS    46.67%

     INPUT FOR CAVITY DEFINITION 
     ---------------------------
   ATOM               COORDINATES                RADIUS       EPS
      1     -7.4290     -4.2550     10.1660      0.0100     78.3900
      2     -7.8490     -4.3780      9.2930      1.5900     78.3900
      3     -8.1550     -5.7770      9.1790      1.7700     78.3900
      4     -8.6590     -6.1050     10.1160      0.0100     78.3900
      5     -7.2060     -6.3520      9.0880      0.0100     78.3900
      6     -9.0700     -6.1380      7.9940      1.7700     78.3900
      7     -9.5140     -7.1460      8.1440      0.0100     78.3900
      8    -10.1750     -5.1960      7.8950      1.5900     78.3900
      9    -10.4270     -4.9120      6.5310      1.7700     78.3900
     10    -11.5030     -5.1490      6.3580      0.0100     78.3900
     11    -10.1910     -3.4990      6.2180      1.6800     78.3900
     12    -10.6130     -2.8310      5.0960      1.7700     78.3900
     13    -12.2520     -2.7660      2.0330      1.6800     78.3900
     14    -12.5770     -3.7060      1.9260      0.0100     78.3900
     15    -12.4400     -2.1050      1.3090      0.0100     78.3900
     16    -11.3180     -3.3530      4.0700      1.6800     78.3900
     17    -11.5770     -2.4450      3.1230      1.7700     78.3900
     18    -11.1880     -1.1330      3.2140      1.6800     78.3900
     19    -11.4160     -0.5080      2.4590      0.0100     78.3900
     20    -10.4910     -0.5740      4.2810      1.7700     78.3900
     21    -10.1830      0.6190      4.3300      1.5900     78.3900
     22    -10.1870     -1.5320      5.2710      1.7700     78.3900
     23     -9.4920     -1.3850      6.4640      1.6800     78.3900
     24     -9.5190     -2.5810      6.9960      1.7700     78.3900
     25     -9.0760     -2.8550      7.9560      0.0100     78.3900
     26     -9.5760     -5.8320      5.6930      1.7700     78.3900
     27     -9.2460     -5.3430      4.7580      0.0100     78.3900
     28    -10.2780     -7.0110      5.3640      1.5900     78.3900
     29     -9.6640     -7.5140      4.8090      0.0100     78.3900
     30     -8.3980     -6.1400      6.6080      1.7700     78.3900
     31     -7.6520     -5.3120      6.5980      0.0100     78.3900
     32     -7.7860     -7.4240      6.3900      1.5900     78.3900
     33     -6.8920     -7.8190      5.1640      2.1000     78.3900
     34     -6.6930     -9.2820      5.2150      1.5900     78.3900
     35     -5.6870     -6.9630      5.2090      1.5900     78.3900
     36     -7.7020     -7.4480      3.8570      1.5900     78.3900
     37     -8.3840     -8.3620      2.9630      1.7700     78.3900
     38     -9.1740     -8.9050      3.5350      0.0100     78.3900
     39     -7.6830     -9.1240      2.5600      0.0100     78.3900
     40     -9.1050     -7.6580      1.7600      1.7700     78.3900
     41     -9.9520     -8.2920      1.4220      0.0100     78.3900
     42     -9.6880     -6.4150      2.2420      1.5900     78.3900
     43     -9.4970     -5.3740      1.3040      1.7700     78.3900
     44    -10.5090     -4.9380      1.1360      0.0100     78.3900
     45     -8.6340     -4.3080      1.8290      1.6800     78.3900
     46     -8.4810     -3.0550      1.3010      1.7700     78.3900
     47     -9.1400     -0.7210     -1.1740      1.6800     78.3900
     48     -9.7350     -1.2210     -1.8030      0.0100     78.3900
     49     -8.8680      0.2190     -1.3950      0.0100     78.3900
     50     -9.0590     -2.5910      0.1800      1.6800     78.3900
     51     -8.7290     -1.3250     -0.0730      1.7700     78.3900
     52     -7.9380     -0.5800      0.7630      1.6800     78.3900
     53     -7.7450      0.3750      0.5040      0.0100     78.3900
     54     -7.3540     -1.0230      1.9420      1.7700     78.3900
     55     -6.6550     -0.2870      2.6460      1.5900     78.3900
     56     -7.6410     -2.3890      2.1740      1.7700     78.3900
     57     -7.2250     -3.2230      3.1970      1.6800     78.3900
     58     -7.8410     -4.3490      2.9500      1.7700     78.3900
     59     -7.7420     -5.2490      3.5480      0.0100     78.3900
     60     -8.9920     -5.9710      0.0160      1.7700     78.3900
     61     -8.2740     -5.3100     -0.5180      0.0100     78.3900
     62    -10.0990     -6.2440     -0.8220      1.5900     78.3900
     63     -9.7790     -6.8030     -1.5460      0.0100     78.3900
     64     -8.3100     -7.2620      0.4670      1.7700     78.3900
     65     -7.2600     -7.0690      0.7870      0.0100     78.3900
     66     -8.3900     -8.3020     -0.5360      1.5900     78.3900
     67     -7.4690     -8.3850     -1.8220      2.1000     78.3900
     68     -7.9700     -9.4870     -2.6720      1.5900     78.3900
     69     -6.0920     -8.5160     -1.3120      1.5900     78.3900
     70     -7.5540     -7.0350     -2.6690      1.5900     78.3900
     71     -7.3980     -7.1200     -4.1320      1.7700     78.3900
     72     -8.4060     -7.3030     -4.5710      0.0100     78.3900
     73     -6.7470     -7.9680     -4.4520      0.0100     78.3900
     74     -6.8630     -5.8480     -4.8650      1.7700     78.3900
     75     -7.2550     -5.8340     -5.9050      0.0100     78.3900
     76     -7.3900     -4.6670     -4.2100      1.5900     78.3900
     77     -6.4300     -3.6350     -4.2470      1.7700     78.3900
     78     -6.9560     -2.7780     -4.7260      0.0100     78.3900
     79     -5.9690     -3.2350     -2.8950      1.6800     78.3900
     80     -6.0150     -4.0940     -1.8220      1.7700     78.3900
     81     -6.4480     -5.0760     -2.0220      0.0100     78.3900
     82     -5.5910     -3.7090     -0.6080      1.7700     78.3900
     83     -5.6360     -4.3630      0.2610      0.0100     78.3900
     84     -5.4370     -1.9680     -2.7420      1.7700     78.3900
     85     -5.3780     -1.2320     -3.7340      1.5900     78.3900
     86     -5.0000     -1.5600     -1.5330      1.6800     78.3900
     87     -5.0660     -2.3870     -0.4780      1.7700     78.3900
     88     -4.6450     -1.9360      0.7020      1.6800     78.3900
     89     -4.3070     -0.9950      0.7690      0.0100     78.3900
     90     -4.6570     -2.4950      1.5340      0.0100     78.3900
     91     -5.2830     -4.0720     -5.1440      1.7700     78.3900
     92     -4.3030     -3.6690     -4.8050      0.0100     78.3900
     93     -5.5170     -3.6630     -6.4830      1.5900     78.3900
     94     -4.7630     -3.9710     -7.0080      0.0100     78.3900
     95     -5.3260     -5.5960     -4.9830      1.7700     78.3900
     96     -4.8790     -5.8930     -4.0070      0.0100     78.3900
     97     -4.7470     -6.3300     -6.0950      1.5900     78.3900
     98     -3.1720     -6.3990     -6.2720      2.1000     78.3900
     99     -2.8800     -7.5290     -7.1840      1.5900     78.3900
    100     -2.5200     -6.4320     -4.9470      1.5900     78.3900
    101     -2.7820     -5.0560     -6.9860      1.5900     78.3900
    102     -2.0130     -5.0080     -8.2190      1.7700     78.3900
    103     -2.7170     -5.0900     -9.0790      0.0100     78.3900
    104     -1.2890     -5.8540     -8.3080      0.0100     78.3900
    105     -1.2140     -3.6890     -8.4030      1.7700     78.3900
    106     -1.2490     -3.3570     -9.4620      0.0100     78.3900
    107     -1.8000     -2.6190     -7.5940      1.5900     78.3900
    108     -0.7760     -1.8780     -6.9700      1.7700     78.3900
    109     -0.9770     -0.8060     -7.2010      0.0100     78.3900
    110     -0.7710     -2.0640     -5.5140      1.6800     78.3900
    111     -0.5470     -1.7450     -3.3490      1.7700     78.3900
    112     -0.9770     -3.0530     -3.5060      1.6800     78.3900
    113     -1.0980     -3.1940     -4.8020      1.7700     78.3900
    114     -1.4260     -4.1090     -5.2980      0.0100     78.3900
    115      0.1450      0.3000     -2.4010      1.6800     78.3900
    116      0.2470      0.7660     -3.6490      1.7700     78.3900
    117      0.5790      1.8080     -3.7440      0.0100     78.3900
    118     -0.0170      0.1430     -4.8040      1.6800     78.3900
    119     -0.4120     -1.1220     -4.5790      1.7700     78.3900
    120     -0.2420     -0.9830     -2.2040      1.7700     78.3900
    121     -0.3100     -1.4730     -0.9500      1.6800     78.3900
    122     -0.5500     -2.4310     -0.7650      0.0100     78.3900
    123     -0.0260     -0.9090     -0.1700      0.0100     78.3900
    124      0.5290     -2.2860     -7.5970      1.7700     78.3900
    125      1.3570     -2.2300     -6.8680      0.0100     78.3900
    126      0.8040     -1.4680     -8.7200      1.5900     78.3900
    127      1.6720     -1.7410     -9.0510      0.0100     78.3900
    128      0.2770     -3.7410     -7.9870      1.7700     78.3900
    129      0.3400     -4.4030     -7.0940      0.0100     78.3900
    130      1.0950     -4.2240     -9.0780      1.5900     78.3900
    131      2.5620     -4.7880     -8.8810      2.1000     78.3900
    132      3.1740     -4.9620    -10.2160      1.5900     78.3900
    133      2.5110     -6.0000     -8.0340      1.5900     78.3900
    134      3.3770     -3.7090     -8.0860      1.5900     78.3900
    135      4.3620     -2.8370     -8.6910      1.7700     78.3900
    136      4.0470     -2.5340     -9.7170      0.0100     78.3900
    137      5.3360     -3.3740     -8.7890      0.0100     78.3900
    138      4.5860     -1.5230     -7.8970      1.7700     78.3900
    139      4.7180     -0.6780     -8.6010      0.0100     78.3900
    140      3.4120     -1.2130     -7.0970      1.5900     78.3900
    141      3.7820     -0.7190     -5.8300      1.7700     78.3900
    142      3.2210      0.2390     -5.7260      0.0100     78.3900
    143      3.4040     -1.6170     -4.6990      1.6800     78.3900
    144      2.9920     -2.9200     -4.8870      1.7700     78.3900
    145      2.9750     -3.2760     -5.9160      0.0100     78.3900
    146      2.6270     -3.6920     -3.8510      1.7700     78.3900
    147      2.2800     -4.7160     -3.9780      0.0100     78.3900
    148      3.4410     -1.0910     -3.4140      1.7700     78.3900
    149      3.7710      0.0930     -3.2650      1.5900     78.3900
    150      3.1320     -1.8660     -2.3570      1.6800     78.3900
    151      2.7060     -3.1230     -2.5440      1.7700     78.3900
    152      2.3580     -3.8300     -1.4750      1.6800     78.3900
    153      2.4130     -3.3900     -0.5800      0.0100     78.3900
    154      2.0440     -4.7820     -1.5410      0.0100     78.3900
    155      5.2660     -0.4270     -5.8870      1.7700     78.3900
    156      5.7740     -0.5560     -4.9060      0.0100     78.3900
    157      5.4690      0.8920     -6.3630      1.5900     78.3900
    158      6.4000      0.9620     -6.6210      0.0100     78.3900
    159      5.7530     -1.4620     -6.8940      1.7700     78.3900
    160      5.8080     -2.4680     -6.4170      0.0100     78.3900
    161      6.9690     -1.0590     -7.5600      1.5900     78.3900
    162      8.2980     -1.8750     -7.4180      2.1000     78.3900
    163      9.2640     -1.3740     -8.4170      1.5900     78.3900
    164      7.9820     -3.3190     -7.4420      1.5900     78.3900
    165      8.8190     -1.5100     -5.9840      1.5900     78.3900
    166      9.5290     -0.2880     -5.6770      1.7700     78.3900
    167      9.0070      0.6020     -6.1030      0.0100     78.3900
    168     10.5550     -0.3130     -6.1110      0.0100     78.3900
    169      9.6590     -0.0770     -4.1540      1.7700     78.3900
    170     10.0990      0.9190     -3.9300      0.0100     78.3900
    171      8.3290     -0.1200     -3.5480      1.5900     78.3900
    172      8.4110     -0.7450     -2.2740      1.7700     78.3900
    173      8.0140      0.0120     -1.5570      0.0100     78.3900
    174      7.5900     -1.9880     -2.1800      1.6800     78.3900
    175      7.1880     -2.6640     -3.3080      1.7700     78.3900
    176      7.4960     -2.2190     -4.2530      0.0100     78.3900
    177      7.2210     -2.4340     -0.9280      1.7700     78.3900
    178      7.5490     -1.8570      0.1020      1.5900     78.3900
    179      6.4430     -3.5630     -0.9130      1.6800     78.3900
    180      6.2160     -3.9380     -0.0050      0.0100     78.3900
    181      6.0360     -4.3080     -1.9970      1.7700     78.3900
    182      5.3640     -5.3250     -1.8370      1.5900     78.3900
    183      6.4420     -3.7780     -3.2630      1.7700     78.3900
    184      6.1380     -4.3030     -4.1660      0.0100     78.3900
    185      9.8880     -0.9670     -1.9770      1.7700     78.3900
    186     10.0640     -1.8660     -1.3490      0.0100     78.3900
    187     10.4470      0.1790     -1.3570      1.5900     78.3900
    188     11.3310     -0.0920     -1.0700      0.0100     78.3900
    189     10.4690     -1.1380     -3.3730      1.7700     78.3900
    190     10.1810     -2.1240     -3.8040      0.0100     78.3900
    191     11.8960     -0.8760     -3.4650      1.5900     78.3900
    192     12.9160     -2.0170     -3.0710      2.1000     78.3900
    193     14.1130     -1.8270     -3.9180      1.5900     78.3900
    194     12.2410     -3.3330     -3.1340      1.5900     78.3900
    195     13.3160     -1.7280     -1.5600      1.5900     78.3900
    196     14.4270     -2.5060     -1.0160      1.7700     78.3900
    197     15.2230     -2.7040     -1.7790      0.0100     78.3900
    198     14.0660     -3.5000     -0.6640      0.0100     78.3900
    199     15.1440     -1.8110      0.1610      1.7700     78.3900
    200     16.0080     -2.4420      0.4620      0.0100     78.3900
    201     15.6690     -0.5190     -0.2520      1.5900     78.3900
    202     15.1600      0.4960      0.5850      1.7700     78.3900
    203     15.9590      0.6700      1.3450      0.0100     78.3900
    204     14.8400      1.7170     -0.1970      1.6800     78.3900
    205     14.0400      1.6250     -1.3130      1.7700     78.3900
    206     13.7340      0.6120     -1.5790      0.0100     78.3900
    207     15.3120      2.9320      0.2420      1.7700     78.3900
    208     16.0040      3.0530      1.2480      1.5900     78.3900
    209     14.9450      4.0050     -0.5310      1.6800     78.3900
    210     15.2940      4.9020     -0.2280      0.0100     78.3900
    211     14.1650      3.9940     -1.6680      1.7700     78.3900
    212     13.9260      5.0460     -2.2620      1.5900     78.3900
    213     13.6910      2.6940     -2.0470      1.7700     78.3900
    214     13.0620      2.6080     -2.9310      0.0100     78.3900
    215     13.9430     -0.0580      1.2870      1.7700     78.3900
    216     13.0340      0.0450      0.6540      0.0100     78.3900
    217     13.7640      0.5820      2.5350      1.5900     78.3900
    218     12.9180      0.3000      2.9250      0.0100     78.3900
    219     14.2940     -1.5400      1.4210      1.7700     78.3900
    220     13.3500     -2.1240      1.3140      0.0100     78.3900
    221     15.0200     -1.8540      2.6380      1.5900     78.3900
    222     14.6580     -3.1640      3.4360      2.1000     78.3900
    223     15.3890     -3.1630      4.7210      1.5900     78.3900
    224     14.9070     -4.3190      2.5480      1.5900     78.3900
    225     13.1190     -3.0670      3.6960      1.5900     78.3900
    226     12.5390     -2.7770      4.9850      1.7700     78.3900
    227     12.5280     -1.6720      5.1330      0.0100     78.3900
    228     13.1200     -3.2290      5.8290      0.0100     78.3900
    229     11.0720     -3.2550      5.0860      1.7700     78.3900
    230     10.5430     -2.6320      5.8370      0.0100     78.3900
    231     10.3660     -3.1100      3.8190      1.5900     78.3900
    232      9.8770     -4.3650      3.4020      1.7700     78.3900
    233      8.8290     -4.4080      3.7810      0.0100     78.3900
    234      9.9260     -4.5090      1.9300      1.6800     78.3900
    235     11.0490     -4.0790      1.2670      1.7700     78.3900
    236     11.8070     -3.6000      1.8870      0.0100     78.3900
    237     11.1620     -4.2040     -0.0610      1.7700     78.3900
    238     12.0340     -3.8570     -0.6100      0.0100     78.3900
    239      8.9030     -5.1420      1.2310      1.7700     78.3900
    240      7.9220     -5.5810      1.8550      1.5900     78.3900
    241      8.9980     -5.2730     -0.1160      1.6800     78.3900
    242     10.0900     -4.8230     -0.7630      1.7700     78.3900
    243     10.1700     -4.9520     -2.0870      1.6800     78.3900
    244     10.9400     -4.5370     -2.5910      0.0100     78.3900
    245      9.4670     -5.4590     -2.5840      0.0100     78.3900
    246     10.7050     -5.4050      4.1180      1.7700     78.3900
    247     11.6950     -5.5200      3.6250      0.0100     78.3900
    248     10.0420     -6.6500      4.2290      1.5900     78.3900
    249      9.2930     -6.5080      4.8300      0.0100     78.3900
    250     10.8860     -4.7350      5.4790      1.7700     78.3900
    251     11.8370     -5.1110      5.9270      0.0100     78.3900
    252      9.7410     -4.9100      6.3470      1.5900     78.3900
    253      9.9090     -5.0830      7.9010      2.1000     78.3900
    254     11.2530     -5.6190      8.2130      1.5900     78.3900
    255      8.7480     -5.8580      8.3890      1.5900     78.3900
    256      9.8190     -3.6340      8.5020      1.5900     78.3900
    257      8.6260     -2.8290      8.3580      1.7700     78.3900
    258      7.8750     -3.1090      9.1300      0.0100     78.3900
    259      8.1600     -2.9770      7.3550      0.0100     78.3900
    260      8.9360     -1.3270      8.4940      1.7700     78.3900
    261      9.1550     -1.0570      9.5460      0.0100     78.3900
    262     10.1160     -0.9970      7.7180      1.5900     78.3900
    263     10.0280      0.3310      7.2600      1.7700     78.3900
    264     10.8180      0.8820      7.8200      0.0100     78.3900
    265     10.2970      0.4200      5.8320      1.6800     78.3900
    266      9.6050     -0.0900      4.7500      1.7700     78.3900
    267      6.9860     -1.9160      3.4000      1.6800     78.3900
    268      6.7050     -2.2650      2.5140      0.0100     78.3900
    269      6.4990     -2.2040      4.2210      0.0100     78.3900
    270      8.4590     -0.7990      4.7710      1.6800     78.3900
    271      8.0780     -1.1830      3.5580      1.7700     78.3900
    272      8.7630     -0.8640      2.4150      1.6800     78.3900
    273      8.4380     -1.2370      1.5410      0.0100     78.3900
    274      9.9730     -0.1830      2.3870      1.7700     78.3900
    275     10.5900      0.0560      1.3500      1.5900     78.3900
    276     10.3470      0.2890      3.6550      1.7700     78.3900
    277     11.4420      1.0470      4.0220      1.6800     78.3900
    278     11.3770      1.0930      5.3250      1.7700     78.3900
    279     12.0980      1.6030      5.9680      0.0100     78.3900
    280      8.6720      0.8840      7.6280      1.7700     78.3900
    281      8.1900      1.4320      6.7880      0.0100     78.3900
    282      8.7820      1.7260      8.7580      1.5900     78.3900
    283      7.8860      1.8320      9.1120      0.0100     78.3900
    284      7.8710     -0.3740      7.9430      1.7700     78.3900
    285      7.5140     -0.8460      7.0030      0.0100     78.3900
    286      6.8090     -0.1620      8.8970      1.5900     78.3900
    287      5.3650      0.1330      8.3420      2.1000     78.3900
    288      4.5870      0.8230      9.3960      1.5900     78.3900
    289      4.8260     -1.1520      7.8480      1.5900     78.3900
    290      5.5640      1.1080      7.1310      1.5900     78.3900
    291      5.5520      2.5470      7.2250      1.7700     78.3900
    292      6.2900      2.8810      7.9880      0.0100     78.3900
    293      4.5460      2.8970      7.5510      0.0100     78.3900
    294      5.9090      3.2890      5.9050      1.7700     78.3900
    295      6.5910      4.1410      6.1240      0.0100     78.3900
    296      6.5980      2.4090      4.9620      1.5900     78.3900
    297      6.0280      2.5580      3.6720      1.7700     78.3900
    298      6.8720      2.6400      2.9470      0.0100     78.3900
    299      5.1740      1.4100      3.3220      1.6800     78.3900
    300      4.8870      0.9740      2.0600      1.7700     78.3900
    301      5.2550      1.2690     -1.3540      1.6800     78.3900
    302      5.8310      2.0770     -1.4520      0.0100     78.3900
    303      4.8370      0.8510     -2.1660      0.0100     78.3900
    304      5.3410      1.5180      0.9230      1.6800     78.3900
    305      4.9040      0.8700     -0.1510      1.7700     78.3900
    306      4.0850     -0.2330     -0.0900      1.6800     78.3900
    307      3.8000     -0.6790     -0.9490      0.0100     78.3900
    308      3.6100     -0.8250      1.0750      1.7700     78.3900
    309      2.8900     -1.8290      1.0600      1.5900     78.3900
    310      4.0530     -0.1180      2.2220      1.7700     78.3900
    311      3.7970     -0.3450      3.5620      1.6800     78.3900
    312      4.4860      0.5820      4.1770      1.7700     78.3900
    313      4.5260      0.7070      5.2530      0.0100     78.3900
    314      5.2440      3.8440      3.6900      1.7700     78.3900
    315      4.4250      3.8570      2.9380      0.0100     78.3900
    316      6.1070      4.9460      3.4700      1.5900     78.3900
    317      5.6170      5.7370      3.7270      0.0100     78.3900
    318      4.7050      3.8390      5.1130      1.7700     78.3900
    319      3.8940      3.0810      5.2220      0.0100     78.3900
    320      4.3290      5.1450      5.6090      1.5900     78.3900
    321      2.8390      5.6340      5.4160      2.1000     78.3900
    322      2.6750      6.9510      6.0690      1.5900     78.3900
    323      1.9420      4.5480      5.8660      1.5900     78.3900
    324      2.6700      5.7950      3.8600      1.5900     78.3900
    325      3.2150      6.9120      3.1240      1.7700     78.3900
    326      4.3250      6.9230      3.1850      0.0100     78.3900
    327      2.8420      7.8760      3.5320      0.0100     78.3900
    328      2.8140      6.8810      1.6400      1.7700     78.3900
    329      3.2740      7.7270      1.0860      0.0100     78.3900
    330      3.2820      5.6540      1.0150      1.5900     78.3900
    331      2.3100      5.2080      0.0790      1.7700     78.3900
    332      2.8480      5.1570     -0.8980      0.0100     78.3900
    333      1.7640      3.8700      0.4440      1.6800     78.3900
    334      1.7650      3.4200      1.7480      1.7700     78.3900
    335      2.2280      4.0880      2.4700      0.0100     78.3900
    336      1.2580      3.0890     -0.5690      1.7700     78.3900
    337      1.2570      3.4430     -1.7430      1.5900     78.3900
    338      0.7770      1.8750     -0.1670      1.6800     78.3900
    339      0.4520      1.2810     -0.9240      0.0100     78.3900
    340      0.7610      1.3460      1.1020      1.7700     78.3900
    341      0.3160      0.2160      1.2960      1.5900     78.3900
    342      1.2960      2.2140      2.1060      1.7700     78.3900
    343      1.3370      1.8590      3.1330      0.0100     78.3900
    344      1.2180      6.2650     -0.0030      1.7700     78.3900
    345      0.2140      5.8180     -0.1710      0.0100     78.3900
    346      1.4930      7.2000     -1.0330      1.5900     78.3900
    347      0.7510      7.8210     -1.0360      0.0100     78.3900
    348      1.2990      6.9030      1.3790      1.7700     78.3900
    349      0.8390      6.2350      2.1430      0.0100     78.3900
    350      0.8050      8.2570      1.4660      1.5900     78.3900
    351     -0.7370      8.5240      1.6310      2.1000     78.3900
    352     -0.9530      9.9840      1.7430      1.5900     78.3900
    353     -1.2450      7.6790      2.7320      1.5900     78.3900
    354     -1.3710      8.0180      0.2930      1.5900     78.3900
    355     -1.8150      8.9270     -0.7380      1.7700     78.3900
    356     -0.9510      9.5070     -1.1390      0.0100     78.3900
    357     -2.5580      9.6540     -0.3340      0.0100     78.3900
    358     -2.4790      8.1870     -1.9160      1.7700     78.3900
    359     -2.4160      8.7850     -2.8490      0.0100     78.3900
    360     -1.8140      6.9050     -2.1530      1.5900     78.3900
    361     -2.7910      5.9150     -2.4170      1.7700     78.3900
    362     -2.4860      5.4360     -3.3790      0.0100     78.3900
    363     -2.8600      4.8950     -1.3580      1.6800     78.3900
    364     -3.2760      3.6180     -1.5640      1.7700     78.3900
    365     -4.4270      1.2200     -3.7280      1.6800     78.3900
    366     -4.5020      1.7270     -4.5850      0.0100     78.3900
    367     -4.7520      0.2680     -3.6900      0.0100     78.3900
    368     -3.6650      3.1190     -2.7420      1.6800     78.3900
    369     -4.0230      1.8510     -2.6520      1.7700     78.3900
    370     -3.9980      1.1350     -1.4830      1.6800     78.3900
    371     -4.3180      0.1790     -1.5040      0.0100     78.3900
    372     -3.6100      1.6230     -0.2420      1.7700     78.3900
    373     -3.6320      0.8930      0.7540      1.5900     78.3900
    374     -3.2160      2.9920     -0.3310      1.7700     78.3900
    375     -2.7650      3.8780      0.6450      1.6800     78.3900
    376     -2.5680      4.9970     -0.0170      1.7700     78.3900
    377     -2.2060      5.9250      0.4240      0.0100     78.3900
    378     -4.1190      6.6130     -2.6120      1.7700     78.3900
    379     -4.9800      5.9850     -2.3000      0.0100     78.3900
    380     -4.2730      6.9920     -3.9670      1.5900     78.3900
    381     -5.0850      7.5120     -4.0260      0.0100     78.3900
    382     -3.9600      7.8200     -1.6950      1.7700     78.3900
    383     -4.0360      7.5000     -0.6290      0.0100     78.3900
    384     -4.8190      8.9430     -2.0140      1.5900     78.3900
    385     -6.1570      9.1590     -1.1990      2.1000     78.3900
    386     -6.7580     10.4520     -1.5900      1.5900     78.3900
    387     -5.8880      8.9650      0.2390      1.5900     78.3900
    388     -7.0930      7.9970     -1.6800      1.5900     78.3900
    389     -7.7870      8.0940     -2.9440      1.7700     78.3900
    390     -7.1280      8.5100     -3.7470      0.0100     78.3900
    391     -8.6440      8.7910     -2.8360      0.0100     78.3900
    392     -8.3390      6.7260     -3.3950      1.7700     78.3900
    393     -8.5690      6.7290     -4.4820      0.0100     78.3900
    394     -7.3580      5.6780     -3.1550      1.5900     78.3900
    395     -8.0110      4.4890     -2.7540      1.7700     78.3900
    396     -7.7600      3.7540     -3.5540      0.0100     78.3900
    397     -7.5130      3.9560     -1.4520      1.6800     78.3900
    398     -6.9250      4.7890     -0.5230      1.7700     78.3900
    399     -6.8390      5.8400     -0.8080      0.0100     78.3900
    400     -6.4660      4.3150      0.6450      1.7700     78.3900
    401     -5.9830      4.9470      1.3880      0.0100     78.3900
    402     -7.6690      2.6020     -1.1620      1.7700     78.3900
    403     -8.2290      1.8630     -1.9870      1.5900     78.3900
    404     -7.2040      2.1110      0.0060      1.6800     78.3900
    405     -6.6200      2.9230      0.9030      1.7700     78.3900
    406     -6.1850      2.4060      2.0480      1.6800     78.3900
    407     -6.2800      1.4200      2.2060      0.0100     78.3900
    408     -5.7120      2.9500      2.7450      0.0100     78.3900
    409     -9.5190      4.7400     -2.7710      1.7700     78.3900
    410    -10.0330      4.2540     -1.9160      0.0100     78.3900
    411    -10.0840      4.2770     -3.9840      1.5900     78.3900
    412    -11.0240      4.5120     -3.9650      0.0100     78.3900
    413     -9.6030      6.2690     -2.6490      1.7700     78.3900
    414     -9.4460      6.5720     -1.5880      0.0100     78.3900
    415    -10.7780      6.9020     -3.2310      1.5900     78.3900
    416    -12.1440      6.8750     -2.4380      2.1000     78.3900
    417    -13.0200      7.9460     -2.9590      1.5900     78.3900
    418    -11.8810      6.8690     -0.9850      1.5900     78.3900
    419    -12.7370      5.4900     -2.8420      1.5900     78.3900
    420    -14.1540      5.2580     -3.0280      1.7700     78.3900
    421    -14.4120      5.4250     -4.0990      0.0100     78.3900
    422    -14.7820      5.9660     -2.4330      0.0100     78.3900
    423    -14.5860      3.8170     -2.6520      1.7700     78.3900
    424    -15.2400      3.3870     -3.4430      0.0100     78.3900
    425    -13.4290      2.9360     -2.5100      1.5900     78.3900
    426    -13.6130      2.0510     -1.4260      1.7700     78.3900
    427    -13.5970      1.0410     -1.8950      0.0100     78.3900
    428    -12.5260      2.1430     -0.4200      1.6800     78.3900
    429    -12.0040      3.3750     -0.0910      1.7700     78.3900
    430    -12.3980      4.2340     -0.6430      0.0100     78.3900
    431    -11.0240      3.4900      0.8140      1.7700     78.3900
    432    -10.5860      4.4490      1.0850      0.0100     78.3900
    433    -12.0920      0.9990      0.2530      1.7700     78.3900
    434    -12.6230     -0.0970      0.0000      1.5900     78.3900
    435    -11.1020      1.1000      1.1690      1.6800     78.3900
    436    -10.5650      2.3020      1.4500      1.7700     78.3900
    437     -9.6020      2.3770      2.3600      1.6800     78.3900
    438     -9.5420      1.5970      2.9880      0.0100     78.3900
    439     -9.2630      3.2540      2.6970      0.0100     78.3900
    440    -14.9910      2.2880     -0.8280      1.7700     78.3900
    441    -14.9680      2.2710      0.2860      0.0100     78.3900
    442    -15.8970      1.3050     -1.3010      1.5900     78.3900
    443    -16.7950      1.5410     -1.0190      0.0100     78.3900
    444    -15.3310      3.7010     -1.3150      1.7700     78.3900
    445    -14.8930      4.4600     -0.6280      0.0100     78.3900
    446    -16.7390      3.9440     -1.5000      1.5900     78.3900
    447    -17.2070      3.8700     -0.6500      0.0100     78.3900

     ----------------------------
     INPUT FOR TESSERA DEFINITION
     ----------------------------
     NTSALL  =        60     MTHALL  =         4
     MTHAUT  =         0     AUTFRE  =    2.0000
     NTSFRZ  =        60     KEEPSM  =         0
     AREAKP  =   10.0000     BONDRY  =    1.0000
     AREATL  =    0.0100

     SPHERE     INITS       METHOD
          1        60       FIXPVA
          2        60       FIXPVA
          3        60       FIXPVA
          4        60       FIXPVA
          5        60       FIXPVA
          6        60       FIXPVA
          7        60       FIXPVA
          8        60       FIXPVA
          9        60       FIXPVA
         10        60       FIXPVA
         11        60       FIXPVA
         12        60       FIXPVA
         13        60       FIXPVA
         14        60       FIXPVA
         15        60       FIXPVA
         16        60       FIXPVA
         17        60       FIXPVA
         18        60       FIXPVA
         19        60       FIXPVA
         20        60       FIXPVA
         21        60       FIXPVA
         22        60       FIXPVA
         23        60       FIXPVA
         24        60       FIXPVA
         25        60       FIXPVA
         26        60       FIXPVA
         27        60       FIXPVA
         28        60       FIXPVA
         29        60       FIXPVA
         30        60       FIXPVA
         31        60       FIXPVA
         32        60       FIXPVA
         33        60       FIXPVA
         34        60       FIXPVA
         35        60       FIXPVA
         36        60       FIXPVA
         37        60       FIXPVA
         38        60       FIXPVA
         39        60       FIXPVA
         40        60       FIXPVA
         41        60       FIXPVA
         42        60       FIXPVA
         43        60       FIXPVA
         44        60       FIXPVA
         45        60       FIXPVA
         46        60       FIXPVA
         47        60       FIXPVA
         48        60       FIXPVA
         49        60       FIXPVA
         50        60       FIXPVA
         51        60       FIXPVA
         52        60       FIXPVA
         53        60       FIXPVA
         54        60       FIXPVA
         55        60       FIXPVA
         56        60       FIXPVA
         57        60       FIXPVA
         58        60       FIXPVA
         59        60       FIXPVA
         60        60       FIXPVA
         61        60       FIXPVA
         62        60       FIXPVA
         63        60       FIXPVA
         64        60       FIXPVA
         65        60       FIXPVA
         66        60       FIXPVA
         67        60       FIXPVA
         68        60       FIXPVA
         69        60       FIXPVA
         70        60       FIXPVA
         71        60       FIXPVA
         72        60       FIXPVA
         73        60       FIXPVA
         74        60       FIXPVA
         75        60       FIXPVA
         76        60       FIXPVA
         77        60       FIXPVA
         78        60       FIXPVA
         79        60       FIXPVA
         80        60       FIXPVA
         81        60       FIXPVA
         82        60       FIXPVA
         83        60       FIXPVA
         84        60       FIXPVA
         85        60       FIXPVA
         86        60       FIXPVA
         87        60       FIXPVA
         88        60       FIXPVA
         89        60       FIXPVA
         90        60       FIXPVA
         91        60       FIXPVA
         92        60       FIXPVA
         93        60       FIXPVA
         94        60       FIXPVA
         95        60       FIXPVA
         96        60       FIXPVA
         97        60       FIXPVA
         98        60       FIXPVA
         99        60       FIXPVA
        100        60       FIXPVA
        101        60       FIXPVA
        102        60       FIXPVA
        103        60       FIXPVA
        104        60       FIXPVA
        105        60       FIXPVA
        106        60       FIXPVA
        107        60       FIXPVA
        108        60       FIXPVA
        109        60       FIXPVA
        110        60       FIXPVA
        111        60       FIXPVA
        112        60       FIXPVA
        113        60       FIXPVA
        114        60       FIXPVA
        115        60       FIXPVA
        116        60       FIXPVA
        117        60       FIXPVA
        118        60       FIXPVA
        119        60       FIXPVA
        120        60       FIXPVA
        121        60       FIXPVA
        122        60       FIXPVA
        123        60       FIXPVA
        124        60       FIXPVA
        125        60       FIXPVA
        126        60       FIXPVA
        127        60       FIXPVA
        128        60       FIXPVA
        129        60       FIXPVA
        130        60       FIXPVA
        131        60       FIXPVA
        132        60       FIXPVA
        133        60       FIXPVA
        134        60       FIXPVA
        135        60       FIXPVA
        136        60       FIXPVA
        137        60       FIXPVA
        138        60       FIXPVA
        139        60       FIXPVA
        140        60       FIXPVA
        141        60       FIXPVA
        142        60       FIXPVA
        143        60       FIXPVA
        144        60       FIXPVA
        145        60       FIXPVA
        146        60       FIXPVA
        147        60       FIXPVA
        148        60       FIXPVA
        149        60       FIXPVA
        150        60       FIXPVA
        151        60       FIXPVA
        152        60       FIXPVA
        153        60       FIXPVA
        154        60       FIXPVA
        155        60       FIXPVA
        156        60       FIXPVA
        157        60       FIXPVA
        158        60       FIXPVA
        159        60       FIXPVA
        160        60       FIXPVA
        161        60       FIXPVA
        162        60       FIXPVA
        163        60       FIXPVA
        164        60       FIXPVA
        165        60       FIXPVA
        166        60       FIXPVA
        167        60       FIXPVA
        168        60       FIXPVA
        169        60       FIXPVA
        170        60       FIXPVA
        171        60       FIXPVA
        172        60       FIXPVA
        173        60       FIXPVA
        174        60       FIXPVA
        175        60       FIXPVA
        176        60       FIXPVA
        177        60       FIXPVA
        178        60       FIXPVA
        179        60       FIXPVA
        180        60       FIXPVA
        181        60       FIXPVA
        182        60       FIXPVA
        183        60       FIXPVA
        184        60       FIXPVA
        185        60       FIXPVA
        186        60       FIXPVA
        187        60       FIXPVA
        188        60       FIXPVA
        189        60       FIXPVA
        190        60       FIXPVA
        191        60       FIXPVA
        192        60       FIXPVA
        193        60       FIXPVA
        194        60       FIXPVA
        195        60       FIXPVA
        196        60       FIXPVA
        197        60       FIXPVA
        198        60       FIXPVA
        199        60       FIXPVA
        200        60       FIXPVA
        201        60       FIXPVA
        202        60       FIXPVA
        203        60       FIXPVA
        204        60       FIXPVA
        205        60       FIXPVA
        206        60       FIXPVA
        207        60       FIXPVA
        208        60       FIXPVA
        209        60       FIXPVA
        210        60       FIXPVA
        211        60       FIXPVA
        212        60       FIXPVA
        213        60       FIXPVA
        214        60       FIXPVA
        215        60       FIXPVA
        216        60       FIXPVA
        217        60       FIXPVA
        218        60       FIXPVA
        219        60       FIXPVA
        220        60       FIXPVA
        221        60       FIXPVA
        222        60       FIXPVA
        223        60       FIXPVA
        224        60       FIXPVA
        225        60       FIXPVA
        226        60       FIXPVA
        227        60       FIXPVA
        228        60       FIXPVA
        229        60       FIXPVA
        230        60       FIXPVA
        231        60       FIXPVA
        232        60       FIXPVA
        233        60       FIXPVA
        234        60       FIXPVA
        235        60       FIXPVA
        236        60       FIXPVA
        237        60       FIXPVA
        238        60       FIXPVA
        239        60       FIXPVA
        240        60       FIXPVA
        241        60       FIXPVA
        242        60       FIXPVA
        243        60       FIXPVA
        244        60       FIXPVA
        245        60       FIXPVA
        246        60       FIXPVA
        247        60       FIXPVA
        248        60       FIXPVA
        249        60       FIXPVA
        250        60       FIXPVA
        251        60       FIXPVA
        252        60       FIXPVA
        253        60       FIXPVA
        254        60       FIXPVA
        255        60       FIXPVA
        256        60       FIXPVA
        257        60       FIXPVA
        258        60       FIXPVA
        259        60       FIXPVA
        260        60       FIXPVA
        261        60       FIXPVA
        262        60       FIXPVA
        263        60       FIXPVA
        264        60       FIXPVA
        265        60       FIXPVA
        266        60       FIXPVA
        267        60       FIXPVA
        268        60       FIXPVA
        269        60       FIXPVA
        270        60       FIXPVA
        271        60       FIXPVA
        272        60       FIXPVA
        273        60       FIXPVA
        274        60       FIXPVA
        275        60       FIXPVA
        276        60       FIXPVA
        277        60       FIXPVA
        278        60       FIXPVA
        279        60       FIXPVA
        280        60       FIXPVA
        281        60       FIXPVA
        282        60       FIXPVA
        283        60       FIXPVA
        284        60       FIXPVA
        285        60       FIXPVA
        286        60       FIXPVA
        287        60       FIXPVA
        288        60       FIXPVA
        289        60       FIXPVA
        290        60       FIXPVA
        291        60       FIXPVA
        292        60       FIXPVA
        293        60       FIXPVA
        294        60       FIXPVA
        295        60       FIXPVA
        296        60       FIXPVA
        297        60       FIXPVA
        298        60       FIXPVA
        299        60       FIXPVA
        300        60       FIXPVA
        301        60       FIXPVA
        302        60       FIXPVA
        303        60       FIXPVA
        304        60       FIXPVA
        305        60       FIXPVA
        306        60       FIXPVA
        307        60       FIXPVA
        308        60       FIXPVA
        309        60       FIXPVA
        310        60       FIXPVA
        311        60       FIXPVA
        312        60       FIXPVA
        313        60       FIXPVA
        314        60       FIXPVA
        315        60       FIXPVA
        316        60       FIXPVA
        317        60       FIXPVA
        318        60       FIXPVA
        319        60       FIXPVA
        320        60       FIXPVA
        321        60       FIXPVA
        322        60       FIXPVA
        323        60       FIXPVA
        324        60       FIXPVA
        325        60       FIXPVA
        326        60       FIXPVA
        327        60       FIXPVA
        328        60       FIXPVA
        329        60       FIXPVA
        330        60       FIXPVA
        331        60       FIXPVA
        332        60       FIXPVA
        333        60       FIXPVA
        334        60       FIXPVA
        335        60       FIXPVA
        336        60       FIXPVA
        337        60       FIXPVA
        338        60       FIXPVA
        339        60       FIXPVA
        340        60       FIXPVA
        341        60       FIXPVA
        342        60       FIXPVA
        343        60       FIXPVA
        344        60       FIXPVA
        345        60       FIXPVA
        346        60       FIXPVA
        347        60       FIXPVA
        348        60       FIXPVA
        349        60       FIXPVA
        350        60       FIXPVA
        351        60       FIXPVA
        352        60       FIXPVA
        353        60       FIXPVA
        354        60       FIXPVA
        355        60       FIXPVA
        356        60       FIXPVA
        357        60       FIXPVA
        358        60       FIXPVA
        359        60       FIXPVA
        360        60       FIXPVA
        361        60       FIXPVA
        362        60       FIXPVA
        363        60       FIXPVA
        364        60       FIXPVA
        365        60       FIXPVA
        366        60       FIXPVA
        367        60       FIXPVA
        368        60       FIXPVA
        369        60       FIXPVA
        370        60       FIXPVA
        371        60       FIXPVA
        372        60       FIXPVA
        373        60       FIXPVA
        374        60       FIXPVA
        375        60       FIXPVA
        376        60       FIXPVA
        377        60       FIXPVA
        378        60       FIXPVA
        379        60       FIXPVA
        380        60       FIXPVA
        381        60       FIXPVA
        382        60       FIXPVA
        383        60       FIXPVA
        384        60       FIXPVA
        385        60       FIXPVA
        386        60       FIXPVA
        387        60       FIXPVA
        388        60       FIXPVA
        389        60       FIXPVA
        390        60       FIXPVA
        391        60       FIXPVA
        392        60       FIXPVA
        393        60       FIXPVA
        394        60       FIXPVA
        395        60       FIXPVA
        396        60       FIXPVA
        397        60       FIXPVA
        398        60       FIXPVA
        399        60       FIXPVA
        400        60       FIXPVA
        401        60       FIXPVA
        402        60       FIXPVA
        403        60       FIXPVA
        404        60       FIXPVA
        405        60       FIXPVA
        406        60       FIXPVA
        407        60       FIXPVA
        408        60       FIXPVA
        409        60       FIXPVA
        410        60       FIXPVA
        411        60       FIXPVA
        412        60       FIXPVA
        413        60       FIXPVA
        414        60       FIXPVA
        415        60       FIXPVA
        416        60       FIXPVA
        417        60       FIXPVA
        418        60       FIXPVA
        419        60       FIXPVA
        420        60       FIXPVA
        421        60       FIXPVA
        422        60       FIXPVA
        423        60       FIXPVA
        424        60       FIXPVA
        425        60       FIXPVA
        426        60       FIXPVA
        427        60       FIXPVA
        428        60       FIXPVA
        429        60       FIXPVA
        430        60       FIXPVA
        431        60       FIXPVA
        432        60       FIXPVA
        433        60       FIXPVA
        434        60       FIXPVA
        435        60       FIXPVA
        436        60       FIXPVA
        437        60       FIXPVA
        438        60       FIXPVA
        439        60       FIXPVA
        440        60       FIXPVA
        441        60       FIXPVA
        442        60       FIXPVA
        443        60       FIXPVA
        444        60       FIXPVA
        445        60       FIXPVA
        446        60       FIXPVA
        447        60       FIXPVA

     ------------------------------
      FIXPVA TESSELLATION FOR PCM
         PEIFENG SU AND HUI LI
     UNIVERSITY OF NEBRASKA-LINCOLN
     ------------------------------


 PCM DIMENSIONS: MXSP=   447, MXTS=     17880, MEMORY=        183720

     INPUT FOR CAVITY DEFINITION 
     ---------------------------
   ATOM               COORDINATES                RADIUS       EPS
      1     -7.4290     -4.2550     10.1660      0.0100     78.3900
      2     -7.8490     -4.3780      9.2930      1.5900     78.3900
      3     -8.1550     -5.7770      9.1790      1.7700     78.3900
      4     -8.6590     -6.1050     10.1160      0.0100     78.3900
      5     -7.2060     -6.3520      9.0880      0.0100     78.3900
      6     -9.0700     -6.1380      7.9940      1.7700     78.3900
      7     -9.5140     -7.1460      8.1440      0.0100     78.3900
      8    -10.1750     -5.1960      7.8950      1.5900     78.3900
      9    -10.4270     -4.9120      6.5310      1.7700     78.3900
     10    -11.5030     -5.1490      6.3580      0.0100     78.3900
     11    -10.1910     -3.4990      6.2180      1.6800     78.3900
     12    -10.6130     -2.8310      5.0960      1.7700     78.3900
     13    -12.2520     -2.7660      2.0330      1.6800     78.3900
     14    -12.5770     -3.7060      1.9260      0.0100     78.3900
     15    -12.4400     -2.1050      1.3090      0.0100     78.3900
     16    -11.3180     -3.3530      4.0700      1.6800     78.3900
     17    -11.5770     -2.4450      3.1230      1.7700     78.3900
     18    -11.1880     -1.1330      3.2140      1.6800     78.3900
     19    -11.4160     -0.5080      2.4590      0.0100     78.3900
     20    -10.4910     -0.5740      4.2810      1.7700     78.3900
     21    -10.1830      0.6190      4.3300      1.5900     78.3900
     22    -10.1870     -1.5320      5.2710      1.7700     78.3900
     23     -9.4920     -1.3850      6.4640      1.6800     78.3900
     24     -9.5190     -2.5810      6.9960      1.7700     78.3900
     25     -9.0760     -2.8550      7.9560      0.0100     78.3900
     26     -9.5760     -5.8320      5.6930      1.7700     78.3900
     27     -9.2460     -5.3430      4.7580      0.0100     78.3900
     28    -10.2780     -7.0110      5.3640      1.5900     78.3900
     29     -9.6640     -7.5140      4.8090      0.0100     78.3900
     30     -8.3980     -6.1400      6.6080      1.7700     78.3900
     31     -7.6520     -5.3120      6.5980      0.0100     78.3900
     32     -7.7860     -7.4240      6.3900      1.5900     78.3900
     33     -6.8920     -7.8190      5.1640      2.1000     78.3900
     34     -6.6930     -9.2820      5.2150      1.5900     78.3900
     35     -5.6870     -6.9630      5.2090      1.5900     78.3900
     36     -7.7020     -7.4480      3.8570      1.5900     78.3900
     37     -8.3840     -8.3620      2.9630      1.7700     78.3900
     38     -9.1740     -8.9050      3.5350      0.0100     78.3900
     39     -7.6830     -9.1240      2.5600      0.0100     78.3900
     40     -9.1050     -7.6580      1.7600      1.7700     78.3900
     41     -9.9520     -8.2920      1.4220      0.0100     78.3900
     42     -9.6880     -6.4150      2.2420      1.5900     78.3900
     43     -9.4970     -5.3740      1.3040      1.7700     78.3900
     44    -10.5090     -4.9380      1.1360      0.0100     78.3900
     45     -8.6340     -4.3080      1.8290      1.6800     78.3900
     46     -8.4810     -3.0550      1.3010      1.7700     78.3900
     47     -9.1400     -0.7210     -1.1740      1.6800     78.3900
     48     -9.7350     -1.2210     -1.8030      0.0100     78.3900
     49     -8.8680      0.2190     -1.3950      0.0100     78.3900
     50     -9.0590     -2.5910      0.1800      1.6800     78.3900
     51     -8.7290     -1.3250     -0.0730      1.7700     78.3900
     52     -7.9380     -0.5800      0.7630      1.6800     78.3900
     53     -7.7450      0.3750      0.5040      0.0100     78.3900
     54     -7.3540     -1.0230      1.9420      1.7700     78.3900
     55     -6.6550     -0.2870      2.6460      1.5900     78.3900
     56     -7.6410     -2.3890      2.1740      1.7700     78.3900
     57     -7.2250     -3.2230      3.1970      1.6800     78.3900
     58     -7.8410     -4.3490      2.9500      1.7700     78.3900
     59     -7.7420     -5.2490      3.5480      0.0100     78.3900
     60     -8.9920     -5.9710      0.0160      1.7700     78.3900
     61     -8.2740     -5.3100     -0.5180      0.0100     78.3900
     62    -10.0990     -6.2440     -0.8220      1.5900     78.3900
     63     -9.7790     -6.8030     -1.5460      0.0100     78.3900
     64     -8.3100     -7.2620      0.4670      1.7700     78.3900
     65     -7.2600     -7.0690      0.7870      0.0100     78.3900
     66     -8.3900     -8.3020     -0.5360      1.5900     78.3900
     67     -7.4690     -8.3850     -1.8220      2.1000     78.3900
     68     -7.9700     -9.4870     -2.6720      1.5900     78.3900
     69     -6.0920     -8.5160     -1.3120      1.5900     78.3900
     70     -7.5540     -7.0350     -2.6690      1.5900     78.3900
     71     -7.3980     -7.1200     -4.1320      1.7700     78.3900
     72     -8.4060     -7.3030     -4.5710      0.0100     78.3900
     73     -6.7470     -7.9680     -4.4520      0.0100     78.3900
     74     -6.8630     -5.8480     -4.8650      1.7700     78.3900
     75     -7.2550     -5.8340     -5.9050      0.0100     78.3900
     76     -7.3900     -4.6670     -4.2100      1.5900     78.3900
     77     -6.4300     -3.6350     -4.2470      1.7700     78.3900
     78     -6.9560     -2.7780     -4.7260      0.0100     78.3900
     79     -5.9690     -3.2350     -2.8950      1.6800     78.3900
     80     -6.0150     -4.0940     -1.8220      1.7700     78.3900
     81     -6.4480     -5.0760     -2.0220      0.0100     78.3900
     82     -5.5910     -3.7090     -0.6080      1.7700     78.3900
     83     -5.6360     -4.3630      0.2610      0.0100     78.3900
     84     -5.4370     -1.9680     -2.7420      1.7700     78.3900
     85     -5.3780     -1.2320     -3.7340      1.5900     78.3900
     86     -5.0000     -1.5600     -1.5330      1.6800     78.3900
     87     -5.0660     -2.3870     -0.4780      1.7700     78.3900
     88     -4.6450     -1.9360      0.7020      1.6800     78.3900
     89     -4.3070     -0.9950      0.7690      0.0100     78.3900
     90     -4.6570     -2.4950      1.5340      0.0100     78.3900
     91     -5.2830     -4.0720     -5.1440      1.7700     78.3900
     92     -4.3030     -3.6690     -4.8050      0.0100     78.3900
     93     -5.5170     -3.6630     -6.4830      1.5900     78.3900
     94     -4.7630     -3.9710     -7.0080      0.0100     78.3900
     95     -5.3260     -5.5960     -4.9830      1.7700     78.3900
     96     -4.8790     -5.8930     -4.0070      0.0100     78.3900
     97     -4.7470     -6.3300     -6.0950      1.5900     78.3900
     98     -3.1720     -6.3990     -6.2720      2.1000     78.3900
     99     -2.8800     -7.5290     -7.1840      1.5900     78.3900
    100     -2.5200     -6.4320     -4.9470      1.5900     78.3900
    101     -2.7820     -5.0560     -6.9860      1.5900     78.3900
    102     -2.0130     -5.0080     -8.2190      1.7700     78.3900
    103     -2.7170     -5.0900     -9.0790      0.0100     78.3900
    104     -1.2890     -5.8540     -8.3080      0.0100     78.3900
    105     -1.2140     -3.6890     -8.4030      1.7700     78.3900
    106     -1.2490     -3.3570     -9.4620      0.0100     78.3900
    107     -1.8000     -2.6190     -7.5940      1.5900     78.3900
    108     -0.7760     -1.8780     -6.9700      1.7700     78.3900
    109     -0.9770     -0.8060     -7.2010      0.0100     78.3900
    110     -0.7710     -2.0640     -5.5140      1.6800     78.3900
    111     -0.5470     -1.7450     -3.3490      1.7700     78.3900
    112     -0.9770     -3.0530     -3.5060      1.6800     78.3900
    113     -1.0980     -3.1940     -4.8020      1.7700     78.3900
    114     -1.4260     -4.1090     -5.2980      0.0100     78.3900
    115      0.1450      0.3000     -2.4010      1.6800     78.3900
    116      0.2470      0.7660     -3.6490      1.7700     78.3900
    117      0.5790      1.8080     -3.7440      0.0100     78.3900
    118     -0.0170      0.1430     -4.8040      1.6800     78.3900
    119     -0.4120     -1.1220     -4.5790      1.7700     78.3900
    120     -0.2420     -0.9830     -2.2040      1.7700     78.3900
    121     -0.3100     -1.4730     -0.9500      1.6800     78.3900
    122     -0.5500     -2.4310     -0.7650      0.0100     78.3900
    123     -0.0260     -0.9090     -0.1700      0.0100     78.3900
    124      0.5290     -2.2860     -7.5970      1.7700     78.3900
    125      1.3570     -2.2300     -6.8680      0.0100     78.3900
    126      0.8040     -1.4680     -8.7200      1.5900     78.3900
    127      1.6720     -1.7410     -9.0510      0.0100     78.3900
    128      0.2770     -3.7410     -7.9870      1.7700     78.3900
    129      0.3400     -4.4030     -7.0940      0.0100     78.3900
    130      1.0950     -4.2240     -9.0780      1.5900     78.3900
    131      2.5620     -4.7880     -8.8810      2.1000     78.3900
    132      3.1740     -4.9620    -10.2160      1.5900     78.3900
    133      2.5110     -6.0000     -8.0340      1.5900     78.3900
    134      3.3770     -3.7090     -8.0860      1.5900     78.3900
    135      4.3620     -2.8370     -8.6910      1.7700     78.3900
    136      4.0470     -2.5340     -9.7170      0.0100     78.3900
    137      5.3360     -3.3740     -8.7890      0.0100     78.3900
    138      4.5860     -1.5230     -7.8970      1.7700     78.3900
    139      4.7180     -0.6780     -8.6010      0.0100     78.3900
    140      3.4120     -1.2130     -7.0970      1.5900     78.3900
    141      3.7820     -0.7190     -5.8300      1.7700     78.3900
    142      3.2210      0.2390     -5.7260      0.0100     78.3900
    143      3.4040     -1.6170     -4.6990      1.6800     78.3900
    144      2.9920     -2.9200     -4.8870      1.7700     78.3900
    145      2.9750     -3.2760     -5.9160      0.0100     78.3900
    146      2.6270     -3.6920     -3.8510      1.7700     78.3900
    147      2.2800     -4.7160     -3.9780      0.0100     78.3900
    148      3.4410     -1.0910     -3.4140      1.7700     78.3900
    149      3.7710      0.0930     -3.2650      1.5900     78.3900
    150      3.1320     -1.8660     -2.3570      1.6800     78.3900
    151      2.7060     -3.1230     -2.5440      1.7700     78.3900
    152      2.3580     -3.8300     -1.4750      1.6800     78.3900
    153      2.4130     -3.3900     -0.5800      0.0100     78.3900
    154      2.0440     -4.7820     -1.5410      0.0100     78.3900
    155      5.2660     -0.4270     -5.8870      1.7700     78.3900
    156      5.7740     -0.5560     -4.9060      0.0100     78.3900
    157      5.4690      0.8920     -6.3630      1.5900     78.3900
    158      6.4000      0.9620     -6.6210      0.0100     78.3900
    159      5.7530     -1.4620     -6.8940      1.7700     78.3900
    160      5.8080     -2.4680     -6.4170      0.0100     78.3900
    161      6.9690     -1.0590     -7.5600      1.5900     78.3900
    162      8.2980     -1.8750     -7.4180      2.1000     78.3900
    163      9.2640     -1.3740     -8.4170      1.5900     78.3900
    164      7.9820     -3.3190     -7.4420      1.5900     78.3900
    165      8.8190     -1.5100     -5.9840      1.5900     78.3900
    166      9.5290     -0.2880     -5.6770      1.7700     78.3900
    167      9.0070      0.6020     -6.1030      0.0100     78.3900
    168     10.5550     -0.3130     -6.1110      0.0100     78.3900
    169      9.6590     -0.0770     -4.1540      1.7700     78.3900
    170     10.0990      0.9190     -3.9300      0.0100     78.3900
    171      8.3290     -0.1200     -3.5480      1.5900     78.3900
    172      8.4110     -0.7450     -2.2740      1.7700     78.3900
    173      8.0140      0.0120     -1.5570      0.0100     78.3900
    174      7.5900     -1.9880     -2.1800      1.6800     78.3900
    175      7.1880     -2.6640     -3.3080      1.7700     78.3900
    176      7.4960     -2.2190     -4.2530      0.0100     78.3900
    177      7.2210     -2.4340     -0.9280      1.7700     78.3900
    178      7.5490     -1.8570      0.1020      1.5900     78.3900
    179      6.4430     -3.5630     -0.9130      1.6800     78.3900
    180      6.2160     -3.9380     -0.0050      0.0100     78.3900
    181      6.0360     -4.3080     -1.9970      1.7700     78.3900
    182      5.3640     -5.3250     -1.8370      1.5900     78.3900
    183      6.4420     -3.7780     -3.2630      1.7700     78.3900
    184      6.1380     -4.3030     -4.1660      0.0100     78.3900
    185      9.8880     -0.9670     -1.9770      1.7700     78.3900
    186     10.0640     -1.8660     -1.3490      0.0100     78.3900
    187     10.4470      0.1790     -1.3570      1.5900     78.3900
    188     11.3310     -0.0920     -1.0700      0.0100     78.3900
    189     10.4690     -1.1380     -3.3730      1.7700     78.3900
[...]
   377   12   1.0   0.00    0.0    0.000000    0.293055    0.309772
   378   12   6.0   0.38    0.7    0.006148    0.137022    0.116966
   379   12   1.0   0.00    0.0    0.000000    0.215307    0.232373
   380   12   8.0  18.58   40.6    0.090947   -0.827104   -0.835178
   381   12   1.0   0.00    0.0    0.000000    0.495163    0.502139
   382   12   6.0   1.01    1.8   -0.026080    0.126919    0.098819
   383   12   1.0   0.00    0.0    0.000000    0.231360    0.238021
   384   12   8.0   6.21   13.6    0.066905   -0.800039   -0.803865
   385   12  15.0   9.45   11.8    0.123662    1.607555    1.658659
   386   12   8.0  18.29   40.0    0.365152   -0.898009   -0.890255
   387   12   8.0  14.94   32.7    0.321948   -0.899643   -0.896143
   388   12   8.0   2.29    5.0    0.028579   -0.967911   -0.782141
   389   13   6.0  12.24   21.6   -0.087442    0.169602   -0.038971
   390   13   1.0   0.00    0.0    0.000000    0.214695    0.197550
   391   13   1.0   0.00    0.0    0.000000    0.232162    0.221488
   392   13   6.0   5.66   10.0   -0.048710    0.100949    0.165601
   393   13   1.0   0.00    0.0    0.000000    0.245748    0.221285
   394   13   8.0   2.81    6.1    0.030130   -0.725434   -0.735633
   395   13   6.0   3.45    6.1   -0.028646    0.436855    0.439137
   396   13   1.0   0.00    0.0    0.000000    0.246503    0.241672
   397   13   7.0   0.00    0.0    0.000000   -0.827806   -0.840029
   398   13   6.0   3.21    5.7   -0.004204    0.167375    0.157731
   399   13   1.0   0.00    0.0    0.000000    0.319171    0.333507
   400   13   6.0   9.77   17.2   -0.047319   -0.386957   -0.393770
   401   13   1.0   0.00    0.0    0.000000    0.265432    0.270882
   402   13   6.0   0.00    0.0    0.000000    1.053196    1.070324
   403   13   8.0   7.52   16.4    0.133559   -0.787969   -0.764682
   404   13   7.0   0.00    0.0    0.000985   -0.859691   -0.857167
   405   13   6.0   0.44    0.8   -0.001001    0.737361    0.752881
   406   13   7.0  12.63   24.7   -0.087901   -0.937080   -1.012749
   407   13   1.0   0.00    0.0    0.000000    0.460013    0.516999
   408   13   1.0   0.00    0.0    0.000000    0.442933    0.440407
   409   13   6.0   0.00    0.0   -0.000000    0.124020    0.106580
   410   13   1.0   0.00    0.0    0.000000    0.206680    0.221137
   411   13   8.0  15.58   34.1    0.125225   -0.841936   -0.843800
   412   13   1.0   0.00    0.0    0.000000    0.510170    0.509293
   413   13   6.0   3.39    6.0   -0.039863    0.154112    0.128766
   414   13   1.0   0.00    0.0    0.000000    0.230632    0.239021
   415   13   8.0   5.92   12.9    0.079502   -0.786455   -0.789267
   416   13  15.0   7.09    8.9    0.101280    1.587386    1.648905
   417   13   8.0  17.17   37.5    0.355372   -0.898113   -0.887153
   418   13   8.0  12.83   28.1    0.275440   -0.897334   -0.906146
   419   13   8.0   0.73    1.6   -0.000632   -0.968655   -0.792403
   420   14   6.0  14.92   26.3   -0.096891    0.172046   -0.018843
   421   14   1.0   0.00    0.0    0.000000    0.224543    0.207964
   422   14   1.0   0.00    0.0    0.000000    0.237806    0.215267
   423   14   6.0   7.56   13.3   -0.051688    0.112139    0.166853
   424   14   1.0   0.00    0.0    0.000000    0.236312    0.219606
   425   14   8.0   5.83   12.7    0.063739   -0.707426   -0.719649
   426   14   6.0   4.46    7.9   -0.033964    0.395043    0.395554
   427   14   1.0   0.00    0.0    0.000000    0.258200    0.253496
   428   14   7.0   0.75    1.5    0.001729   -0.807653   -0.813384
   429   14   6.0   3.81    6.7   -0.010145    0.180543    0.173452
   430   14   1.0   0.00    0.0    0.000000    0.321259    0.325449
   431   14   6.0   8.54   15.1   -0.046450   -0.415792   -0.419373
   432   14   1.0   0.00    0.0    0.000000    0.270078    0.274899
   433   14   6.0   2.84    5.0    0.000889    1.023860    1.039693
   434   14   8.0  10.71   23.4    0.161954   -0.765960   -0.759648
   435   14   7.0   0.00    0.0    0.000000   -0.815609   -0.818666
   436   14   6.0   1.89    3.3    0.000763    0.704693    0.713452
   437   14   7.0  10.07   19.7   -0.099590   -0.914917   -0.974293
   438   14   1.0   0.00    0.0    0.000000    0.443711    0.487004
   439   14   1.0   0.00    0.0    0.000000    0.437182    0.436378
   440   14   6.0   7.72   13.6   -0.073599    0.123894    0.124206
   441   14   1.0   0.00    0.0    0.000000    0.218887    0.219405
   442   14   8.0  20.59   45.0    0.046593   -0.836866   -0.838212
   443   14   1.0   0.00    0.0    0.000000    0.501749    0.502532
   444   14   6.0   4.99    8.8   -0.055290    0.150508    0.132651
   445   14   1.0   0.00    0.0    0.000000    0.202599    0.210046
   446   14   8.0  22.47   49.1    0.005142   -0.852194   -0.853192
   447   14   1.0   0.00    0.0    0.000000    0.505425    0.506688

 Done with FMO properties.
 CPU     0: STEP CPU TIME=     0.00 TOTAL CPU TIME=      28043.2 (    467.4 MIN)
 TOTAL WALL CLOCK TIME=      39259.9 SECONDS, CPU UTILIZATION IS    71.43%
 CPU     0: STEP CPU TIME=     0.00 TOTAL CPU TIME=      28043.2 (    467.4 MIN)
 TOTAL WALL CLOCK TIME=      39259.9 SECONDS, CPU UTILIZATION IS    71.43%

 Total timing statistics in pairs (CPU,wall) for each rank, sec

    Rank   total     SCF    corr     DFT    CPHF     EFP    solv     ESP    geom
 -------------------------------------------------------------------------------
       1   28043.2   7591.4  11112.6      0.0    0.0   0.0  303.5  8404.2    0.0
       1   39259.9  11765.8  13797.0      0.0    0.0   0.0  960.8 11584.2    0.0
       2   28295.1   7616.9  11175.6      0.0    0.0   0.0  303.2  8558.2    0.0
       2   39259.9  11765.7  13797.2      0.0    0.0   0.0  960.1 11584.0    0.0
       3   28189.2   7608.6  11148.7      0.0    0.0   0.0  303.5  8484.7    0.0
       3   39259.9  11766.5  13797.2      0.0    0.0   0.0  959.1 11583.8    0.0
       4   27773.5   7574.7  11016.1      0.0    0.0   0.0  301.8  8241.5    0.0
       4   39259.9  11766.7  13797.1      0.0    0.0   0.0  959.6 11583.9    0.0
       5   27814.4   7626.0  10917.6      0.0    0.0   0.0  302.4  8349.6    0.0
       5   39259.9  11766.9  13797.1      0.0    0.0   0.0  959.6 11583.6    0.0
       6   26325.2   7491.5   9418.6      0.0    0.0   0.0  302.0  8487.5    0.0
       6   39259.9  11767.3  13797.1      0.0    0.0   0.0  959.4 11583.6    0.0
       7   26009.8   7408.2   9328.0      0.0    0.0   0.0  303.2  8378.1    0.0
       7   39259.9  11768.0  13797.1      0.0    0.0   0.0  958.5 11583.5    0.0
       8   28328.3   7678.2  11217.6      0.0    0.0   0.0  301.9  8480.1    0.0
       8   39259.9  11765.3  13797.2      0.0    0.0   0.0  961.2 11584.0    0.0
       9   28583.5   7767.8  11065.0      0.0    0.0   0.0  302.1  8806.2    0.0
       9   39259.9  11766.9  13797.2      0.0    0.0   0.0  959.3 11583.6    0.0
      10   28833.4   7814.0  11032.0      0.0    0.0   0.0  302.9  9050.9    0.0
      10   39259.9  11766.7  13797.2      0.0    0.0   0.0  958.9 11583.6    0.0
      11   28212.8   7742.6  10881.4      0.0    0.0   0.0  301.2  8647.0    0.0
      11   39259.9  11769.0  13797.1      0.0    0.0   0.0  957.2 11583.5    0.0
      12   27449.2   7653.3  10324.9      0.0    0.0   0.0  302.3  8579.2    0.0
      12   39259.9  11768.2  13797.1      0.0    0.0   0.0  958.0 11583.3    0.0
      13   27697.5   7560.3  10519.4      0.0    0.0   0.0  302.4  8690.6    0.0
      13   39259.9  11768.1  13797.1      0.0    0.0   0.0  958.1 11583.3    0.0
      14   26251.7   7509.1   9176.0      0.0    0.0   0.0  302.5  8675.0    0.0
      14   39259.9  11768.3  13797.1      0.0    0.0   0.0  957.6 11583.1    0.0
averaged   27700.5   7617.3  10595.2      0.0    0.0   0.0  302.5  8559.5    0.0
averaged   39259.9  11767.1  13797.1      0.0    0.0   0.0  959.1 11583.6    0.0

  FMO  timing statistics in pairs (CPU,wall) for each rank, sec

    Rank  FMOini FMOscf1  FMOdm1 FMOsyn1 FMOscf2  FMOes2 FMOsyn2 FMOscf3 FMOsyn3
 -------------------------------------------------------------------------------
       1    2.7    9892.8    0.4    0.0   17696.6     450.6    0.0    0.0    0.0
       1    9.8   16332.0    1.0    0.1   22342.0     574.8    0.0    0.0    0.0
       2    2.3   10176.3    0.2    0.0   17651.3     464.9    0.0    0.0    0.0
       2    9.8   16332.0    1.0    0.1   22341.9     575.0    0.0    0.0    0.0
       3    2.2   10191.3    0.1    0.0   17526.7     468.9    0.0    0.0    0.0
       3    9.8   16332.0    1.0    0.1   22342.1     574.8    0.0    0.0    0.0
       4    2.5    9896.6    0.3    0.0   17411.4     462.6    0.0    0.0    0.0
       4    9.8   16332.0    1.0    0.1   22342.1     574.8    0.0    0.0    0.0
       5    2.2   10161.3    0.1    0.0   17206.1     444.6    0.0    0.0    0.0
       5    9.8   16332.0    1.0    0.1   22342.3     574.6    0.0    0.0    0.0
       6    2.4   10619.9    0.2    0.0   15252.3     450.3    0.0    0.0    0.0
       6    9.8   16332.0    1.0    0.1   22342.2     574.7    0.0    0.0    0.0
       7    2.1   10483.1    0.1    0.0   15106.2     418.2    0.0    0.0    0.0
       7    9.8   16332.0    1.0    0.1   22342.5     574.3    0.0    0.0    0.0
       8    2.3   10161.8    0.3    0.0   17689.4     474.5    0.0    0.0    0.0
       8    9.8   16332.0    1.0    0.1   22341.9     575.0    0.0    0.0    0.0
       9    2.1   10673.5    0.2    0.0   17439.3     468.4    0.0    0.0    0.0
       9    9.8   16332.0    1.0    0.1   22342.4     574.5    0.0    0.0    0.0
      10    2.0   10976.1    0.2    0.0   17395.2     459.9    0.0    0.0    0.0
      10    9.8   16332.0    1.0    0.1   22342.6     574.3    0.0    0.0    0.0
      11    2.3   10480.6    0.3    0.0   17263.4     466.1    0.0    0.0    0.0
      11    9.8   16332.0    1.0    0.1   22342.1     574.8    0.0    0.0    0.0
      12    2.0   10561.9    0.1    0.0   16467.8     417.3    0.0    0.0    0.0
      12    9.8   16332.0    1.0    0.1   22342.3     574.6    0.0    0.0    0.0
      13    2.2   10615.7    0.2    0.0   16628.0     451.4    0.0    0.0    0.0
      13    9.8   16332.0    1.0    0.1   22342.2     574.7    0.0    0.0    0.0
      14    2.0   10800.3    0.1    0.0   15033.2     416.1    0.0    0.0    0.0
      14    9.8   16332.0    1.0    0.1   22342.5     574.4    0.0    0.0    0.0
averaged    2.2   10406.5    0.2    0.0   16840.5     451.0    0.0    0.0    0.0
averaged    9.8   16332.0    1.0    0.1   22342.2     574.7    0.0    0.0    0.0
             62761352  WORDS OF DYNAMIC MEMORY USED
 EXECUTION OF GAMESS TERMINATED NORMALLY Fri Aug  2 09:32:26 2019
 DDI: 263640 bytes (0.3 MB / 0 MWords) used by master data server.

 ----------------------------------------
 CPU timing information for all processes
 ========================================
 0: 27387.215 + 655.993 = 28043.209
 1: 27655.88 + 640.109 = 28295.197
 2: 27555.517 + 633.726 = 28189.243
 3: 27128.114 + 645.408 = 27773.522
 4: 27217.134 + 597.340 = 27814.475
 5: 25772.775 + 552.533 = 26325.309
 6: 25450.500 + 559.427 = 26009.928
 7: 27686.223 + 642.55 = 28328.278
 8: 27975.672 + 607.871 = 28583.544
 9: 28224.185 + 609.327 = 28833.513
 10: 27588.237 + 624.599 = 28212.836
 11: 26877.702 + 571.541 = 27449.243
 12: 27078.779 + 618.770 = 27697.549
 13: 25713.729 + 538.35 = 26251.764
 ----------------------------------------
 ddikick.x: exited gracefully.
----- accounting info -----
Files used on the master node gollum073.lsa.umich.edu were:
-rw-r--r-- 1 afrankz frank    21846 Aug  1 22:38 /scratch/afrankz/839414/2KOC_18/usrc/2KOC_18_minimized_charmm.F05
-rw-r--r-- 1 afrankz frank      634 Aug  2 09:32 /scratch/afrankz/839414/2KOC_18/usrc/2KOC_18_minimized_charmm.F06.001
-rw-r--r-- 1 afrankz frank      634 Aug  2 09:32 /scratch/afrankz/839414/2KOC_18/usrc/2KOC_18_minimized_charmm.F06.002
-rw-r--r-- 1 afrankz frank      634 Aug  2 09:32 /scratch/afrankz/839414/2KOC_18/usrc/2KOC_18_minimized_charmm.F06.003
-rw-r--r-- 1 afrankz frank      634 Aug  2 09:32 /scratch/afrankz/839414/2KOC_18/usrc/2KOC_18_minimized_charmm.F06.004
-rw-r--r-- 1 afrankz frank      634 Aug  2 09:32 /scratch/afrankz/839414/2KOC_18/usrc/2KOC_18_minimized_charmm.F06.005
-rw-r--r-- 1 afrankz frank      634 Aug  2 09:32 /scratch/afrankz/839414/2KOC_18/usrc/2KOC_18_minimized_charmm.F06.006
-rw-r--r-- 1 afrankz frank      634 Aug  2 09:32 /scratch/afrankz/839414/2KOC_18/usrc/2KOC_18_minimized_charmm.F06.007
-rw-r--r-- 1 afrankz frank      634 Aug  2 09:32 /scratch/afrankz/839414/2KOC_18/usrc/2KOC_18_minimized_charmm.F06.008
-rw-r--r-- 1 afrankz frank      634 Aug  2 09:32 /scratch/afrankz/839414/2KOC_18/usrc/2KOC_18_minimized_charmm.F06.009
-rw-r--r-- 1 afrankz frank      634 Aug  2 09:32 /scratch/afrankz/839414/2KOC_18/usrc/2KOC_18_minimized_charmm.F06.010
-rw-r--r-- 1 afrankz frank      634 Aug  2 09:32 /scratch/afrankz/839414/2KOC_18/usrc/2KOC_18_minimized_charmm.F06.011
-rw-r--r-- 1 afrankz frank      634 Aug  2 09:32 /scratch/afrankz/839414/2KOC_18/usrc/2KOC_18_minimized_charmm.F06.012
-rw-r--r-- 1 afrankz frank      634 Aug  2 09:32 /scratch/afrankz/839414/2KOC_18/usrc/2KOC_18_minimized_charmm.F06.013
-rw-r--r-- 1 afrankz frank    16994 Aug  2 09:32 /scratch/afrankz/839414/2KOC_18/usrc/2KOC_18_minimized_charmm.F07
-rw-r--r-- 1 afrankz frank        0 Aug  1 22:38 /scratch/afrankz/839414/2KOC_18/usrc/2KOC_18_minimized_charmm.F07.001
-rw-r--r-- 1 afrankz frank        0 Aug  1 22:38 /scratch/afrankz/839414/2KOC_18/usrc/2KOC_18_minimized_charmm.F07.002
-rw-r--r-- 1 afrankz frank        0 Aug  1 22:38 /scratch/afrankz/839414/2KOC_18/usrc/2KOC_18_minimized_charmm.F07.003
-rw-r--r-- 1 afrankz frank        0 Aug  1 22:38 /scratch/afrankz/839414/2KOC_18/usrc/2KOC_18_minimized_charmm.F07.004
-rw-r--r-- 1 afrankz frank        0 Aug  1 22:38 /scratch/afrankz/839414/2KOC_18/usrc/2KOC_18_minimized_charmm.F07.005
-rw-r--r-- 1 afrankz frank        0 Aug  1 22:38 /scratch/afrankz/839414/2KOC_18/usrc/2KOC_18_minimized_charmm.F07.006
-rw-r--r-- 1 afrankz frank        0 Aug  1 22:38 /scratch/afrankz/839414/2KOC_18/usrc/2KOC_18_minimized_charmm.F07.007
-rw-r--r-- 1 afrankz frank        0 Aug  1 22:38 /scratch/afrankz/839414/2KOC_18/usrc/2KOC_18_minimized_charmm.F07.008
-rw-r--r-- 1 afrankz frank        0 Aug  1 22:38 /scratch/afrankz/839414/2KOC_18/usrc/2KOC_18_minimized_charmm.F07.009
-rw-r--r-- 1 afrankz frank        0 Aug  1 22:38 /scratch/afrankz/839414/2KOC_18/usrc/2KOC_18_minimized_charmm.F07.010
-rw-r--r-- 1 afrankz frank        0 Aug  1 22:38 /scratch/afrankz/839414/2KOC_18/usrc/2KOC_18_minimized_charmm.F07.011
-rw-r--r-- 1 afrankz frank        0 Aug  1 22:38 /scratch/afrankz/839414/2KOC_18/usrc/2KOC_18_minimized_charmm.F07.012
-rw-r--r-- 1 afrankz frank        0 Aug  1 22:38 /scratch/afrankz/839414/2KOC_18/usrc/2KOC_18_minimized_charmm.F07.013
-rw-r--r-- 1 afrankz frank    65440 Aug  2 09:32 /scratch/afrankz/839414/2KOC_18/usrc/2KOC_18_minimized_charmm.F10.000
-rw-r--r-- 1 afrankz frank        0 Aug  1 22:38 /scratch/afrankz/839414/2KOC_18/usrc/2KOC_18_minimized_charmm.F26.000
-rw-r--r-- 1 afrankz frank        0 Aug  1 22:38 /scratch/afrankz/839414/2KOC_18/usrc/2KOC_18_minimized_charmm.F26.001
-rw-r--r-- 1 afrankz frank        0 Aug  1 22:38 /scratch/afrankz/839414/2KOC_18/usrc/2KOC_18_minimized_charmm.F26.002
-rw-r--r-- 1 afrankz frank        0 Aug  1 22:38 /scratch/afrankz/839414/2KOC_18/usrc/2KOC_18_minimized_charmm.F26.003
-rw-r--r-- 1 afrankz frank        0 Aug  1 22:38 /scratch/afrankz/839414/2KOC_18/usrc/2KOC_18_minimized_charmm.F26.004
-rw-r--r-- 1 afrankz frank        0 Aug  1 22:38 /scratch/afrankz/839414/2KOC_18/usrc/2KOC_18_minimized_charmm.F26.005
-rw-r--r-- 1 afrankz frank        0 Aug  1 22:38 /scratch/afrankz/839414/2KOC_18/usrc/2KOC_18_minimized_charmm.F26.006
-rw-r--r-- 1 afrankz frank        0 Aug  1 22:38 /scratch/afrankz/839414/2KOC_18/usrc/2KOC_18_minimized_charmm.F26.007
-rw-r--r-- 1 afrankz frank        0 Aug  1 22:38 /scratch/afrankz/839414/2KOC_18/usrc/2KOC_18_minimized_charmm.F26.008
-rw-r--r-- 1 afrankz frank        0 Aug  1 22:38 /scratch/afrankz/839414/2KOC_18/usrc/2KOC_18_minimized_charmm.F26.009
-rw-r--r-- 1 afrankz frank        0 Aug  1 22:38 /scratch/afrankz/839414/2KOC_18/usrc/2KOC_18_minimized_charmm.F26.010
-rw-r--r-- 1 afrankz frank        0 Aug  1 22:38 /scratch/afrankz/839414/2KOC_18/usrc/2KOC_18_minimized_charmm.F26.011
-rw-r--r-- 1 afrankz frank        0 Aug  1 22:38 /scratch/afrankz/839414/2KOC_18/usrc/2KOC_18_minimized_charmm.F26.012
-rw-r--r-- 1 afrankz frank        0 Aug  1 22:38 /scratch/afrankz/839414/2KOC_18/usrc/2KOC_18_minimized_charmm.F26.013
-rw-r--r-- 1 afrankz frank        0 Aug  1 22:38 /scratch/afrankz/839414/2KOC_18/usrc/2KOC_18_minimized_charmm.F27.000
-rw-r--r-- 1 afrankz frank        0 Aug  1 22:38 /scratch/afrankz/839414/2KOC_18/usrc/2KOC_18_minimized_charmm.F27.001
-rw-r--r-- 1 afrankz frank        0 Aug  1 22:38 /scratch/afrankz/839414/2KOC_18/usrc/2KOC_18_minimized_charmm.F27.002
-rw-r--r-- 1 afrankz frank        0 Aug  1 22:38 /scratch/afrankz/839414/2KOC_18/usrc/2KOC_18_minimized_charmm.F27.003
-rw-r--r-- 1 afrankz frank        0 Aug  1 22:38 /scratch/afrankz/839414/2KOC_18/usrc/2KOC_18_minimized_charmm.F27.004
-rw-r--r-- 1 afrankz frank        0 Aug  1 22:38 /scratch/afrankz/839414/2KOC_18/usrc/2KOC_18_minimized_charmm.F27.005
-rw-r--r-- 1 afrankz frank        0 Aug  1 22:38 /scratch/afrankz/839414/2KOC_18/usrc/2KOC_18_minimized_charmm.F27.006
-rw-r--r-- 1 afrankz frank        0 Aug  1 22:38 /scratch/afrankz/839414/2KOC_18/usrc/2KOC_18_minimized_charmm.F27.007
-rw-r--r-- 1 afrankz frank        0 Aug  1 22:38 /scratch/afrankz/839414/2KOC_18/usrc/2KOC_18_minimized_charmm.F27.008
-rw-r--r-- 1 afrankz frank        0 Aug  1 22:38 /scratch/afrankz/839414/2KOC_18/usrc/2KOC_18_minimized_charmm.F27.009
-rw-r--r-- 1 afrankz frank        0 Aug  1 22:38 /scratch/afrankz/839414/2KOC_18/usrc/2KOC_18_minimized_charmm.F27.010
-rw-r--r-- 1 afrankz frank        0 Aug  1 22:38 /scratch/afrankz/839414/2KOC_18/usrc/2KOC_18_minimized_charmm.F27.011
-rw-r--r-- 1 afrankz frank        0 Aug  1 22:38 /scratch/afrankz/839414/2KOC_18/usrc/2KOC_18_minimized_charmm.F27.012
-rw-r--r-- 1 afrankz frank        0 Aug  1 22:38 /scratch/afrankz/839414/2KOC_18/usrc/2KOC_18_minimized_charmm.F27.013
-rw-r--r-- 1 afrankz frank 28655616 Aug  2 03:10 /scratch/afrankz/839414/2KOC_18/usrc/2KOC_18_minimized_charmm.F40.000
-rw-r--r-- 1 afrankz frank 28655616 Aug  2 03:10 /scratch/afrankz/839414/2KOC_18/usrc/2KOC_18_minimized_charmm.F40.001
-rw-r--r-- 1 afrankz frank 28655616 Aug  2 03:10 /scratch/afrankz/839414/2KOC_18/usrc/2KOC_18_minimized_charmm.F40.002
-rw-r--r-- 1 afrankz frank 28655616 Aug  2 03:10 /scratch/afrankz/839414/2KOC_18/usrc/2KOC_18_minimized_charmm.F40.003
-rw-r--r-- 1 afrankz frank 28655616 Aug  2 03:10 /scratch/afrankz/839414/2KOC_18/usrc/2KOC_18_minimized_charmm.F40.004
-rw-r--r-- 1 afrankz frank 28655616 Aug  2 03:10 /scratch/afrankz/839414/2KOC_18/usrc/2KOC_18_minimized_charmm.F40.005
-rw-r--r-- 1 afrankz frank 28655616 Aug  2 03:10 /scratch/afrankz/839414/2KOC_18/usrc/2KOC_18_minimized_charmm.F40.006
-rw-r--r-- 1 afrankz frank 28655616 Aug  2 03:10 /scratch/afrankz/839414/2KOC_18/usrc/2KOC_18_minimized_charmm.F40.007
-rw-r--r-- 1 afrankz frank 28655616 Aug  2 03:10 /scratch/afrankz/839414/2KOC_18/usrc/2KOC_18_minimized_charmm.F40.008
-rw-r--r-- 1 afrankz frank 28655616 Aug  2 03:10 /scratch/afrankz/839414/2KOC_18/usrc/2KOC_18_minimized_charmm.F40.009
-rw-r--r-- 1 afrankz frank 28655616 Aug  2 03:10 /scratch/afrankz/839414/2KOC_18/usrc/2KOC_18_minimized_charmm.F40.010
-rw-r--r-- 1 afrankz frank 28655616 Aug  2 03:10 /scratch/afrankz/839414/2KOC_18/usrc/2KOC_18_minimized_charmm.F40.011
-rw-r--r-- 1 afrankz frank 28655616 Aug  2 03:10 /scratch/afrankz/839414/2KOC_18/usrc/2KOC_18_minimized_charmm.F40.012
-rw-r--r-- 1 afrankz frank 28655616 Aug  2 03:10 /scratch/afrankz/839414/2KOC_18/usrc/2KOC_18_minimized_charmm.F40.013
Fri Aug  2 09:32:30 EDT 2019
0.202u 0.132s 10:54:29.06 0.0%	0+0k 24+160io 0pf+0w
