----- GAMESS execution script 'rungms' -----
This job is running on host gollum062.lsa.umich.edu
under operating system Linux at Fri Dec 6 00:44:06 EST 2019
Available scratch disk space (Kbyte units) at beginning of the job is
Filesystem     1K-blocks  Used Available Use% Mounted on
/dev/sda4      426933580 33468 426900112   1% /scratch
GAMESS temporary binary files will be written to /scratch/hazwong/820844/2LBJ_6/usrc
GAMESS supplementary output files will be written to /scratch/hazwong/820844/2LBJ_6/src
Copying input file 2LBJ_6_fmo_input.inp to your run's scratch directory...
This is a GDDI run, keeping various output files on local disks
 
Assuming a single but multicore node.
 

 Distributed Data Interface kickoff program.
 Initiating 16 compute processes on 1 nodes to run the following command:
 /export/apps/CentOS7/gamess/src/build//gamess.R3.x 2LBJ_6_fmo_input 

          ******************************************************
          *         GAMESS VERSION = 30 SEP 2018 (R3)         *
          *             FROM IOWA STATE UNIVERSITY             *
          * M.W.SCHMIDT, K.K.BALDRIDGE, J.A.BOATZ, S.T.ELBERT, *
          *   M.S.GORDON, J.H.JENSEN, S.KOSEKI, N.MATSUNAGA,   *
          *          K.A.NGUYEN, S.J.SU, T.L.WINDUS,           *
          *       TOGETHER WITH M.DUPUIS, J.A.MONTGOMERY       *
          *         J.COMPUT.CHEM.  14, 1347-1363(1993)        *
          **************** 64 BIT LINUX VERSION ****************

  SINCE 1993, STUDENTS AND POSTDOCS WORKING AT IOWA STATE UNIVERSITY
  AND ALSO IN THEIR VARIOUS JOBS AFTER LEAVING ISU HAVE MADE IMPORTANT
  CONTRIBUTIONS TO THE CODE:
     IVANA ADAMOVIC, CHRISTINE AIKENS, YURI ALEXEEV, POOJA ARORA,
     ANDREY ASADCHEV, ROB BELL, PRADIPTA BANDYOPADHYAY, JONATHAN BENTZ,
     BRETT BODE, KURT BRORSEN, CALEB CARLIN, GALINA CHABAN, WEI CHEN,
     CHEOL HO CHOI, PAUL DAY, ALBERT DEFUSCO, NUWAN DESILVA, TIM DUDLEY,
     DMITRI FEDOROV, ALEX FINDLATER, GRAHAM FLETCHER, MARK FREITAG,
     KURT GLAESEMANN, ANASTASIA GUNINA,
     DAN KEMP, GRANT MERRILL, NORIYUKI MINEZAWA, JONATHAN MULLIN,
     TAKESHI NAGATA, SEAN NEDD, HEATHER NETZLOFF, BOSILJKA NJEGIC, RYAN OLSON,
     MIKE PAK, BUU PHAM,
     SPENCER PRUITT, LUKE ROSKOP, JIM SHOEMAKER, LYUDMILA SLIPCHENKO,
     TONY SMITH, SAROM SOK LEANG, JIE SONG, TETSUYA TAKETSUGU, SIMON WEBB,
     PENG XU, SOOHAENG YOO, FEDERICO ZAHARIEV

  ADDITIONAL CODE HAS BEEN PROVIDED BY COLLABORATORS IN OTHER GROUPS:
     IOWA STATE UNIVERSITY:
          JOE IVANIC, AARON WEST, LAIMUTIS BYTAUTAS, KLAUS RUEDENBERG
     UNIVERSITY OF TOKYO: KIMIHIKO HIRAO, TAKAHITO NAKAJIMA,
          TAKAO TSUNEDA, MUNEAKI KAMIYA, SUSUMU YANAGISAWA,
          KIYOSHI YAGI, MAHITO CHIBA, SEIKEN TOKURA, NAOAKI KAWAKAMI
     UNIVERSITY OF AARHUS: FRANK JENSEN
     UNIVERSITY OF IOWA: VISVALDAS KAIRYS, HUI LI
     NATIONAL INST. OF STANDARDS AND TECHNOLOGY: WALT STEVENS, DAVID GARMER
     UNIVERSITY OF PISA: BENEDETTA MENNUCCI, JACOPO TOMASI
     UNIVERSITY OF MEMPHIS: HENRY KURTZ, PRAKASHAN KORAMBATH
     UNIVERSITY OF ALBERTA: TOBY ZENG, MARIUSZ KLOBUKOWSKI
     UNIVERSITY OF NEW ENGLAND: MARK SPACKMAN
     MIE UNIVERSITY: HIROAKI UMEDA
     NAT. INST. OF ADVANCED INDUSTRIAL SCIENCE AND TECHNOLOGY: KAZUO KITAURA
     MICHIGAN STATE UNIVERSITY:
          KAROL KOWALSKI, MARTA WLOCH, JEFFREY GOUR, JESSE LUTZ,
          WEI LI, JUN SHEN, J. EMILIANO DEUSTUA, PIOTR PIECUCH
     UNIVERSITY OF MINNESOTA:
          YINAN SHU
     UNIVERSITY OF SILESIA: MONIKA MUSIAL, STANISLAW KUCHARSKI
     FACULTES UNIVERSITAIRES NOTRE-DAME DE LA PAIX:
          OLIVIER QUINET, BENOIT CHAMPAGNE
     UNIVERSITY OF CALIFORNIA - SANTA BARBARA: BERNARD KIRTMAN
     INSTITUTE FOR MOLECULAR SCIENCE:
          KAZUYA ISHIMURA, MICHIO KATOUDA, AND SHIGERU NAGASE
     UNIVERSITY OF NOTRE DAME: ANNA POMOGAEVA, DAN CHIPMAN
     KYUSHU UNIVERSITY:
          HARUYUKI NAKANO,
          FENG LONG GU, JACEK KORCHOWIEC, MARCIN MAKOWSKI, AND YURIKO AOKI,
          HIROTOSHI MORI AND EISAKU MIYOSHI
     PENNSYLVANIA STATE UNIVERSITY:
          TZVETELIN IORDANOV, CHET SWALINA, JONATHAN SKONE,
          SHARON HAMMES-SCHIFFER
     WASEDA UNIVERSITY:
          MASATO KOBAYASHI, TOMOKO AKAMA, TSUGUKI TOUMA,
          TAKESHI YOSHIKAWA, YASUHIRO IKABATA, JUNJI SEINO,
          YUYA NAKAJIMA, HIROMI NAKAI
     NANJING UNIVERSITY: SHUHUA LI
     UNIVERSITY OF NEBRASKA:
          PEIFENG SU, DEJUN SI, NANDUN THELLAMUREGE, YALI WANG, HUI LI
     UNIVERSITY OF ZURICH: ROBERTO PEVERATI, KIM BALDRIDGE
     N. COPERNICUS UNIVERSITY AND JACKSON STATE UNIVERSITY:
          MARIA BARYSZ
     UNIVERSITY OF COPENHAGEN: Jimmy Kromann, CASPER STEINMANN
     TOKYO INSTITUTE OF TECHNOLOGY: HIROYA NAKATA
     NAGOYA UNIVERSITY: YOSHIO NISHIMOTO, STEPHAN IRLE
     MOSCOW STATE UNIVERSITY: VLADIMIR MIRONOV


 PARALLEL VERSION RUNNING ON       16 PROCESSORS IN        1 NODES.

 EXECUTION OF GAMESS BEGUN Fri Dec  6 00:44:07 2019

            ECHO OF THE FIRST FEW INPUT CARDS -
 INPUT CARD>!*** FMO 5.3 (Gamess) INPUT generated by Facio 22.1.1.32 ***                    
 INPUT CARD> $CONTRL RUNTYP=ENERGY NPRINT=-5 ISPHER=1 MAXIT=200 $END                        
 INPUT CARD> $SYSTEM MWORDS=63 MEMDDI=63 $END                                               
 INPUT CARD> $GDDI NGROUP=1 $END                                                            
 INPUT CARD> $SCF DIRSCF=.TRUE. NPUNCH=0 $END                                               
 INPUT CARD>!*** NumCPU : 2  MemPerNode : 512MB                                             
 INPUT CARD> $PCM SOLVNT=WATER IEF=-10 ICOMP=2 ICAV=1 IDISP=1 IFMO=-1 $END                  
 INPUT CARD> $PCMCAV RADII=SUAHF $END                                                       
 INPUT CARD> $TESCAV NTSALL=60 $END                                                         
 INPUT CARD> $FMOPRP                                                                        
 INPUT CARD>    NAODIR=200                                                                  
 INPUT CARD>    NGRFMO(1)=1, 1, 0, 0, 0,   0, 0, 0, 0, 0                                    
 INPUT CARD>    IPIEDA=1                                                                    
 INPUT CARD>    NPRINT=9                                                                    
 INPUT CARD> $END                                                                           
 INPUT CARD> $FMO                                                                           
 INPUT CARD>      SCFTYP(1)=RHF                                                             
 INPUT CARD>      MODGRD=10                                                                 
 INPUT CARD>      MODMUL=0                                                                  
 INPUT CARD>      MAXCAO=5                                                                  
 INPUT CARD>      MAXBND=13                                                                 
 INPUT CARD>      NLAYER=1                                                                  
 INPUT CARD>      MPLEVL(1)=2                                                               
 INPUT CARD>      NFRAG=11                                                                  
 INPUT CARD>      ICHARG(1)=-1, -1, -1, -1, -1, -1, -1, -1, -1, -1, 0                       
 INPUT CARD>      FRGNAM(1)=F1, F2, F3, F4, F5, F6, F7, F8, F9, F10, F11                    
 INPUT CARD>      indat(1)=0                                                                
 INPUT CARD>               1   -33   0                                                      
 INPUT CARD>               34   -64   0                                                     
 INPUT CARD>               65   -94   0                                                     
 INPUT CARD>               95   -124   0                                                    
 INPUT CARD>               125   -158   0                                                   
 INPUT CARD>               159   -189   0                                                   
 INPUT CARD>               190   -220   0                                                   
 INPUT CARD>               221   -253   0                                                   
 INPUT CARD>               254   -286   0                                                   
 INPUT CARD>               287   -320   0                                                   
 INPUT CARD>               321   -351   0                                                   
 INPUT CARD> $END                                                                           
 INPUT CARD>                                                                                
 INPUT CARD> $FMOBND                                                                        
 INPUT CARD>   -34   33       6-31G*    MINI                                                
 INPUT CARD>   -65   64       6-31G*    MINI                                                
 INPUT CARD>   -95   94       6-31G*    MINI                                                
 INPUT CARD>   -125   124       6-31G*    MINI                                              
 INPUT CARD>   -159   158       6-31G*    MINI                                              
 INPUT CARD>   -190   189       6-31G*    MINI                                              
 INPUT CARD>   -221   220       6-31G*    MINI                                              
 INPUT CARD>   -254   253       6-31G*    MINI                                              
 INPUT CARD>   -287   286       6-31G*    MINI                                              


 -------------------------------------------------------------
 GROUP DDI, PROGRAMMED BY: RYAN M. OLSON AND DMITRI G. FEDOROV
        FEDOROV ET AL., J. COMPUT. CHEM., 25 (2004) 872.
 -------------------------------------------------------------

 -------------------------------------------------------
 GDDI: INITIALIZATION COMPLETED FOR GROUP     1 OF     1
 WITH    16 PROCESSES BALTYP=DLB   global rank=        0
 -------------------------------------------------------

   63000000 WORDS OF MEMORY AVAILABLE


     RUN TITLE
     ---------
  FMO calculation                                                                

 THE POINT GROUP OF THE MOLECULE IS C1      
 THE ORDER OF THE PRINCIPAL AXIS IS     0

 ATOM   ATOMIC CHARGE
 H.1-1       1.0
 O.1-1       8.0
 C.1-1       6.0
 N.1-1       7.0
 P.1-1      15.0

     ATOMIC BASIS SET LIBRARY
     ----------------
 THE CONTRACTED PRIMITIVE FUNCTIONS HAVE BEEN UNNORMALIZED
 THE CONTRACTED BASIS FUNCTIONS ARE NOW NORMALIZED TO UNITY

  SHELL TYPE  PRIMITIVE        EXPONENT          CONTRACTION COEFFICIENT(S)

 H.1-1     

      1   S       1            18.7311370    0.033494604338
      1   S       2             2.8253944    0.234726953484
      1   S       3             0.6401217    0.813757326146

      2   S       4             0.1612778    1.000000000000

 O.1-1     

      3   S       5          5484.6716600    0.001831074430
      3   S       6           825.2349460    0.013950172200
      3   S       7           188.0469580    0.068445078098
      3   S       8            52.9645000    0.232714335992
      3   S       9            16.8975704    0.470192897984
      3   S      10             5.7996353    0.358520852987

      4   L      11            15.5396162   -0.110777549525    0.070874268231
      4   L      12             3.5999336   -0.148026262701    0.339752839147
      4   L      13             1.0137618    1.130767015354    0.727158577316

      5   L      14             0.2700058    1.000000000000    1.000000000000

      6   D      15             0.8000000    1.000000000000

 C.1-1     

      7   S      16          3047.5248800    0.001834737132
      7   S      17           457.3695180    0.014037322813
      7   S      18           103.9486850    0.068842622264
      7   S      19            29.2101553    0.232184443216
      7   S      20             9.2866630    0.467941348435
      7   S      21             3.1639270    0.362311985337

      8   L      22             7.8682723   -0.119332419775    0.068999066591
      8   L      23             1.8812885   -0.160854151696    0.316423960957
      8   L      24             0.5442493    1.143456437840    0.744308290898

      9   L      25             0.1687145    1.000000000000    1.000000000000

     10   D      26             0.8000000    1.000000000000

 N.1-1     

     11   S      27          4173.5114600    0.001834772160
     11   S      28           627.4579110    0.013994627002
     11   S      29           142.9020930    0.068586551812
     11   S      30            40.2343293    0.232240873040
     11   S      31            12.8202129    0.469069948082
     11   S      32             4.3904370    0.360455199063

     12   L      33            11.6263619   -0.114961181702    0.067579743878
     12   L      34             2.7162798   -0.169117478561    0.323907295893
     12   L      35             0.7722184    1.145851947027    0.740895139755

     13   L      36             0.2120315    1.000000000000    1.000000000000

     14   D      37             0.8000000    1.000000000000

 P.1-1     

     15   S      38         19413.3000000    0.001851598923
     15   S      39          2909.4200000    0.014206191735
     15   S      40           661.3640000    0.069999459277
     15   S      41           185.7590000    0.240078860331
     15   S      42            59.1943000    0.484761717984
     15   S      43            20.0310000    0.335199804993

     16   L      44           339.4780000   -0.002782170105    0.004564616191
     16   L      45            81.0101000   -0.036049901354    0.033693571881
     16   L      46            25.8780000   -0.116631004382    0.139754883368
     16   L      47             9.4522100    0.096832803638    0.339361716786
     16   L      48             3.6656600    0.614418023082    0.450920623685
     16   L      49             1.4674600    0.403798015170    0.238585800889

     17   L      50             2.1562300   -0.252924113863   -0.017765312733
     17   L      51             0.7489970    0.032851844678    0.274058196433
     17   L      52             0.2831450    1.081254761783    0.785421562957

     18   L      53             0.0998317    1.000000000000    1.000000000000

     19   D      54             0.5500000    1.000000000000

 TOTAL NUMBER OF BASIS SET SHELLS             =   19
 NUMBER OF CARTESIAN GAUSSIAN BASIS FUNCTIONS =   66

     $CONTRL OPTIONS
     ---------------
 SCFTYP=RHF          RUNTYP=ENERGY       EXETYP=RUN     
 MPLEVL=       0     CITYP =NONE         CCTYP =NONE         VBTYP =NONE    
 DFTTYP=NONE         TDDFT =NONE    
 MULT  =       1     ICHARG=       0     NZVAR =       0     COORD =UNIQUE  
 PP    =NONE         RELWFN=NONE         LOCAL =NONE         NUMGRD=       F
 ISPHER=       1     NOSYM =       0     MAXIT =     200     UNITS =ANGS    
 PLTORB=       F     MOLPLT=       F     AIMPAC=       F     FRIEND=        
 NPRINT=      -5     IREST =       0     GEOM  =INPUT   
 NORMF =       0     NORMP =       0     ITOL  =      24     ICUT  =      12
 INTTYP=BEST         GRDTYP=BEST         QMTTOL= 1.0E-06

     $SYSTEM OPTIONS
     ---------------
  REPLICATED MEMORY=    63000000 WORDS (ON EVERY NODE).
 DISTRIBUTED MEMDDI=          63 MILLION WORDS IN AGGREGATE,
 MEMDDI DISTRIBUTED OVER  16 PROCESSORS IS     3937500 WORDS/PROCESSOR.
 TOTAL MEMORY REQUESTED ON EACH PROCESSOR=    66937500 WORDS.
 TIMLIM=      525600.00 MINUTES, OR     365.0 DAYS.
 PARALL= T  BALTYP=  DLB     KDIAG=    0  COREFL= F
 MXSEQ2=     300 MXSEQ3=     150  mem10=         0

 ** LOOKING UP INTERNALLY STORED DATA FOR SOLVENT=WATER    **
 OPTICAL AND PHYSICAL CONSTANTS:
 EPS= 78.390; EPSINF=  1.776; RSOLV=  1.385 A; VMOL=  18.070 ML/MOL;
 TCE= .25700E-03 1/K; STEN= 71.810 DYN/CM;  DSTEN=  0.6500; CMF=  1.2770


     -----------------------------------
     INPUT FOR PCM SOLVATION CALCULATION 
     -----------------------------------
     IEF   =     -10
     ICOMP =       2     IFIELD=       0     ICAV  =       1
     IDISP =       1     IREP  =       0     IDP   =       0

     SOLVNT=WATER        EPS   = 78.3900     EPSINF=  1.7760
     VMOL  = 18.0700     TCE   =  0.00025700 STEN  = 71.8100
     DSTEN =  0.6500     CMF   =  1.2770     RSOLV =  1.3850

     NESFP =       0
     OMEGA = 40.0000     RET   =100.0000     FRO   =  0.7000

     TABS  =298.0000     IPRINT=       0

     --------------------------------
     INPUT FOR ITERATIVE C-PCM METHOD 
     --------------------------------
     IPCMIT  =         1     MXDIIS  =        50
     MXITR1  =       200     MXITR2  =       200
     THRES   = 0.100E-09     IMUL    =         3
     RCUT(1) =   20.0000     RCUT(2) =   50.0000

     IDIRCT  =         1
     IMGABI  =         0     RABI    =    4.0000
     IMGASC  =         0     RASC    =   20.0000
     THRSLS  = 0.500E-03     DENSLS  =    0.0100
     IEFPOL  =         1     REFPOL  =    0.0000

     INPUT FOR ISOTROPIC DIELECTRICS
     -------------------------------
     EPS=    78.39

          ----------------
          PROPERTIES INPUT
          ----------------

     MOMENTS            FIELD           POTENTIAL          DENSITY
 IEMOM =       1   IEFLD =       0   IEPOT =       0   IEDEN =       0
 WHERE =COMASS     WHERE =NUCLEI     WHERE =NUCLEI     WHERE =NUCLEI  
 OUTPUT=BOTH       OUTPUT=BOTH       OUTPUT=NONE       OUTPUT=BOTH    
 IEMINT=       0   IEFINT=       0                     IEDINT=       0
                                                       MORB  =       0
          EXTRAPOLATION IN EFFECT
          SOSCF IN EFFECT
 ORBITAL PRINTING OPTION: NPREO=     1 32767     2     1

     -------------------------------
     INTEGRAL TRANSFORMATION OPTIONS
     -------------------------------
     NWORD  =            0
     CUTOFF = 1.0E-10     MPTRAN =       0
     DIRTRF =       T     AOINTS =DUP     

          ----------------------
          INTEGRAL INPUT OPTIONS
          ----------------------
 NOPK  =       1 NORDER=       0 SCHWRZ=       T

 ..... DONE SETTING UP THE RUN .....
 CPU     0: STEP CPU TIME=     0.04 TOTAL CPU TIME=          0.0 (      0.0 MIN)
 TOTAL WALL CLOCK TIME=          0.1 SECONDS, CPU UTILIZATION IS    40.00%
 CPU     0: STEP CPU TIME=     0.00 TOTAL CPU TIME=          0.0 (      0.0 MIN)
 TOTAL WALL CLOCK TIME=          0.1 SECONDS, CPU UTILIZATION IS    40.00%

                    ----------------------
                    AO INTEGRAL TECHNOLOGY
                    ----------------------
     S,P,L SHELL ROTATED AXIS INTEGRALS, REPROGRAMMED BY
        KAZUYA ISHIMURA (IMS) AND JOSE SIERRA (SYNSTAR).
     S,P,D,L SHELL ROTATED AXIS INTEGRALS PROGRAMMED BY
        KAZUYA ISHIMURA (INSTITUTE FOR MOLECULAR SCIENCE).
     S,P,D,F,G SHELL TO TOTAL QUARTET ANGULAR MOMENTUM SUM 5,
        ERIC PROGRAM BY GRAHAM FLETCHER (ELORET AND NASA ADVANCED
        SUPERCOMPUTING DIVISION, AMES RESEARCH CENTER).
     S,P,D,F,G,L SHELL GENERAL RYS QUADRATURE PROGRAMMED BY
        MICHEL DUPUIS (PACIFIC NORTHWEST NATIONAL LABORATORY).
 Setting modorb=1 flag...
 Setting modorb=1 flag...

          -----------------------
          MP2 CONTROL INFORMATION
          -----------------------
          NACORE =        8  NBCORE =        8
          LMOMP2 =        F  AOINTS = DUP     
          METHOD =        2  NWORD  =               0
          MP2PRP =        F  OSPT   = NONE    
          CUTOFF = 1.00E-12  CPHFBS = BASISAO 
          CODE   = IMS     

          NUMBER OF CORE -A-  ORBITALS =     8
          NUMBER OF CORE -B-  ORBITALS =     8
          NUMBER OF OCC. -A-  ORBITALS =    18
          NUMBER OF OCC. -B-  ORBITALS =    18
          NUMBER OF MOLECULAR ORBITALS =    66
          NUMBER OF   BASIS  FUNCTIONS =    66

 CPU     0: STEP CPU TIME=     0.03 TOTAL CPU TIME=          0.1 (      0.0 MIN)
 TOTAL WALL CLOCK TIME=          0.2 SECONDS, CPU UTILIZATION IS    46.67%
 CPU     0: STEP CPU TIME=     0.00 TOTAL CPU TIME=          0.1 (      0.0 MIN)
 TOTAL WALL CLOCK TIME=          0.2 SECONDS, CPU UTILIZATION IS    46.67%

     INPUT FOR CAVITY DEFINITION 
     ---------------------------
   ATOM               COORDINATES                RADIUS       EPS
      1      6.5970     10.9830     17.1790      0.0100     78.3900
      2      6.6720     11.1670     16.2230      1.5900     78.3900
      3      5.3420     11.1280     15.6870      1.7700     78.3900
      4      4.7260     11.8830     16.2240      0.0100     78.3900
      5      4.9040     10.1300     15.8940      0.0100     78.3900
      6      5.2400     11.3920     14.1720      1.7700     78.3900
      7      4.1980     11.6790     13.9030      0.0100     78.3900
      8      6.1040     12.4970     13.7670      1.5900     78.3900
      9      6.7710     12.1670     12.5500      1.7700     78.3900
     10      6.5380     12.9990     11.8500      0.0100     78.3900
     11      8.2550     12.0660     12.6990      1.6800     78.3900
     12      8.8240     12.0190     13.9510      1.7700     78.3900
     13      8.1410     12.0810     14.7970      0.0100     78.3900
     14     10.1490     11.9320     14.1210      1.7700     78.3900
     15     10.6060     11.8960     15.1070      0.0100     78.3900
     16      9.0780     12.0410     11.5680      1.7700     78.3900
     17      8.5700     12.1160     10.4420      1.5900     78.3900
     18     10.4230     11.9520     11.7240      1.6800     78.3900
     19     10.9620     11.8990     12.9540      1.7700     78.3900
     20     12.2870     11.8330     13.0840      1.6800     78.3900
     21     12.8670     11.8690     12.2670      0.0100     78.3900
     22     12.7270     11.8240     13.9890      0.0100     78.3900
     23      6.1500     10.8850     12.0160      1.7700     78.3900
     24      6.8870     10.2430     11.4890      0.0100     78.3900
     25      5.0800     11.1790     11.1400      1.5900     78.3900
     26      4.6440     10.3340     10.9540      0.0100     78.3900
     27      5.6510     10.2060     13.2860      1.7700     78.3900
     28      6.5010      9.7140     13.8110      0.0100     78.3900
     29      4.5190      9.3330     13.0770      1.5900     78.3900
     30      4.6140      7.7740     13.2080      2.1000     78.3900
     31      3.2450      7.2180     13.3130      1.5900     78.3900
     32      5.5550      7.4390     14.2960      1.5900     78.3900
     33      5.2580      7.3230     11.8470      1.5900     78.3900
     34      4.5030      7.2220     10.6200      1.7700     78.3900
     35      3.7510      8.0420     10.5300      0.0100     78.3900
     36      3.9500      6.2570     10.6130      0.0100     78.3900
     37      5.4020      7.2670      9.3600      1.7700     78.3900
     38      4.7860      7.4590      8.4520      0.0100     78.3900
     39      6.3690      8.3510      9.4560      1.5900     78.3900
     40      7.6300      7.9160      8.9550      1.7700     78.3900
     41      7.8910      8.6390      8.1470      0.0100     78.3900
     42      8.7080      7.9390      9.9860      1.6800     78.3900
     43      8.3830      7.9580     11.3180      1.7700     78.3900
     44      7.3240      7.9900     11.5480      0.0100     78.3900
     45      9.3190      7.9860     12.2740      1.7700     78.3900
     46      9.0670      8.0220     13.3310      0.0100     78.3900
     47     10.0510      7.9200      9.6020      1.7700     78.3900
     48     10.3380      7.8910      8.4010      1.5900     78.3900
     49     11.0160      7.9340     10.5560      1.6800     78.3900
     50     10.6810      7.9800     11.8570      1.7700     78.3900
     51     11.6440      8.0330     12.7760      1.6800     78.3900
     52     12.5920      8.0500     12.4600      0.0100     78.3900
     53     11.4510      8.0390     13.7560      0.0100     78.3900
     54      7.4390      6.5420      8.3360      1.7700     78.3900
     55      8.3250      5.8840      8.4750      0.0100     78.3900
     56      7.1470      6.6520      6.9560      1.5900     78.3900
     57      6.9550      5.7490      6.6740      0.0100     78.3900
     58      6.2370      6.0000      9.1070      1.7700     78.3900
     59      6.5540      5.6310     10.1090      0.0100     78.3900
     60      5.4360      5.0410      8.3840      1.5900     78.3900
     61      5.7730      3.5140      8.3950      2.1000     78.3900
     62      4.6150      2.8020      7.8110      1.5900     78.3900
     63      6.1560      3.1370      9.7750      1.5900     78.3900
     64      7.0150      3.3750      7.4490      1.5900     78.3900
     65      6.9090      3.4450      6.0080      1.7700     78.3900
     66      6.7850      4.4980      5.6670      0.0100     78.3900
     67      6.0370      2.8600      5.6330      0.0100     78.3900
     68      8.1690      2.8900      5.3310      1.7700     78.3900
     69      8.1080      2.9940      4.2260      0.0100     78.3900
     70      9.3380      3.6480      5.7810      1.5900     78.3900
     71     10.4440      2.7720      5.9110      1.7700     78.3900
     72     11.2310      3.1880      5.2380      0.0100     78.3900
     73     10.9490      2.7070      7.3070      1.6800     78.3900
     74     10.0790      2.8100      8.3670      1.7700     78.3900
     75      9.0340      2.8950      8.0990      0.0100     78.3900
     76     12.3030      2.5830      7.5190      1.7700     78.3900
     77     13.1150      2.4700      6.6010      1.5900     78.3900
     78     12.6780      2.5930      8.8370      1.6800     78.3900
     79     13.6770      2.6850      8.9900      0.0100     78.3900
     80     11.8770      2.8150      9.9380      1.7700     78.3900
     81     12.3680      2.9210     11.0610      1.5900     78.3900
     82     10.4840      2.8870      9.6400      1.7700     78.3900
     83      9.7850      3.0520     10.4560      0.0100     78.3900
     84     10.0000      1.4350      5.3830      1.7700     78.3900
     85     10.4990      0.5860      5.8940      0.0100     78.3900
     86     10.2650      1.4060      3.9960      1.5900     78.3900
     87     10.8850      0.6590      3.8950      0.0100     78.3900
     88      8.5070      1.4270      5.6530      1.7700     78.3900
     89      8.3040      1.2810      6.7340      0.0100     78.3900
     90      7.7270      0.5230      4.8380      1.5900     78.3900
     91      7.8660     -1.0510      4.9300      2.1000     78.3900
     92      7.0900     -1.6660      3.8300      1.5900     78.3900
     93      7.5250     -1.5070      6.3000      1.5900     78.3900
     94      9.3850     -1.4040      4.6800      1.5900     78.3900
     95      9.9000     -1.5670      3.3320      1.7700     78.3900
     96      9.5240     -0.7500      2.6690      0.0100     78.3900
     97      9.5480     -2.5320      2.9010      0.0100     78.3900
     98     11.4490     -1.5360      3.2510      1.7700     78.3900
     99     11.7460     -1.2430      2.2210      0.0100     78.3900
    100     12.0030     -0.5310      4.1480      1.5900     78.3900
    101     13.1860     -0.9720      4.7490      1.7700     78.3900
    102     13.9480     -0.1880      4.5180      0.0100     78.3900
    103     13.0340     -1.1260      6.2430      1.6800     78.3900
    104     11.8510     -1.5580      6.8020      1.7700     78.3900
    105     11.0750     -1.8350      6.0920      0.0100     78.3900
    106     14.1120     -0.8240      7.0530      1.7700     78.3900
    107     15.2050     -0.5080      6.6020      1.5900     78.3900
    108     13.8690     -0.8970      8.4070      1.6800     78.3900
    109     14.6100     -0.6220      9.0290      0.0100     78.3900
    110     12.6900     -1.2380      9.0250      1.7700     78.3900
    111     12.6120     -1.2110     10.2500      1.5900     78.3900
    112     11.6410     -1.6150      8.1270      1.7700     78.3900
    113     10.6880     -1.9320      8.5450      0.0100     78.3900
    114     13.5620     -2.2390      4.0260      1.7700     78.3900
    115     14.0880     -2.8680      4.7150      0.0100     78.3900
    116     14.4150     -1.9720      2.9300      1.5900     78.3900
    117     13.8880     -1.6170      2.2010      0.0100     78.3900
    118     12.2080     -2.8180      3.6000      1.7700     78.3900
    119     11.6750     -3.2740      4.4630      0.0100     78.3900
    120     12.2190     -3.7020      2.4620      1.5900     78.3900
    121     13.0050     -5.0730      2.4630      2.1000     78.3900
    122     14.4480     -4.8310      2.2020      1.5900     78.3900
    123     12.3480     -5.9660      1.4920      1.5900     78.3900
    124     12.7880     -5.6870      3.9050      1.5900     78.3900
    125     13.7880     -6.5520      4.5130      1.7700     78.3900
    126     14.0590     -7.3980      3.8450      0.0100     78.3900
    127     13.3340     -6.9880      5.4310      0.0100     78.3900
    128     15.0600     -5.8110      4.9650      1.7700     78.3900
    129     15.6540     -5.4630      4.0950      0.0100     78.3900
    130     14.6360     -4.6590      5.6700      1.5900     78.3900
    131     15.6050     -4.2080      6.5620      1.7700     78.3900
    132     15.9460     -3.2100      6.2080      0.0100     78.3900
    133     14.9950     -4.0920      7.8900      1.6800     78.3900
    134     15.5630     -3.6340      9.0430      1.7700     78.3900
    135     18.3990     -2.8330     10.8150      1.6800     78.3900
    136     18.6870     -2.7090     11.7610      0.0100     78.3900
    137     19.0620     -2.7350     10.0720      0.0100     78.3900
    138     16.8270     -3.2010      9.1870      1.6800     78.3900
    139     17.1420     -3.0260     10.4620      1.7700     78.3900
    140     16.2190     -3.0480     11.4830      1.6800     78.3900
    141     16.5100     -2.8160     12.4120      0.0100     78.3900
    142     14.8710     -3.3650     11.3370      1.7700     78.3900
    143     14.0970     -3.3730     12.2990      1.5900     78.3900
    144     14.5680     -3.7290     10.0020      1.7700     78.3900
    145     13.3900     -4.2260      9.4570      1.6800     78.3900
    146     13.6870     -4.4130      8.2010      1.7700     78.3900
    147     13.0000     -4.7860      7.4370      0.0100     78.3900
    148     16.7320     -5.2050      6.4950      1.7700     78.3900
    149     17.1640     -5.3760      7.4890      0.0100     78.3900
    150     17.7670     -4.7720      5.6300      1.5900     78.3900
    151     18.3690     -5.5200      5.5100      0.0100     78.3900
    152     16.0190     -6.4550      5.9600      1.7700     78.3900
    153     15.4070     -6.9400      6.7500      0.0100     78.3900
    154     16.8600     -7.3890      5.2780      1.5900     78.3900
    155     17.9960     -8.1930      6.0010      2.1000     78.3900
    156     19.2820     -7.7900      5.3980      1.5900     78.3900
    157     17.6150     -9.6220      5.9390      1.5900     78.3900
    158     17.9710     -7.7560      7.5120      1.5900     78.3900
    159     19.1080     -7.1050      8.1330      1.7700     78.3900
    160     19.5160     -6.2970      7.4780      0.0100     78.3900
    161     19.9240     -7.8440      8.2970      0.0100     78.3900
    162     18.7850     -6.4500      9.5000      1.7700     78.3900
    163     19.3440     -5.4910      9.5990      0.0100     78.3900
    164     17.3650     -6.1490      9.6110      1.5900     78.3900
    165     16.8700     -6.4970     10.8780      1.7700     78.3900
    166     16.3770     -5.5790     11.2590      0.0100     78.3900
    167     15.8230     -7.5270     10.8690      1.6800     78.3900
    168     15.4110     -8.0620      9.6770      1.7700     78.3900
    169     15.9490     -7.7330      8.7850      0.0100     78.3900
    170     14.4160     -8.9530      9.6270      1.7700     78.3900
    171     14.0840     -9.3980      8.6940      0.0100     78.3900
    172     15.1610     -7.8560     12.0560      1.7700     78.3900
    173     15.4780     -7.2930     13.1100      1.5900     78.3900
    174     14.1690     -8.7720     12.0250      1.6800     78.3900
    175     13.7960     -9.3190     10.8580      1.7700     78.3900
    176     12.8210    -10.2210     10.8610      1.6800     78.3900
    177     12.3990    -10.4660     11.7360      0.0100     78.3900
    178     12.4680    -10.6260     10.0170      0.0100     78.3900
    179     18.0460     -6.8330     11.7280      1.7700     78.3900
    180     17.8510     -7.5920     12.5140      0.0100     78.3900
    181     18.4490     -5.6340     12.3050      1.5900     78.3900
    182     18.9610     -5.1520     11.6500      0.0100     78.3900
    183     19.0910     -7.3120     10.7300      1.7700     78.3900
    184     18.8930     -8.3690     10.4410      0.0100     78.3900
    185     20.4690     -7.1180     11.1260      1.5900     78.3900
    186     20.9910     -7.6140     12.5370      2.1000     78.3900
    187     22.4370     -7.8870     12.4100      1.5900     78.3900
    188     20.1540     -8.7400     13.0100      1.5900     78.3900
    189     20.8340     -6.3830     13.5220      1.5900     78.3900
    190     21.2560     -5.0660     13.0920      1.7700     78.3900
    191     20.7390     -4.7370     12.1610      0.0100     78.3900
    192     22.3470     -5.0780     12.8600      0.0100     78.3900
    193     21.0320     -3.9770     14.1640      1.7700     78.3900
    194     21.6670     -3.1320     13.8360      0.0100     78.3900
    195     19.6530     -3.4860     14.1850      1.5900     78.3900
    196     19.1460     -3.4790     15.5280      1.7700     78.3900
    197     19.3320     -2.4640     15.9250      0.0100     78.3900
    198     17.6770     -3.7500     15.6190      1.6800     78.3900
    199     17.0580     -4.2880     14.5410      1.7700     78.3900
    200     17.6730     -4.3350     13.6730      0.0100     78.3900
    201     15.7690     -4.6190     14.5300      1.7700     78.3900
    202     15.2890     -5.0430     13.6520      0.0100     78.3900
    203     16.9250     -3.4870     16.7600      1.7700     78.3900
    204     17.4870     -2.9760     17.7400      1.5900     78.3900
    205     15.5960     -3.7940     16.7840      1.6800     78.3900
    206     15.0210     -4.3560     15.7000      1.7700     78.3900
    207     13.7250     -4.6610     15.7100      1.6800     78.3900
    208     13.2800     -5.0590     14.9060      0.0100     78.3900
    209     13.1670     -4.4320     16.5050      0.0100     78.3900
    210     19.9790     -4.5020     16.2810      1.7700     78.3900
    211     19.5980     -5.5240     16.0530      0.0100     78.3900
    212     20.0190     -4.2990     17.6870      1.5900     78.3900
    213     19.2370     -3.7800     17.9400      0.0100     78.3900
    214     21.3630     -4.3380     15.6270      1.7700     78.3900
    215     21.8530     -5.3360     15.6210      0.0100     78.3900
    216     22.2600     -3.4050     16.2550      1.5900     78.3900
    217     22.1100     -1.8590     16.4860      2.1000     78.3900
    218     23.4060     -1.3580     17.0110      1.5900     78.3900
    219     20.9320     -1.5490     17.3110      1.5900     78.3900
    220     21.8670     -1.2000     15.0750      1.5900     78.3900
    221     22.9030     -0.4830     14.3710      1.7700     78.3900
    222     23.8550     -1.0640     14.3670      0.0100     78.3900
    223     23.1070      0.4820     14.8940      0.0100     78.3900
    224     22.5610     -0.1410     12.9000      1.7700     78.3900
    225     23.4660     -0.2290     12.2630      0.0100     78.3900
    226     21.5520     -1.0320     12.3370      1.5900     78.3900
    227     20.6360     -0.2710     11.5690      1.7700     78.3900
    228     20.5870     -0.7590     10.5670      0.0100     78.3900
    229     19.3000     -0.2720     12.1700      1.6800     78.3900
    230     17.1230     -0.1350     12.4550      1.7700     78.3900
    231     17.6410     -0.6140     13.6500      1.6800     78.3900
    232     18.9340     -0.6820     13.4290      1.7700     78.3900
    233     19.6810     -1.0410     14.1400      0.0100     78.3900
    234     15.6240      0.3810     10.7010      1.6800     78.3900
    235     16.7040      0.5800      9.9430      1.7700     78.3900
    236     16.5020      0.8810      8.9090      0.0100     78.3900
    237     17.9950      0.4620     10.2570      1.6800     78.3900
    238     18.1360      0.0810     11.5360      1.7700     78.3900
    239     15.7990      0.0480     12.0050      1.7700     78.3900
    240     14.7280     -0.1170     12.8010      1.6800     78.3900
    241     14.8060     -0.3140     13.7800      0.0100     78.3900
    242     13.8170      0.0590     12.4280      0.0100     78.3900
    243     21.1870      1.1290     11.4270      1.7700     78.3900
    244     20.3870      1.8950     11.3820      0.0100     78.3900
    245     21.9940      1.2140     10.2680      1.5900     78.3900
    246     22.2120      2.1500     10.1200      0.0100     78.3900
    247     21.9980      1.2700     12.7100      1.7700     78.3900
    248     21.3240      1.4510     13.5780      0.0100     78.3900
    249     23.0920      2.2020     12.6440      1.5900     78.3900
    250     22.9210      3.7120     13.0180      2.1000     78.3900
    251     24.2460      4.2520     13.3840      1.5900     78.3900
    252     21.8470      3.8500     14.0260      1.5900     78.3900
    253     22.4570      4.3760     11.6750      1.5900     78.3900
    254     23.3230      4.4200     10.5220      1.7700     78.3900
    255     23.8110      3.4330     10.3410      0.0100     78.3900
    256     24.1300      5.1720     10.6730      0.0100     78.3900
    257     22.5360      4.7940      9.2620      1.7700     78.3900
    258     23.1960      4.8100      8.3700      0.0100     78.3900
    259     21.5250      3.7770      9.0230      1.5900     78.3900
    260     20.3360      4.3920      8.5740      1.7700     78.3900
    261     20.0820      3.9100      7.6000      0.0100     78.3900
    262     19.2400      4.1840      9.5170      1.6800     78.3900
    263     17.2620      3.8270     10.3960      1.7700     78.3900
    264     18.1360      3.9610     11.4640      1.6800     78.3900
    265     19.2920      4.1700     10.8890      1.7700     78.3900
    266     20.2260      4.3190     11.4250      0.0100     78.3900
    267     15.3210      3.4880      9.1010      1.6800     78.3900
    268     16.0900      3.6490      8.0220      1.7700     78.3900
    269     15.5750      3.5640      7.0570      0.0100     78.3900
    270     17.4040      3.8770      7.9580      1.6800     78.3900
    271     17.9310      3.9580      9.1910      1.7700     78.3900
    272     15.8780      3.5850     10.3340      1.7700     78.3900
    273     15.1100      3.4280     11.4280      1.6800     78.3900
    274     15.5130      3.3440     12.3440      0.0100     78.3900
    275     14.1520      3.1460     11.3120      0.0100     78.3900
    276     20.6240      5.8580      8.3450      1.7700     78.3900
    277     19.7520      6.5100      8.5710      0.0100     78.3900
    278     21.0340      6.0550      7.0110      1.5900     78.3900
    279     20.8980      7.0060      6.8430      0.0100     78.3900
    280     21.7750      6.1290      9.3110      1.7700     78.3900
    281     21.3960      6.2440     10.3500      0.0100     78.3900
    282     22.6650      7.2090      8.9320      1.5900     78.3900
    283     22.2260      8.7040      9.1360      2.1000     78.3900
    284     23.3860      9.5770      8.8520      1.5900     78.3900
    285     21.6020      8.8480     10.4680      1.5900     78.3900
    286     21.1260      8.9560      8.0440      1.5900     78.3900
    287     21.4410      9.1030      6.6410      1.7700     78.3900
    288     22.1420      8.3050      6.3000      0.0100     78.3900
    289     21.9470     10.0810      6.4670      0.0100     78.3900
    290     20.1700      9.0480      5.7590      1.7700     78.3900
    291     20.4250      8.8300      4.7000      0.0100     78.3900
    292     19.2630      8.0060      6.2140      1.5900     78.3900
    293     17.9220      8.4590      6.1640      1.7700     78.3900
    294     17.3760      7.7400      5.5130      0.0100     78.3900
    295     17.3010      8.4630      7.5050      1.6800     78.3900
    296     15.9700      8.2830      7.8050      1.7700     78.3900
    297     12.7040      7.7000      6.8070      1.6800     78.3900
    298     12.7810      7.6400      5.8170      0.0100     78.3900
    299     11.7980      7.6700      7.2370      0.0100     78.3900
    300     14.9770      8.0810      6.9200      1.6800     78.3900
    301     13.7880      7.9510      7.5170      1.7700     78.3900
    302     13.6110      8.0260      8.8750      1.6800     78.3900
    303     12.6830      7.9130      9.2520      0.0100     78.3900
    304     14.6200      8.2190      9.8100      1.7700     78.3900
    305     14.3940      8.2650     11.0250      1.5900     78.3900
    306     15.8880      8.3550      9.1840      1.7700     78.3900
    307     17.1380      8.5730      9.7450      1.6800     78.3900
    308     17.9420      8.6380      8.7130      1.7700     78.3900
    309     19.0150      8.8000      8.7760      0.0100     78.3900
    310     17.9230      9.8250      5.5100      1.7700     78.3900
    311     17.1590     10.5020      5.9470      0.0100     78.3900
    312     17.6980      9.7010      4.1220      1.5900     78.3900
    313     17.6960     10.6060      3.7790      0.0100     78.3900
    314     19.3390     10.3320      5.7950      1.7700     78.3900
    315     19.4060     10.7200      6.8360      0.0100     78.3900
    316     19.8720     11.2560      4.8240      1.5900     78.3900
    317     19.6350     12.7990      4.9360      2.1000     78.3900
    318     20.4220     13.4770      3.8830      1.5900     78.3900
    319     19.8840     13.2260      6.3280      1.5900     78.3900
    320     18.1040     12.9740      4.6090      1.5900     78.3900
    321     17.6120     12.8870      3.2500      1.7700     78.3900
    322     17.9220     11.9370      2.7590      0.0100     78.3900
    323     18.0190     13.7180      2.6330      0.0100     78.3900
    324     16.0780     12.9850      3.1980      1.7700     78.3900
    325     15.7000     12.8230      2.1650      0.0100     78.3900
    326     15.4800     11.9740      4.0550      1.5900     78.3900
    327     14.3590     12.5240      4.7340      1.7700     78.3900
    328     13.4860     11.8830      4.4670      0.0100     78.3900
    329     14.5500     12.4950      6.1960      1.6800     78.3900
    330     13.5780     12.3640      7.1590      1.7700     78.3900
    331     10.2560     11.9760      8.0850      1.6800     78.3900
    332      9.7730     12.0090      7.2100      0.0100     78.3900
    333      9.7210     11.9490      8.9320      0.0100     78.3900
    334     12.2530     12.2470      6.9450      1.6800     78.3900
    335     11.5680     12.1050      8.0850      1.7700     78.3900
    336     12.1580     12.1070      9.3200      1.6800     78.3900
    337     11.5630     12.0190     10.1290      0.0100     78.3900
    338     13.5150     12.2510      9.5720      1.7700     78.3900
    339     13.9580     12.2600     10.7260      1.5900     78.3900
    340     14.2550     12.3820      8.3670      1.7700     78.3900
    341     15.6200     12.5260      8.1700      1.6800     78.3900
    342     15.7470     12.5920      6.8690      1.7700     78.3900
    343     16.6930     12.7010      6.3430      0.0100     78.3900
    344     14.1250     13.9330      4.2040      1.7700     78.3900
    345     13.7990     14.6290      5.0090      0.0100     78.3900
    346     13.1550     13.9150      3.1690      1.5900     78.3900
    347     13.1510     14.7770      2.7170      0.0100     78.3900
    348     15.5120     14.3210      3.6960      1.7700     78.3900
    349     16.1500     14.6650      4.5400      0.0100     78.3900
    350     15.5060     15.2910      2.6310      1.5900     78.3900
    351     15.1560     16.1370      2.9600      0.0100     78.3900

     ----------------------------
     INPUT FOR TESSERA DEFINITION
     ----------------------------
     NTSALL  =        60     MTHALL  =         4
     MTHAUT  =         0     AUTFRE  =    2.0000
     NTSFRZ  =        60     KEEPSM  =         0
     AREAKP  =   10.0000     BONDRY  =    1.0000
     AREATL  =    0.0100

     SPHERE     INITS       METHOD
          1        60       FIXPVA
          2        60       FIXPVA
          3        60       FIXPVA
          4        60       FIXPVA
          5        60       FIXPVA
          6        60       FIXPVA
          7        60       FIXPVA
          8        60       FIXPVA
          9        60       FIXPVA
         10        60       FIXPVA
         11        60       FIXPVA
         12        60       FIXPVA
         13        60       FIXPVA
         14        60       FIXPVA
         15        60       FIXPVA
         16        60       FIXPVA
         17        60       FIXPVA
         18        60       FIXPVA
         19        60       FIXPVA
         20        60       FIXPVA
         21        60       FIXPVA
         22        60       FIXPVA
         23        60       FIXPVA
         24        60       FIXPVA
         25        60       FIXPVA
         26        60       FIXPVA
         27        60       FIXPVA
         28        60       FIXPVA
         29        60       FIXPVA
         30        60       FIXPVA
         31        60       FIXPVA
         32        60       FIXPVA
         33        60       FIXPVA
         34        60       FIXPVA
         35        60       FIXPVA
         36        60       FIXPVA
         37        60       FIXPVA
         38        60       FIXPVA
         39        60       FIXPVA
         40        60       FIXPVA
         41        60       FIXPVA
         42        60       FIXPVA
         43        60       FIXPVA
         44        60       FIXPVA
         45        60       FIXPVA
         46        60       FIXPVA
         47        60       FIXPVA
         48        60       FIXPVA
         49        60       FIXPVA
         50        60       FIXPVA
         51        60       FIXPVA
         52        60       FIXPVA
         53        60       FIXPVA
         54        60       FIXPVA
         55        60       FIXPVA
         56        60       FIXPVA
         57        60       FIXPVA
         58        60       FIXPVA
         59        60       FIXPVA
         60        60       FIXPVA
         61        60       FIXPVA
         62        60       FIXPVA
         63        60       FIXPVA
         64        60       FIXPVA
         65        60       FIXPVA
         66        60       FIXPVA
         67        60       FIXPVA
         68        60       FIXPVA
         69        60       FIXPVA
         70        60       FIXPVA
         71        60       FIXPVA
         72        60       FIXPVA
         73        60       FIXPVA
         74        60       FIXPVA
         75        60       FIXPVA
         76        60       FIXPVA
         77        60       FIXPVA
         78        60       FIXPVA
         79        60       FIXPVA
         80        60       FIXPVA
         81        60       FIXPVA
         82        60       FIXPVA
         83        60       FIXPVA
         84        60       FIXPVA
         85        60       FIXPVA
         86        60       FIXPVA
         87        60       FIXPVA
         88        60       FIXPVA
         89        60       FIXPVA
         90        60       FIXPVA
         91        60       FIXPVA
         92        60       FIXPVA
         93        60       FIXPVA
         94        60       FIXPVA
         95        60       FIXPVA
         96        60       FIXPVA
         97        60       FIXPVA
         98        60       FIXPVA
         99        60       FIXPVA
        100        60       FIXPVA
        101        60       FIXPVA
        102        60       FIXPVA
        103        60       FIXPVA
        104        60       FIXPVA
        105        60       FIXPVA
        106        60       FIXPVA
        107        60       FIXPVA
        108        60       FIXPVA
        109        60       FIXPVA
        110        60       FIXPVA
        111        60       FIXPVA
        112        60       FIXPVA
        113        60       FIXPVA
        114        60       FIXPVA
        115        60       FIXPVA
        116        60       FIXPVA
        117        60       FIXPVA
        118        60       FIXPVA
        119        60       FIXPVA
        120        60       FIXPVA
        121        60       FIXPVA
        122        60       FIXPVA
        123        60       FIXPVA
        124        60       FIXPVA
        125        60       FIXPVA
        126        60       FIXPVA
        127        60       FIXPVA
        128        60       FIXPVA
        129        60       FIXPVA
        130        60       FIXPVA
        131        60       FIXPVA
        132        60       FIXPVA
        133        60       FIXPVA
        134        60       FIXPVA
        135        60       FIXPVA
        136        60       FIXPVA
        137        60       FIXPVA
        138        60       FIXPVA
        139        60       FIXPVA
        140        60       FIXPVA
        141        60       FIXPVA
        142        60       FIXPVA
        143        60       FIXPVA
        144        60       FIXPVA
        145        60       FIXPVA
        146        60       FIXPVA
        147        60       FIXPVA
        148        60       FIXPVA
        149        60       FIXPVA
        150        60       FIXPVA
        151        60       FIXPVA
        152        60       FIXPVA
        153        60       FIXPVA
        154        60       FIXPVA
        155        60       FIXPVA
        156        60       FIXPVA
        157        60       FIXPVA
        158        60       FIXPVA
        159        60       FIXPVA
        160        60       FIXPVA
        161        60       FIXPVA
        162        60       FIXPVA
        163        60       FIXPVA
        164        60       FIXPVA
        165        60       FIXPVA
        166        60       FIXPVA
        167        60       FIXPVA
        168        60       FIXPVA
        169        60       FIXPVA
        170        60       FIXPVA
        171        60       FIXPVA
        172        60       FIXPVA
        173        60       FIXPVA
        174        60       FIXPVA
        175        60       FIXPVA
        176        60       FIXPVA
        177        60       FIXPVA
        178        60       FIXPVA
        179        60       FIXPVA
        180        60       FIXPVA
        181        60       FIXPVA
        182        60       FIXPVA
        183        60       FIXPVA
        184        60       FIXPVA
        185        60       FIXPVA
        186        60       FIXPVA
        187        60       FIXPVA
        188        60       FIXPVA
        189        60       FIXPVA
        190        60       FIXPVA
        191        60       FIXPVA
        192        60       FIXPVA
        193        60       FIXPVA
        194        60       FIXPVA
        195        60       FIXPVA
        196        60       FIXPVA
        197        60       FIXPVA
        198        60       FIXPVA
        199        60       FIXPVA
        200        60       FIXPVA
        201        60       FIXPVA
        202        60       FIXPVA
        203        60       FIXPVA
        204        60       FIXPVA
        205        60       FIXPVA
        206        60       FIXPVA
        207        60       FIXPVA
        208        60       FIXPVA
        209        60       FIXPVA
        210        60       FIXPVA
        211        60       FIXPVA
        212        60       FIXPVA
        213        60       FIXPVA
        214        60       FIXPVA
        215        60       FIXPVA
        216        60       FIXPVA
        217        60       FIXPVA
        218        60       FIXPVA
        219        60       FIXPVA
        220        60       FIXPVA
        221        60       FIXPVA
        222        60       FIXPVA
        223        60       FIXPVA
        224        60       FIXPVA
        225        60       FIXPVA
        226        60       FIXPVA
        227        60       FIXPVA
        228        60       FIXPVA
        229        60       FIXPVA
        230        60       FIXPVA
        231        60       FIXPVA
        232        60       FIXPVA
        233        60       FIXPVA
        234        60       FIXPVA
        235        60       FIXPVA
        236        60       FIXPVA
        237        60       FIXPVA
        238        60       FIXPVA
        239        60       FIXPVA
        240        60       FIXPVA
        241        60       FIXPVA
        242        60       FIXPVA
        243        60       FIXPVA
        244        60       FIXPVA
        245        60       FIXPVA
        246        60       FIXPVA
        247        60       FIXPVA
        248        60       FIXPVA
        249        60       FIXPVA
        250        60       FIXPVA
        251        60       FIXPVA
        252        60       FIXPVA
        253        60       FIXPVA
        254        60       FIXPVA
        255        60       FIXPVA
        256        60       FIXPVA
        257        60       FIXPVA
        258        60       FIXPVA
        259        60       FIXPVA
        260        60       FIXPVA
        261        60       FIXPVA
        262        60       FIXPVA
        263        60       FIXPVA
        264        60       FIXPVA
        265        60       FIXPVA
        266        60       FIXPVA
        267        60       FIXPVA
        268        60       FIXPVA
        269        60       FIXPVA
        270        60       FIXPVA
        271        60       FIXPVA
        272        60       FIXPVA
        273        60       FIXPVA
        274        60       FIXPVA
        275        60       FIXPVA
        276        60       FIXPVA
        277        60       FIXPVA
        278        60       FIXPVA
        279        60       FIXPVA
        280        60       FIXPVA
        281        60       FIXPVA
        282        60       FIXPVA
        283        60       FIXPVA
        284        60       FIXPVA
        285        60       FIXPVA
        286        60       FIXPVA
        287        60       FIXPVA
        288        60       FIXPVA
        289        60       FIXPVA
        290        60       FIXPVA
        291        60       FIXPVA
        292        60       FIXPVA
        293        60       FIXPVA
        294        60       FIXPVA
        295        60       FIXPVA
        296        60       FIXPVA
        297        60       FIXPVA
        298        60       FIXPVA
        299        60       FIXPVA
        300        60       FIXPVA
        301        60       FIXPVA
        302        60       FIXPVA
        303        60       FIXPVA
        304        60       FIXPVA
        305        60       FIXPVA
        306        60       FIXPVA
        307        60       FIXPVA
        308        60       FIXPVA
        309        60       FIXPVA
        310        60       FIXPVA
        311        60       FIXPVA
        312        60       FIXPVA
        313        60       FIXPVA
        314        60       FIXPVA
        315        60       FIXPVA
        316        60       FIXPVA
        317        60       FIXPVA
        318        60       FIXPVA
        319        60       FIXPVA
        320        60       FIXPVA
        321        60       FIXPVA
        322        60       FIXPVA
        323        60       FIXPVA
        324        60       FIXPVA
        325        60       FIXPVA
        326        60       FIXPVA
        327        60       FIXPVA
        328        60       FIXPVA
        329        60       FIXPVA
        330        60       FIXPVA
        331        60       FIXPVA
        332        60       FIXPVA
        333        60       FIXPVA
        334        60       FIXPVA
        335        60       FIXPVA
        336        60       FIXPVA
        337        60       FIXPVA
        338        60       FIXPVA
        339        60       FIXPVA
        340        60       FIXPVA
        341        60       FIXPVA
        342        60       FIXPVA
        343        60       FIXPVA
        344        60       FIXPVA
        345        60       FIXPVA
        346        60       FIXPVA
        347        60       FIXPVA
        348        60       FIXPVA
        349        60       FIXPVA
        350        60       FIXPVA
        351        60       FIXPVA

     ------------------------------
      FIXPVA TESSELLATION FOR PCM
         PEIFENG SU AND HUI LI
     UNIVERSITY OF NEBRASKA-LINCOLN
     ------------------------------


 PCM DIMENSIONS: MXSP=   351, MXTS=     14040, MEMORY=        144264

     INPUT FOR CAVITY DEFINITION 
     ---------------------------
   ATOM               COORDINATES                RADIUS       EPS
      1      6.5970     10.9830     17.1790      0.0100     78.3900
      2      6.6720     11.1670     16.2230      1.5900     78.3900
      3      5.3420     11.1280     15.6870      1.7700     78.3900
      4      4.7260     11.8830     16.2240      0.0100     78.3900
      5      4.9040     10.1300     15.8940      0.0100     78.3900
      6      5.2400     11.3920     14.1720      1.7700     78.3900
      7      4.1980     11.6790     13.9030      0.0100     78.3900
      8      6.1040     12.4970     13.7670      1.5900     78.3900
      9      6.7710     12.1670     12.5500      1.7700     78.3900
     10      6.5380     12.9990     11.8500      0.0100     78.3900
     11      8.2550     12.0660     12.6990      1.6800     78.3900
     12      8.8240     12.0190     13.9510      1.7700     78.3900
     13      8.1410     12.0810     14.7970      0.0100     78.3900
     14     10.1490     11.9320     14.1210      1.7700     78.3900
     15     10.6060     11.8960     15.1070      0.0100     78.3900
     16      9.0780     12.0410     11.5680      1.7700     78.3900
     17      8.5700     12.1160     10.4420      1.5900     78.3900
     18     10.4230     11.9520     11.7240      1.6800     78.3900
     19     10.9620     11.8990     12.9540      1.7700     78.3900
     20     12.2870     11.8330     13.0840      1.6800     78.3900
     21     12.8670     11.8690     12.2670      0.0100     78.3900
     22     12.7270     11.8240     13.9890      0.0100     78.3900
     23      6.1500     10.8850     12.0160      1.7700     78.3900
     24      6.8870     10.2430     11.4890      0.0100     78.3900
     25      5.0800     11.1790     11.1400      1.5900     78.3900
     26      4.6440     10.3340     10.9540      0.0100     78.3900
     27      5.6510     10.2060     13.2860      1.7700     78.3900
     28      6.5010      9.7140     13.8110      0.0100     78.3900
     29      4.5190      9.3330     13.0770      1.5900     78.3900
     30      4.6140      7.7740     13.2080      2.1000     78.3900
     31      3.2450      7.2180     13.3130      1.5900     78.3900
     32      5.5550      7.4390     14.2960      1.5900     78.3900
     33      5.2580      7.3230     11.8470      1.5900     78.3900
     34      4.5030      7.2220     10.6200      1.7700     78.3900
     35      3.7510      8.0420     10.5300      0.0100     78.3900
     36      3.9500      6.2570     10.6130      0.0100     78.3900
     37      5.4020      7.2670      9.3600      1.7700     78.3900
     38      4.7860      7.4590      8.4520      0.0100     78.3900
     39      6.3690      8.3510      9.4560      1.5900     78.3900
     40      7.6300      7.9160      8.9550      1.7700     78.3900
     41      7.8910      8.6390      8.1470      0.0100     78.3900
     42      8.7080      7.9390      9.9860      1.6800     78.3900
     43      8.3830      7.9580     11.3180      1.7700     78.3900
     44      7.3240      7.9900     11.5480      0.0100     78.3900
     45      9.3190      7.9860     12.2740      1.7700     78.3900
     46      9.0670      8.0220     13.3310      0.0100     78.3900
     47     10.0510      7.9200      9.6020      1.7700     78.3900
     48     10.3380      7.8910      8.4010      1.5900     78.3900
     49     11.0160      7.9340     10.5560      1.6800     78.3900
     50     10.6810      7.9800     11.8570      1.7700     78.3900
     51     11.6440      8.0330     12.7760      1.6800     78.3900
     52     12.5920      8.0500     12.4600      0.0100     78.3900
     53     11.4510      8.0390     13.7560      0.0100     78.3900
     54      7.4390      6.5420      8.3360      1.7700     78.3900
     55      8.3250      5.8840      8.4750      0.0100     78.3900
     56      7.1470      6.6520      6.9560      1.5900     78.3900
     57      6.9550      5.7490      6.6740      0.0100     78.3900
     58      6.2370      6.0000      9.1070      1.7700     78.3900
     59      6.5540      5.6310     10.1090      0.0100     78.3900
     60      5.4360      5.0410      8.3840      1.5900     78.3900
     61      5.7730      3.5140      8.3950      2.1000     78.3900
     62      4.6150      2.8020      7.8110      1.5900     78.3900
     63      6.1560      3.1370      9.7750      1.5900     78.3900
     64      7.0150      3.3750      7.4490      1.5900     78.3900
     65      6.9090      3.4450      6.0080      1.7700     78.3900
     66      6.7850      4.4980      5.6670      0.0100     78.3900
     67      6.0370      2.8600      5.6330      0.0100     78.3900
     68      8.1690      2.8900      5.3310      1.7700     78.3900
     69      8.1080      2.9940      4.2260      0.0100     78.3900
     70      9.3380      3.6480      5.7810      1.5900     78.3900
     71     10.4440      2.7720      5.9110      1.7700     78.3900
     72     11.2310      3.1880      5.2380      0.0100     78.3900
     73     10.9490      2.7070      7.3070      1.6800     78.3900
     74     10.0790      2.8100      8.3670      1.7700     78.3900
     75      9.0340      2.8950      8.0990      0.0100     78.3900
     76     12.3030      2.5830      7.5190      1.7700     78.3900
     77     13.1150      2.4700      6.6010      1.5900     78.3900
     78     12.6780      2.5930      8.8370      1.6800     78.3900
     79     13.6770      2.6850      8.9900      0.0100     78.3900
     80     11.8770      2.8150      9.9380      1.7700     78.3900
     81     12.3680      2.9210     11.0610      1.5900     78.3900
     82     10.4840      2.8870      9.6400      1.7700     78.3900
     83      9.7850      3.0520     10.4560      0.0100     78.3900
     84     10.0000      1.4350      5.3830      1.7700     78.3900
     85     10.4990      0.5860      5.8940      0.0100     78.3900
     86     10.2650      1.4060      3.9960      1.5900     78.3900
     87     10.8850      0.6590      3.8950      0.0100     78.3900
     88      8.5070      1.4270      5.6530      1.7700     78.3900
     89      8.3040      1.2810      6.7340      0.0100     78.3900
     90      7.7270      0.5230      4.8380      1.5900     78.3900
     91      7.8660     -1.0510      4.9300      2.1000     78.3900
     92      7.0900     -1.6660      3.8300      1.5900     78.3900
     93      7.5250     -1.5070      6.3000      1.5900     78.3900
     94      9.3850     -1.4040      4.6800      1.5900     78.3900
     95      9.9000     -1.5670      3.3320      1.7700     78.3900
     96      9.5240     -0.7500      2.6690      0.0100     78.3900
     97      9.5480     -2.5320      2.9010      0.0100     78.3900
     98     11.4490     -1.5360      3.2510      1.7700     78.3900
     99     11.7460     -1.2430      2.2210      0.0100     78.3900
    100     12.0030     -0.5310      4.1480      1.5900     78.3900
    101     13.1860     -0.9720      4.7490      1.7700     78.3900
    102     13.9480     -0.1880      4.5180      0.0100     78.3900
    103     13.0340     -1.1260      6.2430      1.6800     78.3900
    104     11.8510     -1.5580      6.8020      1.7700     78.3900
    105     11.0750     -1.8350      6.0920      0.0100     78.3900
    106     14.1120     -0.8240      7.0530      1.7700     78.3900
    107     15.2050     -0.5080      6.6020      1.5900     78.3900
    108     13.8690     -0.8970      8.4070      1.6800     78.3900
    109     14.6100     -0.6220      9.0290      0.0100     78.3900
    110     12.6900     -1.2380      9.0250      1.7700     78.3900
    111     12.6120     -1.2110     10.2500      1.5900     78.3900
    112     11.6410     -1.6150      8.1270      1.7700     78.3900
    113     10.6880     -1.9320      8.5450      0.0100     78.3900
    114     13.5620     -2.2390      4.0260      1.7700     78.3900
    115     14.0880     -2.8680      4.7150      0.0100     78.3900
    116     14.4150     -1.9720      2.9300      1.5900     78.3900
    117     13.8880     -1.6170      2.2010      0.0100     78.3900
    118     12.2080     -2.8180      3.6000      1.7700     78.3900
    119     11.6750     -3.2740      4.4630      0.0100     78.3900
    120     12.2190     -3.7020      2.4620      1.5900     78.3900
    121     13.0050     -5.0730      2.4630      2.1000     78.3900
    122     14.4480     -4.8310      2.2020      1.5900     78.3900
    123     12.3480     -5.9660      1.4920      1.5900     78.3900
    124     12.7880     -5.6870      3.9050      1.5900     78.3900
    125     13.7880     -6.5520      4.5130      1.7700     78.3900
    126     14.0590     -7.3980      3.8450      0.0100     78.3900
    127     13.3340     -6.9880      5.4310      0.0100     78.3900
    128     15.0600     -5.8110      4.9650      1.7700     78.3900
    129     15.6540     -5.4630      4.0950      0.0100     78.3900
    130     14.6360     -4.6590      5.6700      1.5900     78.3900
    131     15.6050     -4.2080      6.5620      1.7700     78.3900
    132     15.9460     -3.2100      6.2080      0.0100     78.3900
    133     14.9950     -4.0920      7.8900      1.6800     78.3900
    134     15.5630     -3.6340      9.0430      1.7700     78.3900
    135     18.3990     -2.8330     10.8150      1.6800     78.3900
    136     18.6870     -2.7090     11.7610      0.0100     78.3900
    137     19.0620     -2.7350     10.0720      0.0100     78.3900
    138     16.8270     -3.2010      9.1870      1.6800     78.3900
    139     17.1420     -3.0260     10.4620      1.7700     78.3900
    140     16.2190     -3.0480     11.4830      1.6800     78.3900
    141     16.5100     -2.8160     12.4120      0.0100     78.3900
    142     14.8710     -3.3650     11.3370      1.7700     78.3900
    143     14.0970     -3.3730     12.2990      1.5900     78.3900
    144     14.5680     -3.7290     10.0020      1.7700     78.3900
    145     13.3900     -4.2260      9.4570      1.6800     78.3900
    146     13.6870     -4.4130      8.2010      1.7700     78.3900
    147     13.0000     -4.7860      7.4370      0.0100     78.3900
    148     16.7320     -5.2050      6.4950      1.7700     78.3900
    149     17.1640     -5.3760      7.4890      0.0100     78.3900
    150     17.7670     -4.7720      5.6300      1.5900     78.3900
    151     18.3690     -5.5200      5.5100      0.0100     78.3900
    152     16.0190     -6.4550      5.9600      1.7700     78.3900
    153     15.4070     -6.9400      6.7500      0.0100     78.3900
    154     16.8600     -7.3890      5.2780      1.5900     78.3900
    155     17.9960     -8.1930      6.0010      2.1000     78.3900
    156     19.2820     -7.7900      5.3980      1.5900     78.3900
    157     17.6150     -9.6220      5.9390      1.5900     78.3900
    158     17.9710     -7.7560      7.5120      1.5900     78.3900
    159     19.1080     -7.1050      8.1330      1.7700     78.3900
    160     19.5160     -6.2970      7.4780      0.0100     78.3900
    161     19.9240     -7.8440      8.2970      0.0100     78.3900
    162     18.7850     -6.4500      9.5000      1.7700     78.3900
    163     19.3440     -5.4910      9.5990      0.0100     78.3900
    164     17.3650     -6.1490      9.6110      1.5900     78.3900
    165     16.8700     -6.4970     10.8780      1.7700     78.3900
    166     16.3770     -5.5790     11.2590      0.0100     78.3900
    167     15.8230     -7.5270     10.8690      1.6800     78.3900
    168     15.4110     -8.0620      9.6770      1.7700     78.3900
    169     15.9490     -7.7330      8.7850      0.0100     78.3900
    170     14.4160     -8.9530      9.6270      1.7700     78.3900
    171     14.0840     -9.3980      8.6940      0.0100     78.3900
    172     15.1610     -7.8560     12.0560      1.7700     78.3900
    173     15.4780     -7.2930     13.1100      1.5900     78.3900
    174     14.1690     -8.7720     12.0250      1.6800     78.3900
    175     13.7960     -9.3190     10.8580      1.7700     78.3900
    176     12.8210    -10.2210     10.8610      1.6800     78.3900
    177     12.3990    -10.4660     11.7360      0.0100     78.3900
    178     12.4680    -10.6260     10.0170      0.0100     78.3900
    179     18.0460     -6.8330     11.7280      1.7700     78.3900
    180     17.8510     -7.5920     12.5140      0.0100     78.3900
    181     18.4490     -5.6340     12.3050      1.5900     78.3900
    182     18.9610     -5.1520     11.6500      0.0100     78.3900
    183     19.0910     -7.3120     10.7300      1.7700     78.3900
    184     18.8930     -8.3690     10.4410      0.0100     78.3900
    185     20.4690     -7.1180     11.1260      1.5900     78.3900
    186     20.9910     -7.6140     12.5370      2.1000     78.3900
    187     22.4370     -7.8870     12.4100      1.5900     78.3900
    188     20.1540     -8.7400     13.0100      1.5900     78.3900
    189     20.8340     -6.3830     13.5220      1.5900     78.3900
    190     21.2560     -5.0660     13.0920      1.7700     78.3900
    191     20.7390     -4.7370     12.1610      0.0100     78.3900
    192     22.3470     -5.0780     12.8600      0.0100     78.3900
    193     21.0320     -3.9770     14.1640      1.7700     78.3900
    194     21.6670     -3.1320     13.8360      0.0100     78.3900
    195     19.6530     -3.4860     14.1850      1.5900     78.3900
    196     19.1460     -3.4790     15.5280      1.7700     78.3900
    197     19.3320     -2.4640     15.9250      0.0100     78.3900
    198     17.6770     -3.7500     15.6190      1.6800     78.3900
    199     17.0580     -4.2880     14.5410      1.7700     78.3900
    200     17.6730     -4.3350     13.6730      0.0100     78.3900
    201     15.7690     -4.6190     14.5300      1.7700     78.3900
    202     15.2890     -5.0430     13.6520      0.0100     78.3900
    203     16.9250     -3.4870     16.7600      1.7700     78.3900
    204     17.4870     -2.9760     17.7400      1.5900     78.3900
    205     15.5960     -3.7940     16.7840      1.6800     78.3900
    206     15.0210     -4.3560     15.7000      1.7700     78.3900
    207     13.7250     -4.6610     15.7100      1.6800     78.3900
    208     13.2800     -5.0590     14.9060      0.0100     78.3900
    209     13.1670     -4.4320     16.5050      0.0100     78.3900
    210     19.9790     -4.5020     16.2810      1.7700     78.3900
    211     19.5980     -5.5240     16.0530      0.0100     78.3900
    212     20.0190     -4.2990     17.6870      1.5900     78.3900
    213     19.2370     -3.7800     17.9400      0.0100     78.3900
    214     21.3630     -4.3380     15.6270      1.7700     78.3900
    215     21.8530     -5.3360     15.6210      0.0100     78.3900
    216     22.2600     -3.4050     16.2550      1.5900     78.3900
    217     22.1100     -1.8590     16.4860      2.1000     78.3900
    218     23.4060     -1.3580     17.0110      1.5900     78.3900
    219     20.9320     -1.5490     17.3110      1.5900     78.3900
    220     21.8670     -1.2000     15.0750      1.5900     78.3900
    221     22.9030     -0.4830     14.3710      1.7700     78.3900
    222     23.8550     -1.0640     14.3670      0.0100     78.3900
    223     23.1070      0.4820     14.8940      0.0100     78.3900
    224     22.5610     -0.1410     12.9000      1.7700     78.3900
    225     23.4660     -0.2290     12.2630      0.0100     78.3900
    226     21.5520     -1.0320     12.3370      1.5900     78.3900
    227     20.6360     -0.2710     11.5690      1.7700     78.3900
    228     20.5870     -0.7590     10.5670      0.0100     78.3900
    229     19.3000     -0.2720     12.1700      1.6800     78.3900
    230     17.1230     -0.1350     12.4550      1.7700     78.3900
    231     17.6410     -0.6140     13.6500      1.6800     78.3900
    232     18.9340     -0.6820     13.4290      1.7700     78.3900
    233     19.6810     -1.0410     14.1400      0.0100     78.3900
    234     15.6240      0.3810     10.7010      1.6800     78.3900
    235     16.7040      0.5800      9.9430      1.7700     78.3900
    236     16.5020      0.8810      8.9090      0.0100     78.3900
    237     17.9950      0.4620     10.2570      1.6800     78.3900
    238     18.1360      0.0810     11.5360      1.7700     78.3900
    239     15.7990      0.0480     12.0050      1.7700     78.3900
    240     14.7280     -0.1170     12.8010      1.6800     78.3900
    241     14.8060     -0.3140     13.7800      0.0100     78.3900
    242     13.8170      0.0590     12.4280      0.0100     78.3900
    243     21.1870      1.1290     11.4270      1.7700     78.3900
    244     20.3870      1.8950     11.3820      0.0100     78.3900
    245     21.9940      1.2140     10.2680      1.5900     78.3900
    246     22.2120      2.1500     10.1200      0.0100     78.3900
    247     21.9980      1.2700     12.7100      1.7700     78.3900
    248     21.3240      1.4510     13.5780      0.0100     78.3900
    249     23.0920      2.2020     12.6440      1.5900     78.3900
    250     22.9210      3.7120     13.0180      2.1000     78.3900
    251     24.2460      4.2520     13.3840      1.5900     78.3900
    252     21.8470      3.8500     14.0260      1.5900     78.3900
    253     22.4570      4.3760     11.6750      1.5900     78.3900
    254     23.3230      4.4200     10.5220      1.7700     78.3900
    255     23.8110      3.4330     10.3410      0.0100     78.3900
    256     24.1300      5.1720     10.6730      0.0100     78.3900
    257     22.5360      4.7940      9.2620      1.7700     78.3900
    258     23.1960      4.8100      8.3700      0.0100     78.3900
    259     21.5250      3.7770      9.0230      1.5900     78.3900
    260     20.3360      4.3920      8.5740      1.7700     78.3900
    261     20.0820      3.9100      7.6000      0.0100     78.3900
    262     19.2400      4.1840      9.5170      1.6800     78.3900
    263     17.2620      3.8270     10.3960      1.7700     78.3900
    264     18.1360      3.9610     11.4640      1.6800     78.3900
    265     19.2920      4.1700     10.8890      1.7700     78.3900
    266     20.2260      4.3190     11.4250      0.0100     78.3900
    267     15.3210      3.4880      9.1010      1.6800     78.3900
    268     16.0900      3.6490      8.0220      1.7700     78.3900
    269     15.5750      3.5640      7.0570      0.0100     78.3900
    270     17.4040      3.8770      7.9580      1.6800     78.3900
    271     17.9310      3.9580      9.1910      1.7700     78.3900
    272     15.8780      3.5850     10.3340      1.7700     78.3900
    273     15.1100      3.4280     11.4280      1.6800     78.3900
    274     15.5130      3.3440     12.3440      0.0100     78.3900
    275     14.1520      3.1460     11.3120      0.0100     78.3900
    276     20.6240      5.8580      8.3450      1.7700     78.3900
    277     19.7520      6.5100      8.5710      0.0100     78.3900
    278     21.0340      6.0550      7.0110      1.5900     78.3900
    279     20.8980      7.0060      6.8430      0.0100     78.3900
    280     21.7750      6.1290      9.3110      1.7700     78.3900
    281     21.3960      6.2440     10.3500      0.0100     78.3900
    282     22.6650      7.2090      8.9320      1.5900     78.3900
    283     22.2260      8.7040      9.1360      2.1000     78.3900
    284     23.3860      9.5770      8.8520      1.5900     78.3900
    285     21.6020      8.8480     10.4680      1.5900     78.3900
    286     21.1260      8.9560      8.0440      1.5900     78.3900
    287     21.4410      9.1030      6.6410      1.7700     78.3900
    288     22.1420      8.3050      6.3000      0.0100     78.3900
    289     21.9470     10.0810      6.4670      0.0100     78.3900
    290     20.1700      9.0480      5.7590      1.7700     78.3900
    291     20.4250      8.8300      4.7000      0.0100     78.3900
    292     19.2630      8.0060      6.2140      1.5900     78.3900
    293     17.9220      8.4590      6.1640      1.7700     78.3900
    294     17.3760      7.7400      5.5130      0.0100     78.3900
    295     17.3010      8.4630      7.5050      1.6800     78.3900
    296     15.9700      8.2830      7.8050      1.7700     78.3900
    297     12.7040      7.7000      6.8070      1.6800     78.3900
    298     12.7810      7.6400      5.8170      0.0100     78.3900
    299     11.7980      7.6700      7.2370      0.0100     78.3900
    300     14.9770      8.0810      6.9200      1.6800     78.3900
    301     13.7880      7.9510      7.5170      1.7700     78.3900
    302     13.6110      8.0260      8.8750      1.6800     78.3900
    303     12.6830      7.9130      9.2520      0.0100     78.3900
    304     14.6200      8.2190      9.8100      1.7700     78.3900
    305     14.3940      8.2650     11.0250      1.5900     78.3900
    306     15.8880      8.3550      9.1840      1.7700     78.3900
    307     17.1380      8.5730      9.7450      1.6800     78.3900
    308     17.9420      8.6380      8.7130      1.7700     78.3900
    309     19.0150      8.8000      8.7760      0.0100     78.3900
    310     17.9230      9.8250      5.5100      1.7700     78.3900
    311     17.1590     10.5020      5.9470      0.0100     78.3900
    312     17.6980      9.7010      4.1220      1.5900     78.3900
    313     17.6960     10.6060      3.7790      0.0100     78.3900
    314     19.3390     10.3320      5.7950      1.7700     78.3900
    315     19.4060     10.7200      6.8360      0.0100     78.3900
    316     19.8720     11.2560      4.8240      1.5900     78.3900
    317     19.6350     12.7990      4.9360      2.1000     78.3900
    318     20.4220     13.4770      3.8830      1.5900     78.3900
    319     19.8840     13.2260      6.3280      1.5900     78.3900
    320     18.1040     12.9740      4.6090      1.5900     78.3900
    321     17.6120     12.8870      3.2500      1.7700     78.3900
    322     17.9220     11.9370      2.7590      0.0100     78.3900
    323     18.0190     13.7180      2.6330      0.0100     78.3900
    324     16.0780     12.9850      3.1980      1.7700     78.3900
    325     15.7000     12.8230      2.1650      0.0100     78.3900
    326     15.4800     11.9740      4.0550      1.5900     78.3900
    327     14.3590     12.5240      4.7340      1.7700     78.3900
    328     13.4860     11.8830      4.4670      0.0100     78.3900
    329     14.5500     12.4950      6.1960      1.6800     78.3900
    330     13.5780     12.3640      7.1590      1.7700     78.3900
    331     10.2560     11.9760      8.0850      1.6800     78.3900
    332      9.7730     12.0090      7.2100      0.0100     78.3900
    333      9.7210     11.9490      8.9320      0.0100     78.3900
    334     12.2530     12.2470      6.9450      1.6800     78.3900
    335     11.5680     12.1050      8.0850      1.7700     78.3900
[...]
   299   10   1.0   0.00    0.0    0.000000    0.471039    0.501187
   300   10   7.0   7.01   13.7    0.105278   -0.757452   -0.757196
   301   10   6.0   0.00    0.0    0.000168    0.981355    0.980650
   302   10   7.0   2.44    4.8   -0.002774   -0.946028   -1.004183
   303   10   1.0   0.00    0.0    0.000000    0.484906    0.520593
   304   10   6.0   0.21    0.4    0.005517    0.869936    0.865464
   305   10   8.0  10.95   23.9    0.180071   -0.734660   -0.728419
   306   10   6.0   0.03    0.1    0.002088   -0.047269   -0.050043
   307   10   7.0  12.04   23.6    0.199394   -0.602759   -0.608834
   308   10   6.0   3.80    6.7    0.003263    0.258783    0.250832
   309   10   1.0   0.00    0.0    0.000000    0.293108    0.307860
   310   10   6.0   0.44    0.8    0.005173    0.114864    0.082665
   311   10   1.0   0.00    0.0    0.000000    0.211923    0.232350
   312   10   8.0  14.53   31.8    0.118324   -0.826359   -0.839505
   313   10   1.0   0.00    0.0    0.000000    0.510023    0.530802
   314   10   6.0   1.81    3.2   -0.037087    0.145954    0.118961
   315   10   1.0   0.00    0.0    0.000000    0.240318    0.245360
   316   10   8.0   4.11    9.0    0.054045   -0.783356   -0.790861
   317   10  15.0   9.43   11.8    0.114164    1.594878    1.657357
   318   10   8.0  18.65   40.8    0.361799   -0.895619   -0.889780
   319   10   8.0  15.57   34.0    0.331215   -0.892832   -0.896407
   320   10   8.0   0.97    2.1    0.013127   -0.981793   -0.795082
   321   11   6.0  12.62   22.3   -0.100106    0.169922   -0.068514
   322   11   1.0   0.00    0.0    0.000000    0.180565    0.191506
   323   11   1.0   0.00    0.0    0.000000    0.255179    0.237934
   324   11   6.0   8.68   15.3   -0.055711    0.096067    0.165232
   325   11   1.0   0.00    0.0    0.000000    0.253065    0.226076
   326   11   8.0   3.84    8.4    0.047192   -0.723357   -0.732613
   327   11   6.0   5.45    9.6   -0.049952    0.409558    0.411257
   328   11   1.0   0.00    0.0    0.000000    0.253504    0.252062
   329   11   7.0   0.00    0.0   -0.000016   -0.795066   -0.805048
   330   11   6.0   1.88    3.3   -0.000149    0.711253    0.714677
   331   11   7.0  15.80   30.9   -0.099751   -0.980600   -1.042484
   332   11   1.0   0.00    0.0    0.000000    0.450054    0.446120
   333   11   1.0   0.00    0.0    0.000000    0.477186    0.509559
   334   11   7.0   9.08   17.8    0.120664   -0.758217   -0.758471
   335   11   6.0   1.89    3.3   -0.003992    0.987710    0.984218
   336   11   7.0   2.47    4.8    0.002062   -0.939174   -1.015880
   337   11   1.0   0.00    0.0    0.000000    0.484071    0.535484
   338   11   6.0   3.77    6.6    0.006965    0.874517    0.870479
   339   11   8.0  13.41   29.3    0.191478   -0.760389   -0.743917
   340   11   6.0   1.89    3.3    0.010180   -0.059726   -0.057132
   341   11   7.0  10.32   20.2    0.158693   -0.591838   -0.599168
   342   11   6.0   4.46    7.9    0.002218    0.257913    0.252169
   343   11   1.0   0.00    0.0    0.000000    0.291779    0.306609
   344   11   6.0   6.65   11.7   -0.064426    0.122412    0.121835
   345   11   1.0   0.00    0.0    0.000000    0.222932    0.222360
   346   11   8.0  21.57   47.2    0.045871   -0.842392   -0.843390
   347   11   1.0   0.00    0.0    0.000000    0.508368    0.508303
   348   11   6.0   4.85    8.6   -0.043981    0.161840    0.145959
   349   11   1.0   0.00    0.0    0.000000    0.212898    0.217157
   350   11   8.0  21.76   47.6   -0.014881   -0.847230   -0.851020
   351   11   1.0   0.00    0.0    0.000000    0.508015    0.507888

 Done with FMO properties.
 CPU     0: STEP CPU TIME=     0.00 TOTAL CPU TIME=      17420.5 (    290.3 MIN)
 TOTAL WALL CLOCK TIME=      37476.6 SECONDS, CPU UTILIZATION IS    46.48%
 CPU     0: STEP CPU TIME=     0.00 TOTAL CPU TIME=      17420.5 (    290.3 MIN)
 TOTAL WALL CLOCK TIME=      37476.6 SECONDS, CPU UTILIZATION IS    46.48%

 Total timing statistics in pairs (CPU,wall) for each rank, sec

    Rank   total     SCF    corr     DFT    CPHF     EFP    solv     ESP    geom
 -------------------------------------------------------------------------------
       1   17420.5   4969.4   6973.4      0.0    0.0   0.0  167.8  4976.3    0.0
       1   37476.7  10602.3  15540.3      0.0    0.0   0.0  452.3 10014.3    0.0
       2   16988.0   4928.9   6532.2      0.0    0.0   0.0  169.2  5007.5    0.0
       2   37476.7  10599.7  15533.3      0.0    0.0   0.0  452.1 10013.6    0.0
       3   17247.2   4985.2   6808.1      0.0    0.0   0.0  170.3  4944.5    0.0
       3   37476.7  10599.4  15533.3      0.0    0.0   0.0  452.5 10013.7    0.0
       4   16998.0   4931.9   6551.4      0.0    0.0   0.0  169.4  5020.1    0.0
       4   37476.7  10600.0  15533.3      0.0    0.0   0.0  451.6 10013.5    0.0
       5   17374.7   4999.7   6694.6      0.0    0.0   0.0  168.5  5153.5    0.0
       5   37476.7  10600.1  15533.3      0.0    0.0   0.0  452.2 10013.6    0.0
       6   17072.7   4966.6   6400.3      0.0    0.0   0.0  168.1  5180.1    0.0
       6   37476.7  10601.1  15533.3      0.0    0.0   0.0  451.0 10013.3    0.0
       7   17053.3   5019.0   6524.4      0.0    0.0   0.0  167.4  5011.2    0.0
       7   37476.7  10600.9  15533.3      0.0    0.0   0.0  451.2 10013.4    0.0
       8   16636.4   4951.3   6286.6      0.0    0.0   0.0  167.6  4903.1    0.0
       8   37476.7  10601.3  15533.3      0.0    0.0   0.0  450.4 10013.3    0.0
       9   16807.0   5014.4   6268.7      0.0    0.0   0.0  164.8  5020.9    0.0
       9   37476.7  10601.6  15533.2      0.0    0.0   0.0  450.3 10013.9    0.0
      10   16286.3   4935.1   5803.3      0.0    0.0   0.0  166.7  5045.1    0.0
      10   37476.7  10601.1  15533.2      0.0    0.0   0.0  450.6 10013.8    0.0
      11   16716.0   4978.1   6296.1      0.0    0.0   0.0  165.6  4934.7    0.0
      11   37476.7  10601.8  15533.2      0.0    0.0   0.0  450.3 10013.6    0.0
      12   17329.2   4966.3   6871.1      0.0    0.0   0.0  165.6  4980.0    0.0
      12   37476.7  10601.9  15533.2      0.0    0.0   0.0  449.6 10013.6    0.0
      13   16340.6   4917.5   6102.7      0.0    0.0   0.0  164.8  4826.0    0.0
      13   37476.7  10602.6  15533.2      0.0    0.0   0.0  449.8 10013.7    0.0
      14   16264.6   4914.7   6062.7      0.0    0.0   0.0  165.5  4784.2    0.0
      14   37476.7  10602.1  15533.2      0.0    0.0   0.0  449.8 10013.6    0.0
      15   16514.4   4929.1   6410.4      0.0    0.0   0.0  166.0  4667.3    0.0
      15   37476.7  10602.6  15533.2      0.0    0.0   0.0  449.4 10013.5    0.0
      16   16361.2   4892.6   6279.1      0.0    0.0   0.0  166.8  4696.4    0.0
      16   37476.7  10602.7  15533.2      0.0    0.0   0.0  448.7 10013.5    0.0
averaged   16838.1   4956.2   6429.1      0.0    0.0   0.0  167.1  4946.9    0.0
averaged   37476.7  10601.3  15533.7      0.0    0.0   0.0  450.7 10013.6    0.0

  FMO  timing statistics in pairs (CPU,wall) for each rank, sec

    Rank  FMOini FMOscf1  FMOdm1 FMOsyn1 FMOscf2  FMOes2 FMOsyn2 FMOscf3 FMOsyn3
 -------------------------------------------------------------------------------
       1    2.2    6588.6    0.3    0.0   10599.0     230.3    0.0    0.0    0.0
       1    5.7   13788.1    1.1    0.0   23188.1     493.2    0.0    0.0    0.0
       2    1.6    6464.3    0.1    0.0   10273.2     248.8    0.0    0.0    0.0
       2    5.7   13788.1    1.1    0.0   23191.8     489.5    0.0    0.0    0.0
       3    1.8    6601.3    0.1    0.0   10407.0     236.9    0.0    0.0    0.0
       3    5.7   13788.1    1.1    0.0   23192.5     488.8    0.0    0.0    0.0
       4    1.6    6634.0    0.1    0.0   10136.7     225.6    0.0    0.0    0.0
       4    5.7   13788.1    1.1    0.0   23193.5     487.7    0.0    0.0    0.0
       5    2.0    6730.7    0.2    0.0   10384.4     257.3    0.0    0.0    0.0
       5    5.7   13788.1    1.1    0.0   23193.0     488.3    0.0    0.0    0.0
       6    1.7    6724.8    0.1    0.0   10086.8     259.3    0.0    0.0    0.0
       6    5.7   13788.1    1.1    0.0   23194.0     487.3    0.0    0.0    0.0
       7    1.8    6641.2    0.1    0.0   10178.1     232.0    0.0    0.0    0.0
       7    5.7   13788.1    1.1    0.0   23193.2     488.1    0.0    0.0    0.0
       8    1.5    6637.9    0.1    0.0    9766.7     230.0    0.0    0.0    0.0
       8    5.7   13788.1    1.1    0.0   23193.6     487.7    0.0    0.0    0.0
       9    1.9    6618.2    0.3    0.0    9947.3     239.3    0.0    0.0    0.0
       9    5.7   13788.1    1.1    0.0   23194.1     487.2    0.0    0.0    0.0
      10    1.5    6666.1    0.1    0.0    9380.3     238.3    0.0    0.0    0.0
      10    5.7   13788.1    1.1    0.0   23192.7     488.6    0.0    0.0    0.0
      11    1.6    6553.6    0.1    0.0    9917.0     243.7    0.0    0.0    0.0
      11    5.7   13788.1    1.1    0.0   23194.1     487.1    0.0    0.0    0.0
      12    1.4    6626.5    0.1    0.0   10452.1     249.1    0.0    0.0    0.0
      12    5.7   13788.1    1.1    0.0   23193.1     488.2    0.0    0.0    0.0
      13    1.8    6511.0    0.2    0.0    9595.3     232.3    0.0    0.0    0.0
      13    5.7   13788.1    1.1    0.0   23195.5     485.8    0.0    0.0    0.0
      14    1.5    6551.4    0.1    0.0    9471.0     240.6    0.0    0.0    0.0
      14    5.7   13788.1    1.1    0.0   23193.6     487.7    0.0    0.0    0.0
      15    1.6    6469.1    0.1    0.0    9799.8     243.8    0.0    0.0    0.0
      15    5.7   13788.1    1.1    0.0   23193.5     487.8    0.0    0.0    0.0
      16    1.5    6394.4    0.1    0.0    9736.0     229.1    0.0    0.0    0.0
      16    5.7   13788.1    1.1    0.0   23193.2     488.1    0.0    0.0    0.0
averaged    1.7    6588.3    0.1    0.0   10008.2     239.8    0.0    0.0    0.0
averaged    5.7   13788.1    1.1    0.0   23193.1     488.2    0.0    0.0    0.0
             62787850  WORDS OF DYNAMIC MEMORY USED
 EXECUTION OF GAMESS TERMINATED NORMALLY Fri Dec  6 11:08:44 2019
 DDI: 263640 bytes (0.3 MB / 0 MWords) used by master data server.

 ----------------------------------------
 CPU timing information for all processes
 ========================================
 0: 17004.728 + 415.798 = 17420.527
 1: 16620.197 + 367.860 = 16988.57
 2: 16867.854 + 379.496 = 17247.351
 3: 16626.803 + 371.282 = 16998.85
 4: 16985.770 + 388.977 = 17374.748
 5: 16713.500 + 359.309 = 17072.810
 6: 16677.785 + 375.588 = 17053.373
 7: 16284.920 + 351.568 = 16636.488
 8: 16431.308 + 375.742 = 16807.50
 9: 15960.251 + 326.193 = 16286.445
 10: 16364.670 + 351.396 = 16716.66
 11: 16958.698 + 370.529 = 17329.227
 12: 15986.332 + 354.389 = 16340.722
 13: 15914.571 + 350.104 = 16264.676
 14: 16163.734 + 350.703 = 16514.438
 15: 16012.486 + 348.821 = 16361.307
 ----------------------------------------
 ddikick.x: exited gracefully.
----- accounting info -----
Files used on the master node gollum062.lsa.umich.edu were:
-rw-r--r-- 1 hazwong frank    17601 Dec  6 00:44 /scratch/hazwong/820844/2LBJ_6/usrc/2LBJ_6_fmo_input.F05
-rw-r--r-- 1 hazwong frank      634 Dec  6 11:08 /scratch/hazwong/820844/2LBJ_6/usrc/2LBJ_6_fmo_input.F06.001
-rw-r--r-- 1 hazwong frank      634 Dec  6 11:08 /scratch/hazwong/820844/2LBJ_6/usrc/2LBJ_6_fmo_input.F06.002
-rw-r--r-- 1 hazwong frank      634 Dec  6 11:08 /scratch/hazwong/820844/2LBJ_6/usrc/2LBJ_6_fmo_input.F06.003
-rw-r--r-- 1 hazwong frank      634 Dec  6 11:08 /scratch/hazwong/820844/2LBJ_6/usrc/2LBJ_6_fmo_input.F06.004
-rw-r--r-- 1 hazwong frank      634 Dec  6 11:08 /scratch/hazwong/820844/2LBJ_6/usrc/2LBJ_6_fmo_input.F06.005
-rw-r--r-- 1 hazwong frank      634 Dec  6 11:08 /scratch/hazwong/820844/2LBJ_6/usrc/2LBJ_6_fmo_input.F06.006
-rw-r--r-- 1 hazwong frank      634 Dec  6 11:08 /scratch/hazwong/820844/2LBJ_6/usrc/2LBJ_6_fmo_input.F06.007
-rw-r--r-- 1 hazwong frank      634 Dec  6 11:08 /scratch/hazwong/820844/2LBJ_6/usrc/2LBJ_6_fmo_input.F06.008
-rw-r--r-- 1 hazwong frank      634 Dec  6 11:08 /scratch/hazwong/820844/2LBJ_6/usrc/2LBJ_6_fmo_input.F06.009
-rw-r--r-- 1 hazwong frank      634 Dec  6 11:08 /scratch/hazwong/820844/2LBJ_6/usrc/2LBJ_6_fmo_input.F06.010
-rw-r--r-- 1 hazwong frank      634 Dec  6 11:08 /scratch/hazwong/820844/2LBJ_6/usrc/2LBJ_6_fmo_input.F06.011
-rw-r--r-- 1 hazwong frank      634 Dec  6 11:08 /scratch/hazwong/820844/2LBJ_6/usrc/2LBJ_6_fmo_input.F06.012
-rw-r--r-- 1 hazwong frank      634 Dec  6 11:08 /scratch/hazwong/820844/2LBJ_6/usrc/2LBJ_6_fmo_input.F06.013
-rw-r--r-- 1 hazwong frank      634 Dec  6 11:08 /scratch/hazwong/820844/2LBJ_6/usrc/2LBJ_6_fmo_input.F06.014
-rw-r--r-- 1 hazwong frank      634 Dec  6 11:08 /scratch/hazwong/820844/2LBJ_6/usrc/2LBJ_6_fmo_input.F06.015
-rw-r--r-- 1 hazwong frank    10850 Dec  6 11:08 /scratch/hazwong/820844/2LBJ_6/usrc/2LBJ_6_fmo_input.F07
-rw-r--r-- 1 hazwong frank        0 Dec  6 00:44 /scratch/hazwong/820844/2LBJ_6/usrc/2LBJ_6_fmo_input.F07.001
-rw-r--r-- 1 hazwong frank        0 Dec  6 00:44 /scratch/hazwong/820844/2LBJ_6/usrc/2LBJ_6_fmo_input.F07.002
-rw-r--r-- 1 hazwong frank        0 Dec  6 00:44 /scratch/hazwong/820844/2LBJ_6/usrc/2LBJ_6_fmo_input.F07.003
-rw-r--r-- 1 hazwong frank        0 Dec  6 00:44 /scratch/hazwong/820844/2LBJ_6/usrc/2LBJ_6_fmo_input.F07.004
-rw-r--r-- 1 hazwong frank        0 Dec  6 00:44 /scratch/hazwong/820844/2LBJ_6/usrc/2LBJ_6_fmo_input.F07.005
-rw-r--r-- 1 hazwong frank        0 Dec  6 00:44 /scratch/hazwong/820844/2LBJ_6/usrc/2LBJ_6_fmo_input.F07.006
-rw-r--r-- 1 hazwong frank        0 Dec  6 00:44 /scratch/hazwong/820844/2LBJ_6/usrc/2LBJ_6_fmo_input.F07.007
-rw-r--r-- 1 hazwong frank        0 Dec  6 00:44 /scratch/hazwong/820844/2LBJ_6/usrc/2LBJ_6_fmo_input.F07.008
-rw-r--r-- 1 hazwong frank        0 Dec  6 00:44 /scratch/hazwong/820844/2LBJ_6/usrc/2LBJ_6_fmo_input.F07.009
-rw-r--r-- 1 hazwong frank        0 Dec  6 00:44 /scratch/hazwong/820844/2LBJ_6/usrc/2LBJ_6_fmo_input.F07.010
-rw-r--r-- 1 hazwong frank        0 Dec  6 00:44 /scratch/hazwong/820844/2LBJ_6/usrc/2LBJ_6_fmo_input.F07.011
-rw-r--r-- 1 hazwong frank        0 Dec  6 00:44 /scratch/hazwong/820844/2LBJ_6/usrc/2LBJ_6_fmo_input.F07.012
-rw-r--r-- 1 hazwong frank        0 Dec  6 00:44 /scratch/hazwong/820844/2LBJ_6/usrc/2LBJ_6_fmo_input.F07.013
-rw-r--r-- 1 hazwong frank        0 Dec  6 00:44 /scratch/hazwong/820844/2LBJ_6/usrc/2LBJ_6_fmo_input.F07.014
-rw-r--r-- 1 hazwong frank        0 Dec  6 00:44 /scratch/hazwong/820844/2LBJ_6/usrc/2LBJ_6_fmo_input.F07.015
-rw-r--r-- 1 hazwong frank    65440 Dec  6 11:08 /scratch/hazwong/820844/2LBJ_6/usrc/2LBJ_6_fmo_input.F10.000
-rw-r--r-- 1 hazwong frank        0 Dec  6 00:44 /scratch/hazwong/820844/2LBJ_6/usrc/2LBJ_6_fmo_input.F26.000
-rw-r--r-- 1 hazwong frank        0 Dec  6 00:44 /scratch/hazwong/820844/2LBJ_6/usrc/2LBJ_6_fmo_input.F26.001
-rw-r--r-- 1 hazwong frank        0 Dec  6 00:44 /scratch/hazwong/820844/2LBJ_6/usrc/2LBJ_6_fmo_input.F26.002
-rw-r--r-- 1 hazwong frank        0 Dec  6 00:44 /scratch/hazwong/820844/2LBJ_6/usrc/2LBJ_6_fmo_input.F26.003
-rw-r--r-- 1 hazwong frank        0 Dec  6 00:44 /scratch/hazwong/820844/2LBJ_6/usrc/2LBJ_6_fmo_input.F26.004
-rw-r--r-- 1 hazwong frank        0 Dec  6 00:44 /scratch/hazwong/820844/2LBJ_6/usrc/2LBJ_6_fmo_input.F26.005
-rw-r--r-- 1 hazwong frank        0 Dec  6 00:44 /scratch/hazwong/820844/2LBJ_6/usrc/2LBJ_6_fmo_input.F26.006
-rw-r--r-- 1 hazwong frank        0 Dec  6 00:44 /scratch/hazwong/820844/2LBJ_6/usrc/2LBJ_6_fmo_input.F26.007
-rw-r--r-- 1 hazwong frank        0 Dec  6 00:44 /scratch/hazwong/820844/2LBJ_6/usrc/2LBJ_6_fmo_input.F26.008
-rw-r--r-- 1 hazwong frank        0 Dec  6 00:44 /scratch/hazwong/820844/2LBJ_6/usrc/2LBJ_6_fmo_input.F26.009
-rw-r--r-- 1 hazwong frank        0 Dec  6 00:44 /scratch/hazwong/820844/2LBJ_6/usrc/2LBJ_6_fmo_input.F26.010
-rw-r--r-- 1 hazwong frank        0 Dec  6 00:44 /scratch/hazwong/820844/2LBJ_6/usrc/2LBJ_6_fmo_input.F26.011
-rw-r--r-- 1 hazwong frank        0 Dec  6 00:44 /scratch/hazwong/820844/2LBJ_6/usrc/2LBJ_6_fmo_input.F26.012
-rw-r--r-- 1 hazwong frank        0 Dec  6 00:44 /scratch/hazwong/820844/2LBJ_6/usrc/2LBJ_6_fmo_input.F26.013
-rw-r--r-- 1 hazwong frank        0 Dec  6 00:44 /scratch/hazwong/820844/2LBJ_6/usrc/2LBJ_6_fmo_input.F26.014
-rw-r--r-- 1 hazwong frank        0 Dec  6 00:44 /scratch/hazwong/820844/2LBJ_6/usrc/2LBJ_6_fmo_input.F26.015
-rw-r--r-- 1 hazwong frank        0 Dec  6 00:44 /scratch/hazwong/820844/2LBJ_6/usrc/2LBJ_6_fmo_input.F27.000
-rw-r--r-- 1 hazwong frank        0 Dec  6 00:44 /scratch/hazwong/820844/2LBJ_6/usrc/2LBJ_6_fmo_input.F27.001
-rw-r--r-- 1 hazwong frank        0 Dec  6 00:44 /scratch/hazwong/820844/2LBJ_6/usrc/2LBJ_6_fmo_input.F27.002
-rw-r--r-- 1 hazwong frank        0 Dec  6 00:44 /scratch/hazwong/820844/2LBJ_6/usrc/2LBJ_6_fmo_input.F27.003
-rw-r--r-- 1 hazwong frank        0 Dec  6 00:44 /scratch/hazwong/820844/2LBJ_6/usrc/2LBJ_6_fmo_input.F27.004
-rw-r--r-- 1 hazwong frank        0 Dec  6 00:44 /scratch/hazwong/820844/2LBJ_6/usrc/2LBJ_6_fmo_input.F27.005
-rw-r--r-- 1 hazwong frank        0 Dec  6 00:44 /scratch/hazwong/820844/2LBJ_6/usrc/2LBJ_6_fmo_input.F27.006
-rw-r--r-- 1 hazwong frank        0 Dec  6 00:44 /scratch/hazwong/820844/2LBJ_6/usrc/2LBJ_6_fmo_input.F27.007
-rw-r--r-- 1 hazwong frank        0 Dec  6 00:44 /scratch/hazwong/820844/2LBJ_6/usrc/2LBJ_6_fmo_input.F27.008
-rw-r--r-- 1 hazwong frank        0 Dec  6 00:44 /scratch/hazwong/820844/2LBJ_6/usrc/2LBJ_6_fmo_input.F27.009
-rw-r--r-- 1 hazwong frank        0 Dec  6 00:44 /scratch/hazwong/820844/2LBJ_6/usrc/2LBJ_6_fmo_input.F27.010
-rw-r--r-- 1 hazwong frank        0 Dec  6 00:44 /scratch/hazwong/820844/2LBJ_6/usrc/2LBJ_6_fmo_input.F27.011
-rw-r--r-- 1 hazwong frank        0 Dec  6 00:44 /scratch/hazwong/820844/2LBJ_6/usrc/2LBJ_6_fmo_input.F27.012
-rw-r--r-- 1 hazwong frank        0 Dec  6 00:44 /scratch/hazwong/820844/2LBJ_6/usrc/2LBJ_6_fmo_input.F27.013
-rw-r--r-- 1 hazwong frank        0 Dec  6 00:44 /scratch/hazwong/820844/2LBJ_6/usrc/2LBJ_6_fmo_input.F27.014
-rw-r--r-- 1 hazwong frank        0 Dec  6 00:44 /scratch/hazwong/820844/2LBJ_6/usrc/2LBJ_6_fmo_input.F27.015
-rw-r--r-- 1 hazwong frank 22200320 Dec  6 04:34 /scratch/hazwong/820844/2LBJ_6/usrc/2LBJ_6_fmo_input.F40.000
-rw-r--r-- 1 hazwong frank 22200320 Dec  6 04:34 /scratch/hazwong/820844/2LBJ_6/usrc/2LBJ_6_fmo_input.F40.001
-rw-r--r-- 1 hazwong frank 22200320 Dec  6 04:34 /scratch/hazwong/820844/2LBJ_6/usrc/2LBJ_6_fmo_input.F40.002
-rw-r--r-- 1 hazwong frank 22200320 Dec  6 04:34 /scratch/hazwong/820844/2LBJ_6/usrc/2LBJ_6_fmo_input.F40.003
-rw-r--r-- 1 hazwong frank 22200320 Dec  6 04:34 /scratch/hazwong/820844/2LBJ_6/usrc/2LBJ_6_fmo_input.F40.004
-rw-r--r-- 1 hazwong frank 22200320 Dec  6 04:34 /scratch/hazwong/820844/2LBJ_6/usrc/2LBJ_6_fmo_input.F40.005
-rw-r--r-- 1 hazwong frank 22200320 Dec  6 04:34 /scratch/hazwong/820844/2LBJ_6/usrc/2LBJ_6_fmo_input.F40.006
-rw-r--r-- 1 hazwong frank 22200320 Dec  6 04:34 /scratch/hazwong/820844/2LBJ_6/usrc/2LBJ_6_fmo_input.F40.007
-rw-r--r-- 1 hazwong frank 22200320 Dec  6 04:34 /scratch/hazwong/820844/2LBJ_6/usrc/2LBJ_6_fmo_input.F40.008
-rw-r--r-- 1 hazwong frank 22200320 Dec  6 04:34 /scratch/hazwong/820844/2LBJ_6/usrc/2LBJ_6_fmo_input.F40.009
-rw-r--r-- 1 hazwong frank 22200320 Dec  6 04:34 /scratch/hazwong/820844/2LBJ_6/usrc/2LBJ_6_fmo_input.F40.010
-rw-r--r-- 1 hazwong frank 22200320 Dec  6 04:34 /scratch/hazwong/820844/2LBJ_6/usrc/2LBJ_6_fmo_input.F40.011
-rw-r--r-- 1 hazwong frank 22200320 Dec  6 04:34 /scratch/hazwong/820844/2LBJ_6/usrc/2LBJ_6_fmo_input.F40.012
-rw-r--r-- 1 hazwong frank 22200320 Dec  6 04:34 /scratch/hazwong/820844/2LBJ_6/usrc/2LBJ_6_fmo_input.F40.013
-rw-r--r-- 1 hazwong frank 22200320 Dec  6 04:34 /scratch/hazwong/820844/2LBJ_6/usrc/2LBJ_6_fmo_input.F40.014
-rw-r--r-- 1 hazwong frank 22200320 Dec  6 04:34 /scratch/hazwong/820844/2LBJ_6/usrc/2LBJ_6_fmo_input.F40.015
Fri Dec  6 11:08:48 EST 2019
0.179u 0.104s 10:24:42.14 0.0%	0+0k 1760+144io 32pf+0w
