----- GAMESS execution script 'rungms' -----
This job is running on host gollum062.lsa.umich.edu
under operating system Linux at Mon Dec 9 01:30:37 EST 2019
Available scratch disk space (Kbyte units) at beginning of the job is
Filesystem     1K-blocks  Used Available Use% Mounted on
/dev/sda4      426933580 33312 426900268   1% /scratch
GAMESS temporary binary files will be written to /scratch/hazwong/829267/2LU0_6/usrc
GAMESS supplementary output files will be written to /scratch/hazwong/829267/2LU0_6/src
Copying input file 2LU0_6_fmo_input.inp to your run's scratch directory...
This is a GDDI run, keeping various output files on local disks
 
Assuming a single but multicore node.
 

 Distributed Data Interface kickoff program.
 Initiating 16 compute processes on 1 nodes to run the following command:
 /export/apps/CentOS7/gamess/src/build//gamess.R3.x 2LU0_6_fmo_input 

          ******************************************************
          *         GAMESS VERSION = 30 SEP 2018 (R3)         *
          *             FROM IOWA STATE UNIVERSITY             *
          * M.W.SCHMIDT, K.K.BALDRIDGE, J.A.BOATZ, S.T.ELBERT, *
          *   M.S.GORDON, J.H.JENSEN, S.KOSEKI, N.MATSUNAGA,   *
          *          K.A.NGUYEN, S.J.SU, T.L.WINDUS,           *
          *       TOGETHER WITH M.DUPUIS, J.A.MONTGOMERY       *
          *         J.COMPUT.CHEM.  14, 1347-1363(1993)        *
          **************** 64 BIT LINUX VERSION ****************

  SINCE 1993, STUDENTS AND POSTDOCS WORKING AT IOWA STATE UNIVERSITY
  AND ALSO IN THEIR VARIOUS JOBS AFTER LEAVING ISU HAVE MADE IMPORTANT
  CONTRIBUTIONS TO THE CODE:
     IVANA ADAMOVIC, CHRISTINE AIKENS, YURI ALEXEEV, POOJA ARORA,
     ANDREY ASADCHEV, ROB BELL, PRADIPTA BANDYOPADHYAY, JONATHAN BENTZ,
     BRETT BODE, KURT BRORSEN, CALEB CARLIN, GALINA CHABAN, WEI CHEN,
     CHEOL HO CHOI, PAUL DAY, ALBERT DEFUSCO, NUWAN DESILVA, TIM DUDLEY,
     DMITRI FEDOROV, ALEX FINDLATER, GRAHAM FLETCHER, MARK FREITAG,
     KURT GLAESEMANN, ANASTASIA GUNINA,
     DAN KEMP, GRANT MERRILL, NORIYUKI MINEZAWA, JONATHAN MULLIN,
     TAKESHI NAGATA, SEAN NEDD, HEATHER NETZLOFF, BOSILJKA NJEGIC, RYAN OLSON,
     MIKE PAK, BUU PHAM,
     SPENCER PRUITT, LUKE ROSKOP, JIM SHOEMAKER, LYUDMILA SLIPCHENKO,
     TONY SMITH, SAROM SOK LEANG, JIE SONG, TETSUYA TAKETSUGU, SIMON WEBB,
     PENG XU, SOOHAENG YOO, FEDERICO ZAHARIEV

  ADDITIONAL CODE HAS BEEN PROVIDED BY COLLABORATORS IN OTHER GROUPS:
     IOWA STATE UNIVERSITY:
          JOE IVANIC, AARON WEST, LAIMUTIS BYTAUTAS, KLAUS RUEDENBERG
     UNIVERSITY OF TOKYO: KIMIHIKO HIRAO, TAKAHITO NAKAJIMA,
          TAKAO TSUNEDA, MUNEAKI KAMIYA, SUSUMU YANAGISAWA,
          KIYOSHI YAGI, MAHITO CHIBA, SEIKEN TOKURA, NAOAKI KAWAKAMI
     UNIVERSITY OF AARHUS: FRANK JENSEN
     UNIVERSITY OF IOWA: VISVALDAS KAIRYS, HUI LI
     NATIONAL INST. OF STANDARDS AND TECHNOLOGY: WALT STEVENS, DAVID GARMER
     UNIVERSITY OF PISA: BENEDETTA MENNUCCI, JACOPO TOMASI
     UNIVERSITY OF MEMPHIS: HENRY KURTZ, PRAKASHAN KORAMBATH
     UNIVERSITY OF ALBERTA: TOBY ZENG, MARIUSZ KLOBUKOWSKI
     UNIVERSITY OF NEW ENGLAND: MARK SPACKMAN
     MIE UNIVERSITY: HIROAKI UMEDA
     NAT. INST. OF ADVANCED INDUSTRIAL SCIENCE AND TECHNOLOGY: KAZUO KITAURA
     MICHIGAN STATE UNIVERSITY:
          KAROL KOWALSKI, MARTA WLOCH, JEFFREY GOUR, JESSE LUTZ,
          WEI LI, JUN SHEN, J. EMILIANO DEUSTUA, PIOTR PIECUCH
     UNIVERSITY OF MINNESOTA:
          YINAN SHU
     UNIVERSITY OF SILESIA: MONIKA MUSIAL, STANISLAW KUCHARSKI
     FACULTES UNIVERSITAIRES NOTRE-DAME DE LA PAIX:
          OLIVIER QUINET, BENOIT CHAMPAGNE
     UNIVERSITY OF CALIFORNIA - SANTA BARBARA: BERNARD KIRTMAN
     INSTITUTE FOR MOLECULAR SCIENCE:
          KAZUYA ISHIMURA, MICHIO KATOUDA, AND SHIGERU NAGASE
     UNIVERSITY OF NOTRE DAME: ANNA POMOGAEVA, DAN CHIPMAN
     KYUSHU UNIVERSITY:
          HARUYUKI NAKANO,
          FENG LONG GU, JACEK KORCHOWIEC, MARCIN MAKOWSKI, AND YURIKO AOKI,
          HIROTOSHI MORI AND EISAKU MIYOSHI
     PENNSYLVANIA STATE UNIVERSITY:
          TZVETELIN IORDANOV, CHET SWALINA, JONATHAN SKONE,
          SHARON HAMMES-SCHIFFER
     WASEDA UNIVERSITY:
          MASATO KOBAYASHI, TOMOKO AKAMA, TSUGUKI TOUMA,
          TAKESHI YOSHIKAWA, YASUHIRO IKABATA, JUNJI SEINO,
          YUYA NAKAJIMA, HIROMI NAKAI
     NANJING UNIVERSITY: SHUHUA LI
     UNIVERSITY OF NEBRASKA:
          PEIFENG SU, DEJUN SI, NANDUN THELLAMUREGE, YALI WANG, HUI LI
     UNIVERSITY OF ZURICH: ROBERTO PEVERATI, KIM BALDRIDGE
     N. COPERNICUS UNIVERSITY AND JACKSON STATE UNIVERSITY:
          MARIA BARYSZ
     UNIVERSITY OF COPENHAGEN: Jimmy Kromann, CASPER STEINMANN
     TOKYO INSTITUTE OF TECHNOLOGY: HIROYA NAKATA
     NAGOYA UNIVERSITY: YOSHIO NISHIMOTO, STEPHAN IRLE
     MOSCOW STATE UNIVERSITY: VLADIMIR MIRONOV


 PARALLEL VERSION RUNNING ON       16 PROCESSORS IN        1 NODES.

 EXECUTION OF GAMESS BEGUN Mon Dec  9 01:30:37 2019

            ECHO OF THE FIRST FEW INPUT CARDS -
 INPUT CARD>!*** FMO 5.3 (Gamess) INPUT generated by Facio 22.1.1.32 ***                    
 INPUT CARD> $CONTRL RUNTYP=ENERGY NPRINT=-5 ISPHER=1 MAXIT=200 $END                        
 INPUT CARD> $SYSTEM MWORDS=63 MEMDDI=63 $END                                               
 INPUT CARD> $GDDI NGROUP=1 $END                                                            
 INPUT CARD> $SCF DIRSCF=.TRUE. NPUNCH=0 $END                                               
 INPUT CARD>!*** NumCPU : 2  MemPerNode : 512MB                                             
 INPUT CARD> $PCM SOLVNT=WATER IEF=-10 ICOMP=2 ICAV=1 IDISP=1 IFMO=-1 $END                  
 INPUT CARD> $PCMCAV RADII=SUAHF $END                                                       
 INPUT CARD> $TESCAV NTSALL=60 $END                                                         
 INPUT CARD> $FMOPRP                                                                        
 INPUT CARD>    NAODIR=200                                                                  
 INPUT CARD>    NGRFMO(1)=1, 1, 0, 0, 0,   0, 0, 0, 0, 0                                    
 INPUT CARD>    IPIEDA=1                                                                    
 INPUT CARD>    NPRINT=9                                                                    
 INPUT CARD> $END                                                                           
 INPUT CARD> $FMO                                                                           
 INPUT CARD>      SCFTYP(1)=RHF                                                             
 INPUT CARD>      MODGRD=10                                                                 
 INPUT CARD>      MODMUL=0                                                                  
 INPUT CARD>      MAXCAO=5                                                                  
 INPUT CARD>      MAXBND=24                                                                 
 INPUT CARD>      NLAYER=1                                                                  
 INPUT CARD>      MPLEVL(1)=2                                                               
 INPUT CARD>      NFRAG=22                                                                  
 INPUT CARD>      ICHARG(1)=-1, -1, -1, -1, -1, -1, 0, -1, -1, -1, -1, -1, -1, -1, 0,       
 INPUT CARD>-1, -1, -1, -1, -1, -1, 0                                                       
 INPUT CARD>      FRGNAM(1)=F1, F2, F3, F4, F5, F6, F7, F8, F9, F10, F11, F12, F13,         
 INPUT CARD>F14, F15, F16, F17, F18, F19, F20, F21, F22                                     
 INPUT CARD>      indat(1)=0                                                                
 INPUT CARD>               1   -36   0                                                      
 INPUT CARD>               37   -67   0                                                     
 INPUT CARD>               68   -97   0                                                     
 INPUT CARD>               98   -128   0                                                    
 INPUT CARD>               129   -161   0                                                   
 INPUT CARD>               162   -194   0                                                   
 INPUT CARD>               195   -224   0                                                   
 INPUT CARD>               225   -258   0                                                   
 INPUT CARD>               259   -288   0                                                   
 INPUT CARD>               289   -322   0                                                   
 INPUT CARD>               323   -355   0                                                   
 INPUT CARD>               356   -388   0                                                   
 INPUT CARD>               389   -418   0                                                   
 INPUT CARD>               419   -449   0                                                   
 INPUT CARD>               450   -481   0                                                   
 INPUT CARD>               482   -511   0                                                   
 INPUT CARD>               512   -545   0                                                   
 INPUT CARD>               546   -578   0                                                   
 INPUT CARD>               579   -612   0                                                   
 INPUT CARD>               613   -645   0                                                   
 INPUT CARD>               646   -679   0                                                   


 -------------------------------------------------------------
 GROUP DDI, PROGRAMMED BY: RYAN M. OLSON AND DMITRI G. FEDOROV
        FEDOROV ET AL., J. COMPUT. CHEM., 25 (2004) 872.
 -------------------------------------------------------------

 -------------------------------------------------------
 GDDI: INITIALIZATION COMPLETED FOR GROUP     1 OF     1
 WITH    16 PROCESSES BALTYP=DLB   global rank=        0
 -------------------------------------------------------

   63000000 WORDS OF MEMORY AVAILABLE


     RUN TITLE
     ---------
  FMO calculation                                                                

 THE POINT GROUP OF THE MOLECULE IS C1      
 THE ORDER OF THE PRINCIPAL AXIS IS     0

 ATOM   ATOMIC CHARGE
 H.1-1       1.0
 O.1-1       8.0
 C.1-1       6.0
 N.1-1       7.0
 P.1-1      15.0

     ATOMIC BASIS SET LIBRARY
     ----------------
 THE CONTRACTED PRIMITIVE FUNCTIONS HAVE BEEN UNNORMALIZED
 THE CONTRACTED BASIS FUNCTIONS ARE NOW NORMALIZED TO UNITY

  SHELL TYPE  PRIMITIVE        EXPONENT          CONTRACTION COEFFICIENT(S)

 H.1-1     

      1   S       1            18.7311370    0.033494604338
      1   S       2             2.8253944    0.234726953484
      1   S       3             0.6401217    0.813757326146

      2   S       4             0.1612778    1.000000000000

 O.1-1     

      3   S       5          5484.6716600    0.001831074430
      3   S       6           825.2349460    0.013950172200
      3   S       7           188.0469580    0.068445078098
      3   S       8            52.9645000    0.232714335992
      3   S       9            16.8975704    0.470192897984
      3   S      10             5.7996353    0.358520852987

      4   L      11            15.5396162   -0.110777549525    0.070874268231
      4   L      12             3.5999336   -0.148026262701    0.339752839147
      4   L      13             1.0137618    1.130767015354    0.727158577316

      5   L      14             0.2700058    1.000000000000    1.000000000000

      6   D      15             0.8000000    1.000000000000

 C.1-1     

      7   S      16          3047.5248800    0.001834737132
      7   S      17           457.3695180    0.014037322813
      7   S      18           103.9486850    0.068842622264
      7   S      19            29.2101553    0.232184443216
      7   S      20             9.2866630    0.467941348435
      7   S      21             3.1639270    0.362311985337

      8   L      22             7.8682723   -0.119332419775    0.068999066591
      8   L      23             1.8812885   -0.160854151696    0.316423960957
      8   L      24             0.5442493    1.143456437840    0.744308290898

      9   L      25             0.1687145    1.000000000000    1.000000000000

     10   D      26             0.8000000    1.000000000000

 N.1-1     

     11   S      27          4173.5114600    0.001834772160
     11   S      28           627.4579110    0.013994627002
     11   S      29           142.9020930    0.068586551812
     11   S      30            40.2343293    0.232240873040
     11   S      31            12.8202129    0.469069948082
     11   S      32             4.3904370    0.360455199063

     12   L      33            11.6263619   -0.114961181702    0.067579743878
     12   L      34             2.7162798   -0.169117478561    0.323907295893
     12   L      35             0.7722184    1.145851947027    0.740895139755

     13   L      36             0.2120315    1.000000000000    1.000000000000

     14   D      37             0.8000000    1.000000000000

 P.1-1     

     15   S      38         19413.3000000    0.001851598923
     15   S      39          2909.4200000    0.014206191735
     15   S      40           661.3640000    0.069999459277
     15   S      41           185.7590000    0.240078860331
     15   S      42            59.1943000    0.484761717984
     15   S      43            20.0310000    0.335199804993

     16   L      44           339.4780000   -0.002782170105    0.004564616191
     16   L      45            81.0101000   -0.036049901354    0.033693571881
     16   L      46            25.8780000   -0.116631004382    0.139754883368
     16   L      47             9.4522100    0.096832803638    0.339361716786
     16   L      48             3.6656600    0.614418023082    0.450920623685
     16   L      49             1.4674600    0.403798015170    0.238585800889

     17   L      50             2.1562300   -0.252924113863   -0.017765312733
     17   L      51             0.7489970    0.032851844678    0.274058196433
     17   L      52             0.2831450    1.081254761783    0.785421562957

     18   L      53             0.0998317    1.000000000000    1.000000000000

     19   D      54             0.5500000    1.000000000000

 TOTAL NUMBER OF BASIS SET SHELLS             =   19
 NUMBER OF CARTESIAN GAUSSIAN BASIS FUNCTIONS =   66

     $CONTRL OPTIONS
     ---------------
 SCFTYP=RHF          RUNTYP=ENERGY       EXETYP=RUN     
 MPLEVL=       0     CITYP =NONE         CCTYP =NONE         VBTYP =NONE    
 DFTTYP=NONE         TDDFT =NONE    
 MULT  =       1     ICHARG=       0     NZVAR =       0     COORD =UNIQUE  
 PP    =NONE         RELWFN=NONE         LOCAL =NONE         NUMGRD=       F
 ISPHER=       1     NOSYM =       0     MAXIT =     200     UNITS =ANGS    
 PLTORB=       F     MOLPLT=       F     AIMPAC=       F     FRIEND=        
 NPRINT=      -5     IREST =       0     GEOM  =INPUT   
 NORMF =       0     NORMP =       0     ITOL  =      24     ICUT  =      12
 INTTYP=BEST         GRDTYP=BEST         QMTTOL= 1.0E-06

     $SYSTEM OPTIONS
     ---------------
  REPLICATED MEMORY=    63000000 WORDS (ON EVERY NODE).
 DISTRIBUTED MEMDDI=          63 MILLION WORDS IN AGGREGATE,
 MEMDDI DISTRIBUTED OVER  16 PROCESSORS IS     3937500 WORDS/PROCESSOR.
 TOTAL MEMORY REQUESTED ON EACH PROCESSOR=    66937500 WORDS.
 TIMLIM=      525600.00 MINUTES, OR     365.0 DAYS.
 PARALL= T  BALTYP=  DLB     KDIAG=    0  COREFL= F
 MXSEQ2=     300 MXSEQ3=     150  mem10=         0

 ** LOOKING UP INTERNALLY STORED DATA FOR SOLVENT=WATER    **
 OPTICAL AND PHYSICAL CONSTANTS:
 EPS= 78.390; EPSINF=  1.776; RSOLV=  1.385 A; VMOL=  18.070 ML/MOL;
 TCE= .25700E-03 1/K; STEN= 71.810 DYN/CM;  DSTEN=  0.6500; CMF=  1.2770


     -----------------------------------
     INPUT FOR PCM SOLVATION CALCULATION 
     -----------------------------------
     IEF   =     -10
     ICOMP =       2     IFIELD=       0     ICAV  =       1
     IDISP =       1     IREP  =       0     IDP   =       0

     SOLVNT=WATER        EPS   = 78.3900     EPSINF=  1.7760
     VMOL  = 18.0700     TCE   =  0.00025700 STEN  = 71.8100
     DSTEN =  0.6500     CMF   =  1.2770     RSOLV =  1.3850

     NESFP =       0
     OMEGA = 40.0000     RET   =100.0000     FRO   =  0.7000

     TABS  =298.0000     IPRINT=       0

     --------------------------------
     INPUT FOR ITERATIVE C-PCM METHOD 
     --------------------------------
     IPCMIT  =         1     MXDIIS  =        50
     MXITR1  =       200     MXITR2  =       200
     THRES   = 0.100E-09     IMUL    =         3
     RCUT(1) =   20.0000     RCUT(2) =   50.0000

     IDIRCT  =         1
     IMGABI  =         0     RABI    =    4.0000
     IMGASC  =         0     RASC    =   20.0000
     THRSLS  = 0.500E-03     DENSLS  =    0.0100
     IEFPOL  =         1     REFPOL  =    0.0000

     INPUT FOR ISOTROPIC DIELECTRICS
     -------------------------------
     EPS=    78.39

          ----------------
          PROPERTIES INPUT
          ----------------

     MOMENTS            FIELD           POTENTIAL          DENSITY
 IEMOM =       1   IEFLD =       0   IEPOT =       0   IEDEN =       0
 WHERE =COMASS     WHERE =NUCLEI     WHERE =NUCLEI     WHERE =NUCLEI  
 OUTPUT=BOTH       OUTPUT=BOTH       OUTPUT=NONE       OUTPUT=BOTH    
 IEMINT=       0   IEFINT=       0                     IEDINT=       0
                                                       MORB  =       0
          EXTRAPOLATION IN EFFECT
          SOSCF IN EFFECT
 ORBITAL PRINTING OPTION: NPREO=     1 32767     2     1

     -------------------------------
     INTEGRAL TRANSFORMATION OPTIONS
     -------------------------------
     NWORD  =            0
     CUTOFF = 1.0E-10     MPTRAN =       0
     DIRTRF =       T     AOINTS =DUP     

          ----------------------
          INTEGRAL INPUT OPTIONS
          ----------------------
 NOPK  =       1 NORDER=       0 SCHWRZ=       T

 ..... DONE SETTING UP THE RUN .....
 CPU     0: STEP CPU TIME=     0.05 TOTAL CPU TIME=          0.0 (      0.0 MIN)
 TOTAL WALL CLOCK TIME=          0.1 SECONDS, CPU UTILIZATION IS    55.56%
 CPU     0: STEP CPU TIME=     0.00 TOTAL CPU TIME=          0.0 (      0.0 MIN)
 TOTAL WALL CLOCK TIME=          0.1 SECONDS, CPU UTILIZATION IS    55.56%

                    ----------------------
                    AO INTEGRAL TECHNOLOGY
                    ----------------------
     S,P,L SHELL ROTATED AXIS INTEGRALS, REPROGRAMMED BY
        KAZUYA ISHIMURA (IMS) AND JOSE SIERRA (SYNSTAR).
     S,P,D,L SHELL ROTATED AXIS INTEGRALS PROGRAMMED BY
        KAZUYA ISHIMURA (INSTITUTE FOR MOLECULAR SCIENCE).
     S,P,D,F,G SHELL TO TOTAL QUARTET ANGULAR MOMENTUM SUM 5,
        ERIC PROGRAM BY GRAHAM FLETCHER (ELORET AND NASA ADVANCED
        SUPERCOMPUTING DIVISION, AMES RESEARCH CENTER).
     S,P,D,F,G,L SHELL GENERAL RYS QUADRATURE PROGRAMMED BY
        MICHEL DUPUIS (PACIFIC NORTHWEST NATIONAL LABORATORY).
 Setting modorb=1 flag...
 Setting modorb=1 flag...

          -----------------------
          MP2 CONTROL INFORMATION
          -----------------------
          NACORE =        8  NBCORE =        8
          LMOMP2 =        F  AOINTS = DUP     
          METHOD =        2  NWORD  =               0
          MP2PRP =        F  OSPT   = NONE    
          CUTOFF = 1.00E-12  CPHFBS = BASISAO 
          CODE   = IMS     

          NUMBER OF CORE -A-  ORBITALS =     8
          NUMBER OF CORE -B-  ORBITALS =     8
          NUMBER OF OCC. -A-  ORBITALS =    18
          NUMBER OF OCC. -B-  ORBITALS =    18
          NUMBER OF MOLECULAR ORBITALS =    66
          NUMBER OF   BASIS  FUNCTIONS =    66

 CPU     0: STEP CPU TIME=     0.03 TOTAL CPU TIME=          0.1 (      0.0 MIN)
 TOTAL WALL CLOCK TIME=          0.1 SECONDS, CPU UTILIZATION IS    57.14%
 CPU     0: STEP CPU TIME=     0.00 TOTAL CPU TIME=          0.1 (      0.0 MIN)
 TOTAL WALL CLOCK TIME=          0.1 SECONDS, CPU UTILIZATION IS    57.14%

     INPUT FOR CAVITY DEFINITION 
     ---------------------------
   ATOM               COORDINATES                RADIUS       EPS
      1     -0.1290     -8.7540      4.6750      0.0100     78.3900
      2     -0.5240     -8.6790      3.7870      1.5900     78.3900
      3     -0.0740     -9.8100      3.0290      1.7700     78.3900
      4     -0.3000    -10.7400      3.5970      0.0100     78.3900
      5      1.0290     -9.7490      2.9020      0.0100     78.3900
      6     -0.7180     -9.9290      1.6390      1.7700     78.3900
      7     -0.4980    -10.9310      1.2140      0.0100     78.3900
      8     -2.1680     -9.8090      1.7290      1.5900     78.3900
      9     -2.6410     -8.9780      0.6850      1.7700     78.3900
     10     -3.4910     -9.5190      0.2020      0.0100     78.3900
     11     -3.1300     -7.6910      1.1980      1.6800     78.3900
     12     -3.8720     -6.7750      0.5070      1.7700     78.3900
     13     -5.5910     -5.8370     -2.3450      1.6800     78.3900
     14     -5.4130     -6.5900     -2.9740      0.0100     78.3900
     15     -6.1590     -5.0720     -2.6580      0.0100     78.3900
     16     -4.2890     -6.8960     -0.7640      1.6800     78.3900
     17     -5.0600     -5.8780     -1.1390      1.7700     78.3900
     18     -5.3660     -4.8250     -0.3180      1.6800     78.3900
     19     -5.9680     -4.1130     -0.6940      0.0100     78.3900
     20     -4.9420     -4.6690      0.9940      1.7700     78.3900
     21     -5.2780     -3.6880      1.6650      1.5900     78.3900
     22     -4.1180     -5.7480      1.4010      1.7700     78.3900
     23     -3.5350     -6.0100      2.6310      1.6800     78.3900
     24     -2.9770     -7.1850      2.4690      1.7700     78.3900
     25     -2.4580     -7.7390      3.2480      0.0100     78.3900
     26     -1.5080     -8.8190     -0.3040      1.7700     78.3900
     27     -1.5580     -7.8700     -0.8750      0.0100     78.3900
     28     -1.5410     -9.9190     -1.1930      1.5900     78.3900
     29     -1.3330    -10.7290     -0.7040      0.0100     78.3900
     30     -0.2790     -8.8700      0.6080      1.7700     78.3900
     31     -0.1550     -7.9050      1.1570      0.0100     78.3900
     32      0.9380     -9.3100     -0.0370      1.5900     78.3900
     33      1.8370     -8.2940     -0.8350      2.1000     78.3900
     34      3.1520     -8.9290     -1.0720      1.5900     78.3900
     35      1.8530     -7.0000     -0.1220      1.5900     78.3900
     36      1.1750     -8.0760     -2.2240      1.5900     78.3900
     37      0.8390     -9.0700     -3.2040      1.7700     78.3900
     38      0.2840     -9.9170     -2.7510      0.0100     78.3900
     39      1.7700     -9.4860     -3.6530      0.0100     78.3900
     40     -0.0180     -8.4610     -4.3390      1.7700     78.3900
     41     -0.2630     -9.2180     -5.1160      0.0100     78.3900
     42     -1.2950     -7.9450     -3.8220      1.5900     78.3900
     43     -1.5510     -6.6580     -4.3870      1.7700     78.3900
     44     -2.5780     -6.7050     -4.8160      0.0100     78.3900
     45     -1.5070     -5.5520     -3.3740      1.6800     78.3900
     46     -0.7710     -5.7320     -2.2380      1.7700     78.3900
     47     -0.3760     -6.7120     -2.1080      0.0100     78.3900
     48     -0.6610     -4.7890     -1.2890      1.7700     78.3900
     49     -0.0680     -4.9440     -0.3940      0.0100     78.3900
     50     -2.1610     -4.3490     -3.5680      1.7700     78.3900
     51     -2.8150     -4.1710     -4.6110      1.5900     78.3900
     52     -2.0990     -3.3870     -2.6120      1.6800     78.3900
     53     -1.3730     -3.5880     -1.4970      1.7700     78.3900
     54     -1.3180     -2.6280     -0.5720      1.6800     78.3900
     55     -1.7910     -1.7640     -0.7600      0.0100     78.3900
     56     -0.7010     -2.6920      0.2110      0.0100     78.3900
     57     -0.5640     -6.4670     -5.5170      1.7700     78.3900
     58     -0.3100     -5.4030     -5.6550      0.0100     78.3900
     59     -1.0760     -7.0080     -6.7240      1.5900     78.3900
     60     -0.3390     -7.0600     -7.3490      0.0100     78.3900
     61      0.6430     -7.2480     -5.0200      1.7700     78.3900
     62      1.1650     -6.6670     -4.2250      0.0100     78.3900
     63      1.5380     -7.6940     -6.0580      1.5900     78.3900
     64      2.8170     -6.8650     -6.4440      2.1000     78.3900
     65      3.3800     -7.4240     -7.6920      1.5900     78.3900
     66      3.7180     -6.8150     -5.2790      1.5900     78.3900
     67      2.2880     -5.4160     -6.7280      1.5900     78.3900
     68      1.7080     -5.0800     -8.0090      1.7700     78.3900
     69      0.9110     -5.8050     -8.2930      0.0100     78.3900
     70      2.4900     -5.1060     -8.8050      0.0100     78.3900
     71      1.0870     -3.6750     -8.0040      1.7700     78.3900
     72      0.5310     -3.4830     -8.9480      0.0100     78.3900
     73      0.1350     -3.5420     -6.9180      1.5900     78.3900
     74      0.2130     -2.2510     -6.3590      1.7700     78.3900
     75     -0.8140     -1.8270     -6.4660      0.0100     78.3900
     76      0.6110     -2.2820     -4.9300      1.6800     78.3900
     77      1.3110     -3.3320     -4.3780      1.7700     78.3900
     78      1.4880     -4.1720     -5.0430      0.0100     78.3900
     79      0.2510     -1.1930     -4.1770      1.7700     78.3900
     80     -0.3640     -0.2450     -4.6410      1.5900     78.3900
     81      0.6420     -1.2590     -2.8650      1.6800     78.3900
     82      0.3360     -0.4580     -2.3210      0.0100     78.3900
     83      1.3480     -2.2610     -2.2360      1.7700     78.3900
     84      1.6280     -2.1660     -1.0420      1.5900     78.3900
     85      1.6790     -3.3640     -3.0870      1.7700     78.3900
     86      2.1940     -4.2200     -2.6600      0.0100     78.3900
     87      1.1780     -1.4480     -7.2120      1.7700     78.3900
     88      1.7650     -0.7250     -6.6060      0.0100     78.3900
     89      0.4890     -0.7620     -8.2410      1.5900     78.3900
     90      1.1670     -0.3270     -8.7700      0.0100     78.3900
     91      2.0810     -2.5410     -7.7830      1.7700     78.3900
     92      2.7990     -2.9070     -7.0170      0.0100     78.3900
     93      2.7360     -2.2340     -9.0260      1.5900     78.3900
     94      3.8880     -1.1730     -9.1170      2.1000     78.3900
     95      3.4110     -0.0870     -9.9910      1.5900     78.3900
     96      5.1180     -1.8950     -9.5300      1.5900     78.3900
     97      4.0910     -0.6840     -7.6400      1.5900     78.3900
     98      4.9700      0.4010     -7.3060      1.7700     78.3900
     99      5.8140      0.5290     -8.0220      0.0100     78.3900
    100      5.4290      0.1600     -6.3220      0.0100     78.3900
    101      4.2470      1.7350     -7.1580      1.7700     78.3900
    102      4.0440      2.2120     -8.1410      0.0100     78.3900
    103      2.9540      1.5540     -6.4920      1.5900     78.3900
    104      2.8240      2.5320     -5.4760      1.7700     78.3900
    105      1.8240      3.0070     -5.6140      0.0100     78.3900
    106      2.9150      1.9640     -4.1020      1.6800     78.3900
    107      3.2810      0.6470     -3.9550      1.7700     78.3900
    108      3.4420      0.0820     -4.8770      0.0100     78.3900
    109      3.4040      0.0890     -2.7530      1.7700     78.3900
    110      3.6770     -0.9560     -2.6250      0.0100     78.3900
    111      2.6650      2.7370     -2.9650      1.7700     78.3900
    112      2.3640      3.9310     -3.0940      1.5900     78.3900
    113      2.7660      2.1800     -1.7350      1.6800     78.3900
    114      3.1210      0.8890     -1.6140      1.7700     78.3900
    115      3.2030      0.3430     -0.4050      1.6800     78.3900
    116      2.9390      0.8620      0.4080      0.0100     78.3900
    117      3.3770     -0.6360     -0.2950      0.0100     78.3900
    118      3.8990      3.5470     -5.7600      1.7700     78.3900
    119      4.1740      4.1420     -4.8730      0.0100     78.3900
    120      3.4630      4.3450     -6.8230      1.5900     78.3900
    121      4.0030      5.1410     -6.8460      0.0100     78.3900
    122      5.0420      2.7020     -6.2600      1.7700     78.3900
    123      5.5010      2.1200     -5.4300      0.0100     78.3900
    124      6.0310      3.4030     -7.0560      1.5900     78.3900
    125      7.1460      4.3090     -6.4170      2.1000     78.3900
    126      8.2390      3.4170     -5.9380      1.5900     78.3900
    127      6.6030      5.2490     -5.4360      1.5900     78.3900
    128      7.7340      5.1480     -7.6230      1.5900     78.3900
    129      6.8580      5.8570     -8.5220      1.7700     78.3900
    130      7.3350      6.8110     -8.8360      0.0100     78.3900
    131      5.8990      6.1450     -8.0230      0.0100     78.3900
    132      6.5770      5.0050     -9.7610      1.7700     78.3900
    133      6.7500      3.9270     -9.5600      0.0100     78.3900
    134      5.1610      5.1400    -10.0410      1.5900     78.3900
    135      4.9560      5.2880    -11.4200      1.7700     78.3900
    136      4.1370      4.5920    -11.7110      0.0100     78.3900
    137      4.5600      6.6650    -11.7500      1.6800     78.3900
    138      3.5300      8.4010    -12.6160      1.7700     78.3900
    139      4.3150      8.8910    -11.5750      1.6800     78.3900
    140      4.8790      7.8230    -11.0770      1.7700     78.3900
    141      5.5370      7.8190    -10.2040      0.0100     78.3900
    142      1.9170      8.2300    -14.3500      1.6800     78.3900
    143      2.1880      6.9190    -14.3600      1.7700     78.3900
    144      1.6260      6.3350    -15.0970      0.0100     78.3900
    145      3.0530      6.2190    -13.6160      1.6800     78.3900
    146      3.6900      7.0330    -12.7500      1.7700     78.3900
    147      2.5780      9.0150    -13.4620      1.7700     78.3900
    148      2.2480     10.3160    -13.3850      1.6800     78.3900
    149      2.6300     10.9040    -12.6800      0.0100     78.3900
    150      1.6110     10.7040    -14.0520      0.0100     78.3900
    151      6.2210      4.8580    -12.0750      1.7700     78.3900
    152      6.3260      5.2980    -13.0560      0.0100     78.3900
    153      6.2280      3.4520    -12.2160      1.5900     78.3900
    154      6.3690      3.0560    -11.3480      0.0100     78.3900
    155      7.2730      5.3820    -11.0910      1.7700     78.3900
    156      7.3200      6.4910    -11.1380      0.0100     78.3900
    157      8.6080      4.8350    -11.1800      1.5900     78.3900
    158      9.2880      4.3990    -12.5410      2.1000     78.3900
    159      8.9280      2.9890    -12.8210      1.5900     78.3900
    160     10.7410      4.6650    -12.4960      1.5900     78.3900
    161      8.6950      5.3600    -13.6470      1.5900     78.3900
    162      8.2110      4.8560    -14.9240      1.7700     78.3900
    163      7.6480      3.9000    -14.7910      0.0100     78.3900
    164      9.0670      4.6460    -15.6070      0.0100     78.3900
    165      7.2640      5.8330    -15.6700      1.7700     78.3900
    166      6.5370      5.2680    -16.2910      0.0100     78.3900
    167      6.5100      6.6370    -14.7310      1.5900     78.3900
    168      6.3180      7.9260    -15.2090      1.7700     78.3900
    169      5.2110      8.0610    -15.2160      0.0100     78.3900
    170      6.9070      8.9120    -14.3250      1.6800     78.3900
    171      7.1760     10.7350    -13.1420      1.7700     78.3900
    172      8.2770      9.9290    -12.8670      1.6800     78.3900
    173      8.0660      8.8530    -13.5910      1.7700     78.3900
    174      8.7170      7.9750    -13.6300      0.0100     78.3900
    175      5.6040     12.5030    -13.1470      1.6800     78.3900
    176      4.9180     11.7840    -14.0400      1.7700     78.3900
    177      3.9890     12.2350    -14.4050      0.0100     78.3900
    178      5.2090     10.6020    -14.5770      1.6800     78.3900
    179      6.3360     10.1150    -14.0450      1.7700     78.3900
    180      6.7720     12.0030    -12.6710      1.7700     78.3900
    181      7.4790     12.7520    -11.8060      1.6800     78.3900
    182      8.3540     12.4450    -11.4250      0.0100     78.3900
    183      7.1200     13.6420    -11.5270      0.0100     78.3900
    184      6.8620      7.9760    -16.6000      1.7700     78.3900
    185      7.3140      8.9540    -16.8640      0.0100     78.3900
    186      5.7870      7.6740    -17.4650      1.5900     78.3900
    187      5.2690      8.4730    -17.6380      0.0100     78.3900
    188      7.9270      6.8690    -16.5760      1.7700     78.3900
    189      8.8400      7.2080    -16.0350      0.0100     78.3900
    190      8.2480      6.2770    -17.8580      1.5900     78.3900
    191      9.0340      7.1630    -18.9000      2.1000     78.3900
    192      9.4440      6.3080    -20.0340      1.5900     78.3900
    193     10.1070      7.8980    -18.1950      1.5900     78.3900
    194      7.9890      8.2120    -19.4170      1.5900     78.3900
    195      6.8750      7.8210    -20.2530      1.7700     78.3900
    196      6.1530      7.1660    -19.7190      0.0100     78.3900
    197      7.2290      7.2400    -21.1360      0.0100     78.3900
    198      6.1440      9.0630    -20.7790      1.7700     78.3900
    199      5.4000      8.7780    -21.5540      0.0100     78.3900
    200      5.4150      9.7590    -19.7200      1.5900     78.3900
    201      5.4910     11.1650    -19.9460      1.7700     78.3900
    202      4.4390     11.5080    -20.0760      0.0100     78.3900
    203      6.0990     11.8890    -18.7930      1.6800     78.3900
    204      7.1510     11.2940    -18.1380      1.7700     78.3900
    205      7.4500     10.3120    -18.5100      0.0100     78.3900
    206      7.7350     11.8690    -17.0830      1.7700     78.3900
    207      8.5510     11.3930    -16.5400      0.0100     78.3900
    208      5.6600     13.1530    -18.3870      1.7700     78.3900
    209      4.7360     13.7100    -19.0090      1.5900     78.3900
    210      6.2380     13.7530    -17.3150      1.6800     78.3900
    211      7.2440     13.1360    -16.6620      1.7700     78.3900
    212      7.7970     13.7150    -15.5990      1.6800     78.3900
    213      7.4730     14.5970    -15.2500      0.0100     78.3900
    214      8.6150     13.3330    -15.1670      0.0100     78.3900
    215      6.2370     11.3890    -21.2590      1.7700     78.3900
    216      6.8890     12.2880    -21.2170      0.0100     78.3900
    217      5.3260     11.5060    -22.3420      1.5900     78.3900
    218      4.8860     10.6520    -22.4680      0.0100     78.3900
    219      7.0870     10.1230    -21.3550      1.7700     78.3900
    220      7.9680     10.2220    -20.6870      0.0100     78.3900
    221      7.4960      9.7500    -22.6830      1.5900     78.3900
    222      8.1020     10.4230    -23.0370      0.0100     78.3900
    223      5.6230     23.4980    -11.3860      0.0100     78.3900
    224      5.2310     22.9030    -12.0570      1.5900     78.3900
    225      3.8950     23.3630    -12.3060      1.7700     78.3900
    226      3.9140     24.4640    -12.4700      0.0100     78.3900
    227      3.2990     23.1720    -11.3920      0.0100     78.3900
    228      3.1710     22.6970    -13.4960      1.7700     78.3900
    229      2.4440     23.4110    -13.9450      0.0100     78.3900
    230      4.0980     22.2790    -14.5480      1.5900     78.3900
    231      3.7230     20.9880    -15.0180      1.7700     78.3900
    232      3.6800     21.0440    -16.1300      0.0100     78.3900
    233      4.6990     19.9600    -14.6190      1.6800     78.3900
    234      4.8980     18.7480    -15.2270      1.7700     78.3900
    235      4.1170     16.4330    -17.6920      1.6800     78.3900
    236      3.3760     16.8780    -18.1900      0.0100     78.3900
    237      4.4330     15.5310    -17.9880      0.0100     78.3900
    238      4.2390     18.2830    -16.3050      1.6800     78.3900
    239      4.6580     17.0680    -16.6670      1.7700     78.3900
    240      5.6750     16.4060    -16.0340      1.6800     78.3900
    241      5.9560     15.5170    -16.4120      0.0100     78.3900
    242      6.3930     16.8800    -14.9440      1.7700     78.3900
    243      7.3130     16.2240    -14.4500      1.5900     78.3900
    244      5.9150     18.1420    -14.5120      1.7700     78.3900
    245      6.3300     18.9430    -13.4570      1.6800     78.3900
    246      5.5830     20.0140    -13.5630      1.7700     78.3900
    247      5.6410     20.8820    -12.9100      0.0100     78.3900
    248      2.3450     20.6920    -14.4750      1.7700     78.3900
    249      2.1700     19.6040    -14.3250      0.0100     78.3900
    250      1.3600     21.2260    -15.3440      1.5900     78.3900
    251      0.5140     21.2090    -14.8740      0.0100     78.3900
    252      2.3850     21.4280    -13.1400      1.7700     78.3900
    253      3.0170     20.8620    -12.4140      0.0100     78.3900
    254      1.0880     21.7860    -12.6150      1.5900     78.3900
    255      0.5290     21.0960    -11.3150      2.1000     78.3900
    256     -0.7410     21.7510    -10.9410      1.5900     78.3900
    257      1.5820     21.0750    -10.2780      1.5900     78.3900
    258      0.2350     19.6310    -11.7960      1.5900     78.3900
    259     -0.6460     19.4150    -12.9280      1.7700     78.3900
    260     -0.3330     20.0100    -13.8140      0.0100     78.3900
    261     -1.6930     19.7130    -12.6840      0.0100     78.3900
    262     -0.6250     17.9470    -13.3510      1.7700     78.3900
    263     -1.3640     17.7500    -14.1580      0.0100     78.3900
    264      0.6860     17.6210    -13.8810      1.5900     78.3900
    265      0.9700     16.2640    -13.6390      1.7700     78.3900
    266      1.0010     15.7860    -14.6480      0.0100     78.3900
    267      2.2660     16.0840    -12.9400      1.6800     78.3900
    268      2.7570     17.0430    -12.0800      1.7700     78.3900
    269      2.1290     17.9310    -11.9720      0.0100     78.3900
    270      2.9640     14.9260    -13.1810      1.7700     78.3900
    271      2.5630     14.0560    -13.9470      1.5900     78.3900
    272      4.1530     14.8260    -12.5130      1.6800     78.3900
    273      4.6950     13.9880    -12.6990      0.0100     78.3900
    274      4.7290     15.7370    -11.6640      1.7700     78.3900
    275      5.8270     15.4980    -11.1620      1.5900     78.3900
    276      3.9410     16.9160    -11.4540      1.7700     78.3900
    277      4.3360     17.6950    -10.8090      0.0100     78.3900
    278     -0.1960     15.6870    -12.8570      1.7700     78.3900
    279      0.1360     14.9820    -12.0610      0.0100     78.3900
    280     -1.0910     15.0360    -13.7350      1.5900     78.3900
    281     -1.8000     14.7230    -13.1530      0.0100     78.3900
    282     -0.8520     16.9300    -12.2350      1.7700     78.3900
    283     -0.2710     17.2660    -11.3490      0.0100     78.3900
    284     -2.2710     16.8500    -11.9510      1.5900     78.3900
    285     -2.8210     15.9960    -10.7590      2.1000     78.3900
    286     -4.2990     15.9500    -10.8240      1.5900     78.3900
    287     -2.2490     16.5230     -9.5050      1.5900     78.3900
    288     -2.2180     14.5920    -11.0370      1.5900     78.3900
    289     -2.8340     13.4500    -11.6380      1.7700     78.3900
    290     -2.6580     13.4390    -12.7330      0.0100     78.3900
    291     -3.9360     13.4310    -11.4650      0.0100     78.3900
    292     -2.2220     12.1660    -11.0780      1.7700     78.3900
    293     -2.5170     11.2840    -11.6860      0.0100     78.3900
    294     -0.7530     12.2170    -11.0670      1.5900     78.3900
    295     -0.2950     11.7450     -9.8080      1.7700     78.3900
    296      0.4840     10.9900    -10.0350      0.0100     78.3900
    297      0.3280     12.8290     -8.9950      1.6800     78.3900
    298      1.5850     12.8690     -8.4130      1.7700     78.3900
    299      4.6090     11.3750     -7.6710      1.6800     78.3900
    300      4.4080     10.4970     -8.0880      0.0100     78.3900
    301      5.0620     11.3470     -6.7680      0.0100     78.3900
    302      2.5250     11.9090     -8.4570      1.6800     78.3900
    303      3.6130     12.2270     -7.7680      1.7700     78.3900
    304      3.7860     13.4280     -7.1320      1.6800     78.3900
    305      4.6310     13.5850     -6.6050      0.0100     78.3900
    306      2.8530     14.4540     -7.0970      1.7700     78.3900
    307      3.0720     15.5200     -6.5100      1.5900     78.3900
    308      1.6690     14.1050     -7.7950      1.7700     78.3900
    309      0.5060     14.8280     -7.9720      1.6800     78.3900
    310     -0.2530     14.0380     -8.6880      1.7700     78.3900
    311     -1.2440     14.3030     -9.0340      0.0100     78.3900
    312     -1.5010     11.0800     -9.1270      1.7700     78.3900
    313     -1.4060     11.0790     -8.0210      0.0100     78.3900
    314     -1.6860      9.7550     -9.5860      1.5900     78.3900
    315     -1.9980      9.7640    -10.4960      0.0100     78.3900
    316     -2.6490     11.9340     -9.6260      1.7700     78.3900
    317     -2.6530     12.9190     -9.1140      0.0100     78.3900
    318     -3.9520     11.3140     -9.6270      1.5900     78.3900
    319     -4.9000     11.4410     -8.3880      2.1000     78.3900
    320     -6.1520     10.7100     -8.7080      1.5900     78.3900
    321     -5.0440     12.8750     -8.0610      1.5900     78.3900
    322     -4.1620     10.7140     -7.2090      1.5900     78.3900
    323     -4.9150     10.0810     -6.1470      1.7700     78.3900
    324     -5.8120      9.5430     -6.5380      0.0100     78.3900
    325     -5.2740     10.8480     -5.4260      0.0100     78.3900
    326     -4.0560      9.0910     -5.3420      1.7700     78.3900
    327     -4.3590      9.0730     -4.2760      0.0100     78.3900
    328     -4.3150      7.7530     -5.8490      1.5900     78.3900
    329     -3.0940      7.0610     -6.0160      1.7700     78.3900
    330     -3.2230      6.0570     -5.5390      0.0100     78.3900
    331     -2.8010      6.8720     -7.4400      1.6800     78.3900
    332     -2.0340      6.0740     -9.3380      1.7700     78.3900
    333     -3.0390      6.9660     -9.6790      1.6800     78.3900
    334     -3.4530      7.4240     -8.5190      1.7700     78.3900
    335     -4.2320      8.1760     -8.3770      0.0100     78.3900
    336     -0.4330      4.3360     -9.4420      1.6800     78.3900
    337     -0.3280      4.4600     -8.1150      1.7700     78.3900
    338      0.4120      3.8120     -7.6300      0.0100     78.3900
    339     -1.0360      5.2350     -7.2860      1.6800     78.3900
    340     -1.8830      6.0110     -7.9650      1.7700     78.3900
    341     -1.2760      5.1670    -10.1050      1.7700     78.3900
    342     -1.2800      5.1590    -11.4520      1.6800     78.3900
    343     -1.7140      5.9270    -11.9250      0.0100     78.3900
    344     -0.4410      4.8210    -11.8770      0.0100     78.3900
    345     -2.0270      7.8440     -5.2750      1.7700     78.3900
    346     -1.0150      7.7070     -5.7130      0.0100     78.3900
    347     -1.9890      7.4500     -3.9160      1.5900     78.3900
    348     -2.8770      7.2290     -3.5900      0.0100     78.3900
    349     -2.5220      9.2750     -5.4360      1.7700     78.3900
    350     -2.2580      9.6010     -6.4700      0.0100     78.3900
    351     -2.0940     10.2260     -4.4300      1.5900     78.3900
    352     -0.6370     10.8380     -4.4330      2.1000     78.3900
    353     -0.4590     11.6510     -3.2090      1.5900     78.3900
    354     -0.4170     11.5380     -5.7130      1.5900     78.3900
    355      0.3210      9.6280     -4.3770      1.5900     78.3900
    356      1.3270      9.2480     -3.4360      1.7700     78.3900
    357      0.8400      8.8530     -2.5210      0.0100     78.3900
    358      1.9640     10.1100     -3.1560      0.0100     78.3900
    359      2.2460      8.1390     -3.9840      1.7700     78.3900
    360      2.6260      7.4820     -3.1730      0.0100     78.3900
    361      1.5020      7.2910     -4.8850      1.5900     78.3900
    362      2.2800      7.0020     -6.0040      1.7700     78.3900
    363      2.1430      5.9180     -6.0780      0.0100     78.3900
    364      1.7760      7.6140     -7.2040      1.6800     78.3900
    365      1.1790      8.0900     -9.2480      1.7700     78.3900
    366      0.8500      9.1530     -8.4770      1.6800     78.3900
    367      1.1910      8.8360     -7.2810      1.7700     78.3900
    368      1.0840      9.4870     -6.4220      0.0100     78.3900
    369      1.3750      6.6320    -11.0670      1.6800     78.3900
    370      2.0090      5.8170    -10.2230      1.7700     78.3900
    371      2.3140      4.8700    -10.6990      0.0100     78.3900
    372      2.3050      5.9800     -8.9340      1.6800     78.3900
    373      1.7990      7.1290     -8.4860      1.7700     78.3900
    374      0.9370      7.8100    -10.6000      1.7700     78.3900
    375      0.2940      8.6290    -11.4500      1.6800     78.3900
    376     -0.0310      9.5130    -11.1170      0.0100     78.3900
    377      0.3630      8.4450    -12.4270      0.0100     78.3900
    378      3.6910      7.4420     -5.7180      1.7700     78.3900
    379      4.2730      7.7010     -6.6320      0.0100     78.3900
    380      4.3380      6.4390     -4.9790      1.5900     78.3900
    381      5.3070      6.4880     -5.0920      0.0100     78.3900
    382      3.4440      8.6380     -4.8210      1.7700     78.3900
    383      3.0840      9.5180     -5.3940      0.0100     78.3900
    384      4.5480      8.9580     -3.9600      1.5900     78.3900
    385      5.7670      9.7940     -4.4470      2.1000     78.3900
    386      5.2310     10.9760     -5.1510      1.5900     78.3900
    387      6.7010      8.9260     -5.1910      1.5900     78.3900
    388      6.4350     10.2550     -3.0910      1.5900     78.3900
    389      6.6440     11.6640     -2.7940      1.7700     78.3900
    390      6.1510     12.3510     -3.5220      0.0100     78.3900
    391      7.7340     11.8750     -2.8370      0.0100     78.3900
    392      6.1220     12.1080     -1.4020      1.7700     78.3900
    393      6.0650     13.2160     -1.3490      0.0100     78.3900
    394      4.7770     11.5950     -1.1320      1.5900     78.3900
    395      4.7230     11.0270      0.1830      1.7700     78.3900
    396      3.8060     11.4400      0.6600      0.0100     78.3900
    397      4.6590      9.5250      0.1650      1.6800     78.3900
    398      4.5820      8.8550     -1.0290      1.7700     78.3900
    399      4.5070      9.5150     -1.8820      0.0100     78.3900
    400      4.6020      8.8210      1.3490      1.7700     78.3900
    401      4.5660      9.3610      2.4480      1.5900     78.3900
    402      4.6030      7.4560      1.2080      1.6800     78.3900
    403      4.5470      6.9310      2.0750      0.0100     78.3900
    404      4.6560      6.7270      0.0430      1.7700     78.3900
    405      4.7800      5.5050      0.0890      1.5900     78.3900
    406      4.5920      7.5180     -1.1400      1.7700     78.3900
    407      4.6040      7.0280     -2.1130      0.0100     78.3900
    408      5.9580     11.5400      0.9070      1.7700     78.3900
    409      6.3240     10.8450      1.6880      0.0100     78.3900
    410      5.7080     12.8060      1.4930      1.5900     78.3900
    411      6.5680     13.1680      1.7460      0.0100     78.3900
    412      6.9680     11.6260     -0.2230      1.7700     78.3900
    413      7.3070     10.6040     -0.5130      0.0100     78.3900
    414      8.0480     12.5520      0.0260      1.5900     78.3900
    415      9.4710     12.0190      0.4050      2.1000     78.3900
    416     10.4450     13.1150      0.1950      1.5900     78.3900
    417      9.7180     10.7520     -0.3140      1.5900     78.3900
    418      9.3490     11.7030      1.9390      1.5900     78.3900
    419      9.4440     12.7330      2.9480      1.7700     78.3900
    420      8.5830     13.4410      2.8710      0.0100     78.3900
    421     10.3890     13.3150      2.8350      0.0100     78.3900
    422      9.4500     12.1290      4.3640      1.7700     78.3900
    423      9.5260     12.9350      5.1240      0.0100     78.3900
    424      8.1920     11.4330      4.6190      1.5900     78.3900
    425      8.4520     10.2240      5.3310      1.7700     78.3900
    426      7.8130     10.2620      6.2450      0.0100     78.3900
    427      8.1230      8.9930      4.5400      1.6800     78.3900
    428      7.9540      9.0840      3.1780      1.7700     78.3900
    429      8.0050     10.0870      2.7590      0.0100     78.3900
    430      7.7050      8.0100      2.4250      1.7700     78.3900
    431      7.5590      8.0860      1.3480      0.0100     78.3900
    432      8.0400      7.7420      5.1520      1.7700     78.3900
    433      8.2140      7.6640      6.3800      1.5900     78.3900
    434      7.7780      6.6350      4.4110      1.6800     78.3900
    435      7.6220      6.7480      3.0760      1.7700     78.3900
    436      7.3800      5.6580      2.3480      1.6800     78.3900
    437      7.0820      4.8160      2.7930      0.0100     78.3900
    438      7.2360      5.7200      1.3620      0.0100     78.3900
    439      9.9190     10.2520      5.7510      1.7700     78.3900
    440     10.3580      9.2350      5.7710      0.0100     78.3900
    441     10.0790     10.8490      7.0220      1.5900     78.3900
    442     11.0320     10.9250      7.1670      0.0100     78.3900
    443     10.5580     11.1020      4.6560      1.7700     78.3900
    444     10.6780     10.5010      3.7260      0.0100     78.3900
    445     11.7740     11.7870      5.0490      1.5900     78.3900
    446     13.1880     11.1550      4.7680      2.1000     78.3900
    447     14.2110     12.2240      4.8190      1.5900     78.3900
    448     13.1470     10.3480      3.5300      1.5900     78.3900
    449     13.4040     10.1560      5.9490      1.5900     78.3900
    450     13.8760     10.4430      7.2690      1.7700     78.3900
    451     13.1780     11.1260      7.8080      0.0100     78.3900
    452     14.8770     10.9260      7.2190      0.0100     78.3900
    453     14.0140      9.1380      8.0810      1.7700     78.3900
    454     14.3000      9.3600      9.1310      0.0100     78.3900
    455     12.7350      8.4280      8.1240      1.5900     78.3900
    456     12.9630      7.0330      7.9660      1.7700     78.3900
    457     12.4550      6.5210      8.8150      0.0100     78.3900
    458     12.3880      6.5550      6.7000      1.6800     78.3900
    459     11.5040      5.3350      5.1000      1.7700     78.3900
    460     11.5950      6.6170      4.5940      1.6800     78.3900
    461     12.1170      7.2960      5.5750      1.7700     78.3900
    462     12.2910      8.3610      5.5390      0.0100     78.3900
    463     11.0760      3.0270      5.3110      1.6800     78.3900
    464     11.5690      3.1210      6.5520      1.7700     78.3900
    465     11.5990      2.1850      7.1220      0.0100     78.3900
    466     12.0470      4.1970      7.1890      1.6800     78.3900
    467     11.9850      5.2800      6.3990      1.7700     78.3900
    468     11.0250      4.1430      4.5370      1.7700     78.3900
    469     10.5420      4.0810      3.2820      1.6800     78.3900
    470     10.6270      4.8500      2.6400      0.0100     78.3900
    471     10.2420      3.1980      2.9050      0.0100     78.3900
    472     14.4620      6.7920      8.0610      1.7700     78.3900
    473     14.7910      5.9370      7.4300      0.0100     78.3900
    474     14.8270      6.5580      9.4130      1.5900     78.3900
    475     15.7980      6.5470      9.4950      0.0100     78.3900
    476     15.0150      8.1110      7.5210      1.7700     78.3900
    477     14.9490      8.1330      6.4110      0.0100     78.3900
    478     16.3490      8.4250      7.9590      1.5900     78.3900
    479     16.9850      7.7630      7.6300      0.0100     78.3900
    480      7.7540     -4.6640      1.6030      0.0100     78.3900
    481      7.7670     -4.3370      2.5210      1.5900     78.3900
    482      8.3010     -5.3860      3.3420      1.7700     78.3900
    483      9.1470     -5.8780      2.8150      0.0100     78.3900
    484      7.4980     -6.1400      3.4800      0.0100     78.3900
    485      8.7790     -4.9290      4.7360      1.7700     78.3900
    486      9.0160     -5.8070      5.3760      0.0100     78.3900
    487     10.0210     -4.1670      4.6030      1.5900     78.3900
    488      9.9740     -3.0140      5.4370      1.7700     78.3900
    489     10.9170     -3.0080      6.0350      0.0100     78.3900
    490      9.8650     -1.7590      4.6320      1.6800     78.3900
    491      9.3660     -1.7930      3.3460      1.7700     78.3900
    492      9.2830     -2.7810      2.9110      0.0100     78.3900
    493     10.2530     -0.5670      5.1970      1.7700     78.3900
    494     10.6950     -0.4860      6.3390      1.5900     78.3900
    495     10.1250      0.5280      4.3790      1.6800     78.3900
    496     10.4690      1.4050      4.7490      0.0100     78.3900
    497      9.6910      0.5500      3.0690      1.7700     78.3900
    498      9.7760      1.5800      2.4050      1.5900     78.3900
    499      9.2360     -0.7040      2.5790      1.7700     78.3900
    500      8.9510     -0.7780      1.5320      0.0100     78.3900
    501      8.8010     -3.2000      6.3760      1.7700     78.3900
    502      8.3610     -2.2330      6.6890      0.0100     78.3900
    503      9.1940     -3.9350      7.5200      1.5900     78.3900
    504      8.3820     -4.1580      7.9940      0.0100     78.3900
    505      7.8300     -3.9940      5.5100      1.7700     78.3900
    506      7.3540     -3.3180      4.7610      0.0100     78.3900
    507      6.8780     -4.7750      6.2610      1.5900     78.3900
    508      5.3750     -4.3460      6.3910      2.1000     78.3900
    509      4.6100     -5.4710      6.9790      1.5900     78.3900
    510      4.8880     -3.8280      5.0950      1.5900     78.3900
    511      5.3860     -3.1500      7.4140      1.5900     78.3900
    512      5.8360     -3.3540      8.7750      1.7700     78.3900
    513      6.7610     -3.9730      8.8200      0.0100     78.3900
    514      5.0490     -3.8780      9.3650      0.0100     78.3900
    515      6.1580     -2.0290      9.4750      1.7700     78.3900
    516      6.4400     -2.2030     10.5370      0.0100     78.3900
    517      7.3050     -1.4140      8.8200      1.5900     78.3900
    518      7.0860     -0.0230      8.6720      1.7700     78.3900
    519      7.9820      0.4870      9.0940      0.0100     78.3900
    520      6.9600      0.3560      7.2470      1.6800     78.3900
    521      7.2210      1.5870      6.7060      1.7700     78.3900
    522      7.8970      4.9530      7.1210      1.6800     78.3900
    523      7.9930      5.0430      8.1090      0.0100     78.3900
    524      7.8810      5.7880      6.5610      0.0100     78.3900
    525      7.5790      2.6860      7.3890      1.6800     78.3900
    526      7.6890      3.7560      6.6070      1.7700     78.3900
    527      7.5460      3.7120      5.2470      1.6800     78.3900
    528      7.6280      4.5790      4.7450      0.0100     78.3900
    529      7.2350      2.5760      4.5060      1.7700     78.3900
    530      7.1240      2.6320      3.2800      1.5900     78.3900
    531      7.0300      1.4450      5.3440      1.7700     78.3900
    532      6.6150      0.1570      5.0300      1.6800     78.3900
    533      6.5800     -0.4480      6.1930      1.7700     78.3900
    534      6.3150     -1.4890      6.3340      0.0100     78.3900
    535      5.8770      0.3330      9.5070      1.7700     78.3900
    536      5.3140      1.1800      9.0690      0.0100     78.3900
    537      6.2770      0.6510     10.8320      1.5900     78.3900
    538      5.4650      0.7450     11.3640      0.0100     78.3900
    539      5.0520     -0.9630      9.4430      1.7700     78.3900
    540      4.5410     -1.0400      8.4580      0.0100     78.3900
    541      4.1180     -1.2010     10.5170      1.5900     78.3900
    542      3.0530     -0.1390     10.9720      2.1000     78.3900
    543      3.6750      0.6400     12.0690      1.5900     78.3900
    544      1.7900     -0.8470     11.2960      1.5900     78.3900
    545      2.8430      0.7600      9.6970      1.5900     78.3900
    546      2.0510      1.9690      9.7480      1.7700     78.3900
    547      1.2290      1.9100     10.4970      0.0100     78.3900
    548      1.5500      2.0430      8.7580      0.0100     78.3900
    549      2.8200      3.2970      9.9650      1.7700     78.3900
    550      2.9560      3.5270     11.0440      0.0100     78.3900
    551      4.1460      3.2580      9.3670      1.5900     78.3900
    552      4.3630      4.4200      8.5810      1.7700     78.3900
    553      5.3670      4.8190      8.8560      0.0100     78.3900
    554      4.3460      4.0800      7.1570      1.6800     78.3900
    555      4.4340      4.1290      4.9660      1.7700     78.3900
    556      4.3090      2.7960      5.3210      1.6800     78.3900
    557      4.2500      2.8190      6.6230      1.7700     78.3900
    558      4.1550      1.9400      7.2650      0.0100     78.3900
    559      4.5700      6.1210      3.7110      1.6800     78.3900
    560      4.5350      6.7720      4.8770      1.7700     78.3900
    561      4.5580      7.8670      4.8060      0.0100     78.3900
    562      4.5480      6.2720      6.1150      1.6800     78.3900
    563      4.4540      4.9340      6.0880      1.7700     78.3900
    564      4.5500      4.7680      3.7170      1.7700     78.3900
    565      4.6840      4.1080      2.5520      1.6800     78.3900
    566      4.7650      3.1090      2.5230      0.0100     78.3900
    567      4.7010      4.6110      1.6820      0.0100     78.3900
    568      3.2880      5.4100      8.9480      1.7700     78.3900
    569      3.0190      6.0970      8.1170      0.0100     78.3900
    570      3.6740      6.1670     10.0770      1.5900     78.3900
    571      2.9030      6.7140     10.3100      0.0100     78.3900
    572      2.1270      4.4720      9.2550      1.7700     78.3900
    573      1.7140      4.0700      8.3010      0.0100     78.3900
    574      1.0780      5.0060     10.0860      1.5900     78.3900
    575      0.2810      6.2820      9.6250      2.1000     78.3900
    576      1.0850      7.4580     10.0240      1.5900     78.3900
    577     -1.0910      6.1810     10.1730      1.5900     78.3900
    578      0.2610      6.1470      8.0590      1.5900     78.3900
    579     -0.8660      6.5150      7.2320      1.7700     78.3900
    580     -1.6780      7.0230      7.8010      0.0100     78.3900
    581     -1.3040      5.5750      6.8340      0.0100     78.3900
    582     -0.4990      7.4150      6.0180      1.7700     78.3900
    583     -0.6620      8.4860      6.2680      0.0100     78.3900
    584      0.9240      7.2990      5.6670      1.5900     78.3900
    585      1.0400      7.0290      4.2760      1.7700     78.3900
    586      1.8960      7.6240      3.8840      0.0100     78.3900
    587      1.2620      5.5990      4.0350      1.6800     78.3900
    588      1.4890      5.0040      2.8220      1.7700     78.3900
    589      1.8140      5.1990     -0.6110      1.6800     78.3900
    590      1.5870      6.1490     -0.7870      0.0100     78.3900
    591      2.0190      4.6000     -1.3930      0.0100     78.3900
    592      1.5830      5.6330      1.6350      1.6800     78.3900
    593      1.8540      4.7910      0.6420      1.7700     78.3900
    594      2.1390      3.4660      0.8340      1.6800     78.3900
    595      2.3620      2.9210      0.0160      0.0100     78.3900
    596      2.0410      2.7920      2.0490      1.7700     78.3900
    597      2.2840      1.5840      2.1360      1.5900     78.3900
    598      1.6320      3.6590      3.1000      1.7700     78.3900
    599      1.4370      3.4070      4.4570      1.6800     78.3900
    600      1.2420      4.5930      4.9740      1.7700     78.3900
    601      1.1210      4.8170      6.0380      0.0100     78.3900
    602     -0.2510      7.4690      3.6400      1.7700     78.3900
    603     -0.4670      6.9430      2.6840      0.0100     78.3900
    604     -0.2530      8.8650      3.4260      1.5900     78.3900
    605     -1.1560      9.1160      3.1810      0.0100     78.3900
    606     -1.2440      7.0630      4.7130      1.7700     78.3900
    607     -1.3540      5.9520      4.7140      0.0100     78.3900
    608     -2.5030      7.7650      4.6390      1.5900     78.3900
    609     -3.7820      7.0120      4.1230      2.1000     78.3900
    610     -4.9530      7.8950      4.3010      1.5900     78.3900
    611     -3.8420      5.6910      4.7780      1.5900     78.3900
    612     -3.5160      6.7930      2.5840      1.5900     78.3900
    613     -3.9100      7.8040      1.6210      1.7700     78.3900
    614     -3.2980      8.7270      1.7480      0.0100     78.3900
    615     -4.9840      8.0800      1.7470      0.0100     78.3900
    616     -3.7450      7.3290      0.1660      1.7700     78.3900
    617     -3.9460      8.1550     -0.5480      0.0100     78.3900
    618     -2.3800      6.8930     -0.0690      1.5900     78.3900
    619     -2.3910      5.7690     -0.9340      1.7700     78.3900
    620     -1.7950      6.0390     -1.8300      0.0100     78.3900
    621     -1.7750      4.5930     -0.3130      1.6800     78.3900
    622     -0.8640      2.6180      0.0200      1.7700     78.3900
    623     -0.9400      3.2290      1.2630      1.6800     78.3900
    624     -1.4640      4.4050      1.0080      1.7700     78.3900
    625     -1.6210      5.2020      1.7400      0.0100     78.3900
    626     -0.3510      1.1140     -1.7260      1.6800     78.3900
    627     -0.9030      2.0080     -2.5470      1.7700     78.3900
    628     -0.9260      1.7200     -3.6000      0.0100     78.3900
    629     -1.4190      3.2080     -2.2710      1.6800     78.3900
    630     -1.3780      3.4480     -0.9580      1.7700     78.3900
    631     -0.3200      1.3850     -0.4070      1.7700     78.3900
    632      0.2470      0.4620      0.3910      1.6800     78.3900
    633      0.4850      0.6660      1.3450      0.0100     78.3900
    634      0.7120     -0.3120     -0.0340      0.0100     78.3900
    635     -3.8240      5.5120     -1.3610      1.7700     78.3900
    636     -4.0280      4.4260     -1.4130      0.0100     78.3900
    637     -4.0990      6.1240     -2.6080      1.5900     78.3900
    638     -5.0010      5.9010     -2.8700      0.0100     78.3900
    639     -4.6270      6.1400     -0.2320      1.7700     78.3900
    640     -4.6290      5.4710      0.6550      0.0100     78.3900
    641     -5.9570      6.5960     -0.6020      1.5900     78.3900
    642     -7.1690      5.5930     -0.5320      2.1000     78.3900
    643     -8.4110      6.3500     -0.2660      1.5900     78.3900
    644     -6.8500      4.5190      0.4360      1.5900     78.3900
    645     -7.2580      4.9620     -1.9660      1.5900     78.3900
    646     -7.8220      5.5940     -3.1290      1.7700     78.3900
    647     -7.1640      6.4230     -3.4780      0.0100     78.3900
    648     -8.8170      6.0450     -2.9010      0.0100     78.3900
    649     -7.9730      4.5830     -4.2910      1.7700     78.3900
    650     -8.5190      5.0460     -5.1390      0.0100     78.3900
    651     -6.6380      4.2370     -4.7870      1.5900     78.3900
    652     -6.5390      2.8240     -4.9650      1.7700     78.3900
    653     -6.0650      2.6440     -5.9580      0.0100     78.3900
    654     -5.7160      2.2000     -3.9140      1.6800     78.3900
    655     -5.1400      0.9590     -3.8990      1.7700     78.3900
    656     -4.4160     -2.0550     -5.4290      1.6800     78.3900
    657     -4.9630     -2.0330     -6.2640      0.0100     78.3900
    658     -3.8800     -2.8730     -5.2010      0.0100     78.3900
    659     -5.1840      0.0520     -4.8900      1.6800     78.3900
    660     -4.4590     -1.0290     -4.6070      1.7700     78.3900
    661     -3.7350     -1.1700     -3.4550      1.6800     78.3900
    662     -3.1700     -1.9950     -3.3300      0.0100     78.3900
    663     -3.6680     -0.2560     -2.4180      1.7700     78.3900
    664     -3.0030     -0.4660     -1.4010      1.5900     78.3900
    665     -4.4640      0.8800     -2.6910      1.7700     78.3900
    666     -4.6270      2.0370     -1.9560      1.6800     78.3900
    667     -5.3510      2.7900     -2.7360      1.7700     78.3900
    668     -5.5530      3.8380     -2.5750      0.0100     78.3900
    669     -7.9460      2.2880     -4.9730      1.7700     78.3900
    670     -8.0080      1.2260     -4.6520      0.0100     78.3900
    671     -8.4700      2.4360     -6.2790      1.5900     78.3900
    672     -8.6310      3.3770     -6.4340      0.0100     78.3900
    673     -8.6410      3.2180     -3.9740      1.7700     78.3900
    674     -8.3520      2.9480     -2.9320      0.0100     78.3900
    675    -10.0740      3.3190     -4.1370      1.5900     78.3900
    676    -11.0620      2.3060     -3.4380      2.1000     78.3900
    677    -12.4460      2.7180     -3.7470      1.5900     78.3900
    678    -10.7160      2.1870     -2.0050      1.5900     78.3900
    679    -10.8130      0.9060     -4.0990      1.5900     78.3900
    680    -11.0710      0.6160     -5.4860      1.7700     78.3900
    681    -10.6230      1.3840     -6.1520      0.0100     78.3900
    682    -12.1680      0.6170     -5.6780      0.0100     78.3900
    683    -10.5210     -0.7630     -5.9040      1.7700     78.3900
    684    -10.6620     -0.9180     -6.9980      0.0100     78.3900
    685     -9.0900     -0.8800     -5.6410      1.5900     78.3900
    686     -8.7960     -2.1660     -5.1040      1.7700     78.3900
    687     -8.0050     -2.6000     -5.7570      0.0100     78.3900
    688     -8.2760     -2.1030     -3.6980      1.6800     78.3900
    689     -8.5750     -1.0140     -2.9210      1.7700     78.3900
    690     -9.1230     -0.2250     -3.4090      0.0100     78.3900
    691     -8.1530     -0.9020     -1.6570      1.7700     78.3900
    692     -8.3950     -0.0350     -1.0480      0.0100     78.3900
    693     -7.5020     -3.1220     -3.1590      1.7700     78.3900
    694     -7.2140     -4.1010     -3.8680      1.5900     78.3900
    695     -7.0580     -3.0360     -1.8770      1.6800     78.3900
    696     -7.3720     -1.9580     -1.1280      1.7700     78.3900
    697     -6.9360     -1.8680      0.1330      1.6800     78.3900
    698     -6.3690     -2.5760      0.5550      0.0100     78.3900
    699     -7.1780     -1.0810      0.7030      0.0100     78.3900
    700    -10.0580     -3.0110     -5.2340      1.7700     78.3900
    701    -10.1690     -3.7320     -4.3930      0.0100     78.3900
    702    -10.0710     -3.7100     -6.4720      1.5900     78.3900
    703    -10.0900     -3.0740     -7.2050      0.0100     78.3900
    704    -11.1470     -1.9370     -5.1500      1.7700     78.3900
    705    -11.2850     -1.6170     -4.0940      0.0100     78.3900
    706    -12.4080     -2.2930     -5.7420      1.5900     78.3900
    707    -12.7890     -3.0530     -5.2690      0.0100     78.3900

     ----------------------------
     INPUT FOR TESSERA DEFINITION
     ----------------------------
     NTSALL  =        60     MTHALL  =         4
     MTHAUT  =         0     AUTFRE  =    2.0000
     NTSFRZ  =        60     KEEPSM  =         0
     AREAKP  =   10.0000     BONDRY  =    1.0000
     AREATL  =    0.0100

     SPHERE     INITS       METHOD
          1        60       FIXPVA
          2        60       FIXPVA
          3        60       FIXPVA
          4        60       FIXPVA
          5        60       FIXPVA
          6        60       FIXPVA
          7        60       FIXPVA
          8        60       FIXPVA
          9        60       FIXPVA
         10        60       FIXPVA
         11        60       FIXPVA
         12        60       FIXPVA
         13        60       FIXPVA
         14        60       FIXPVA
         15        60       FIXPVA
         16        60       FIXPVA
         17        60       FIXPVA
         18        60       FIXPVA
         19        60       FIXPVA
         20        60       FIXPVA
         21        60       FIXPVA
         22        60       FIXPVA
         23        60       FIXPVA
         24        60       FIXPVA
         25        60       FIXPVA
         26        60       FIXPVA
         27        60       FIXPVA
         28        60       FIXPVA
         29        60       FIXPVA
         30        60       FIXPVA
         31        60       FIXPVA
         32        60       FIXPVA
         33        60       FIXPVA
         34        60       FIXPVA
         35        60       FIXPVA
         36        60       FIXPVA
         37        60       FIXPVA
         38        60       FIXPVA
         39        60       FIXPVA
         40        60       FIXPVA
         41        60       FIXPVA
         42        60       FIXPVA
         43        60       FIXPVA
         44        60       FIXPVA
         45        60       FIXPVA
         46        60       FIXPVA
         47        60       FIXPVA
         48        60       FIXPVA
         49        60       FIXPVA
         50        60       FIXPVA
         51        60       FIXPVA
         52        60       FIXPVA
         53        60       FIXPVA
         54        60       FIXPVA
         55        60       FIXPVA
         56        60       FIXPVA
         57        60       FIXPVA
         58        60       FIXPVA
         59        60       FIXPVA
         60        60       FIXPVA
         61        60       FIXPVA
         62        60       FIXPVA
         63        60       FIXPVA
         64        60       FIXPVA
         65        60       FIXPVA
         66        60       FIXPVA
         67        60       FIXPVA
         68        60       FIXPVA
         69        60       FIXPVA
         70        60       FIXPVA
         71        60       FIXPVA
         72        60       FIXPVA
         73        60       FIXPVA
         74        60       FIXPVA
         75        60       FIXPVA
         76        60       FIXPVA
         77        60       FIXPVA
         78        60       FIXPVA
         79        60       FIXPVA
         80        60       FIXPVA
         81        60       FIXPVA
         82        60       FIXPVA
         83        60       FIXPVA
         84        60       FIXPVA
         85        60       FIXPVA
         86        60       FIXPVA
         87        60       FIXPVA
         88        60       FIXPVA
         89        60       FIXPVA
         90        60       FIXPVA
         91        60       FIXPVA
         92        60       FIXPVA
         93        60       FIXPVA
         94        60       FIXPVA
         95        60       FIXPVA
         96        60       FIXPVA
         97        60       FIXPVA
         98        60       FIXPVA
         99        60       FIXPVA
        100        60       FIXPVA
        101        60       FIXPVA
        102        60       FIXPVA
        103        60       FIXPVA
        104        60       FIXPVA
        105        60       FIXPVA
        106        60       FIXPVA
        107        60       FIXPVA
        108        60       FIXPVA
        109        60       FIXPVA
        110        60       FIXPVA
        111        60       FIXPVA
        112        60       FIXPVA
        113        60       FIXPVA
        114        60       FIXPVA
        115        60       FIXPVA
        116        60       FIXPVA
        117        60       FIXPVA
        118        60       FIXPVA
        119        60       FIXPVA
        120        60       FIXPVA
        121        60       FIXPVA
        122        60       FIXPVA
        123        60       FIXPVA
        124        60       FIXPVA
        125        60       FIXPVA
        126        60       FIXPVA
        127        60       FIXPVA
        128        60       FIXPVA
        129        60       FIXPVA
        130        60       FIXPVA
        131        60       FIXPVA
        132        60       FIXPVA
        133        60       FIXPVA
        134        60       FIXPVA
        135        60       FIXPVA
        136        60       FIXPVA
        137        60       FIXPVA
        138        60       FIXPVA
        139        60       FIXPVA
        140        60       FIXPVA
        141        60       FIXPVA
        142        60       FIXPVA
        143        60       FIXPVA
        144        60       FIXPVA
        145        60       FIXPVA
        146        60       FIXPVA
        147        60       FIXPVA
        148        60       FIXPVA
        149        60       FIXPVA
        150        60       FIXPVA
        151        60       FIXPVA
        152        60       FIXPVA
        153        60       FIXPVA
        154        60       FIXPVA
        155        60       FIXPVA
        156        60       FIXPVA
        157        60       FIXPVA
        158        60       FIXPVA
        159        60       FIXPVA
        160        60       FIXPVA
        161        60       FIXPVA
        162        60       FIXPVA
        163        60       FIXPVA
        164        60       FIXPVA
        165        60       FIXPVA
        166        60       FIXPVA
        167        60       FIXPVA
        168        60       FIXPVA
        169        60       FIXPVA
        170        60       FIXPVA
        171        60       FIXPVA
        172        60       FIXPVA
        173        60       FIXPVA
        174        60       FIXPVA
        175        60       FIXPVA
        176        60       FIXPVA
        177        60       FIXPVA
        178        60       FIXPVA
        179        60       FIXPVA
        180        60       FIXPVA
        181        60       FIXPVA
        182        60       FIXPVA
        183        60       FIXPVA
        184        60       FIXPVA
        185        60       FIXPVA
        186        60       FIXPVA
        187        60       FIXPVA
        188        60       FIXPVA
        189        60       FIXPVA
        190        60       FIXPVA
        191        60       FIXPVA
        192        60       FIXPVA
        193        60       FIXPVA
        194        60       FIXPVA
        195        60       FIXPVA
        196        60       FIXPVA
        197        60       FIXPVA
        198        60       FIXPVA
        199        60       FIXPVA
        200        60       FIXPVA
        201        60       FIXPVA
        202        60       FIXPVA
        203        60       FIXPVA
        204        60       FIXPVA
        205        60       FIXPVA
        206        60       FIXPVA
        207        60       FIXPVA
        208        60       FIXPVA
        209        60       FIXPVA
        210        60       FIXPVA
        211        60       FIXPVA
        212        60       FIXPVA
        213        60       FIXPVA
        214        60       FIXPVA
        215        60       FIXPVA
        216        60       FIXPVA
        217        60       FIXPVA
        218        60       FIXPVA
        219        60       FIXPVA
        220        60       FIXPVA
        221        60       FIXPVA
        222        60       FIXPVA
        223        60       FIXPVA
        224        60       FIXPVA
        225        60       FIXPVA
        226        60       FIXPVA
        227        60       FIXPVA
        228        60       FIXPVA
        229        60       FIXPVA
        230        60       FIXPVA
        231        60       FIXPVA
        232        60       FIXPVA
        233        60       FIXPVA
        234        60       FIXPVA
        235        60       FIXPVA
        236        60       FIXPVA
        237        60       FIXPVA
        238        60       FIXPVA
        239        60       FIXPVA
        240        60       FIXPVA
        241        60       FIXPVA
        242        60       FIXPVA
        243        60       FIXPVA
        244        60       FIXPVA
        245        60       FIXPVA
        246        60       FIXPVA
        247        60       FIXPVA
        248        60       FIXPVA
        249        60       FIXPVA
        250        60       FIXPVA
        251        60       FIXPVA
        252        60       FIXPVA
        253        60       FIXPVA
        254        60       FIXPVA
        255        60       FIXPVA
        256        60       FIXPVA
        257        60       FIXPVA
        258        60       FIXPVA
        259        60       FIXPVA
        260        60       FIXPVA
        261        60       FIXPVA
        262        60       FIXPVA
        263        60       FIXPVA
        264        60       FIXPVA
        265        60       FIXPVA
        266        60       FIXPVA
        267        60       FIXPVA
        268        60       FIXPVA
        269        60       FIXPVA
        270        60       FIXPVA
        271        60       FIXPVA
        272        60       FIXPVA
        273        60       FIXPVA
        274        60       FIXPVA
        275        60       FIXPVA
        276        60       FIXPVA
        277        60       FIXPVA
        278        60       FIXPVA
        279        60       FIXPVA
        280        60       FIXPVA
        281        60       FIXPVA
        282        60       FIXPVA
        283        60       FIXPVA
        284        60       FIXPVA
        285        60       FIXPVA
        286        60       FIXPVA
        287        60       FIXPVA
        288        60       FIXPVA
        289        60       FIXPVA
        290        60       FIXPVA
        291        60       FIXPVA
        292        60       FIXPVA
        293        60       FIXPVA
        294        60       FIXPVA
        295        60       FIXPVA
        296        60       FIXPVA
        297        60       FIXPVA
        298        60       FIXPVA
        299        60       FIXPVA
        300        60       FIXPVA
        301        60       FIXPVA
        302        60       FIXPVA
        303        60       FIXPVA
        304        60       FIXPVA
        305        60       FIXPVA
        306        60       FIXPVA
        307        60       FIXPVA
        308        60       FIXPVA
        309        60       FIXPVA
        310        60       FIXPVA
        311        60       FIXPVA
        312        60       FIXPVA
        313        60       FIXPVA
        314        60       FIXPVA
        315        60       FIXPVA
        316        60       FIXPVA
        317        60       FIXPVA
        318        60       FIXPVA
        319        60       FIXPVA
        320        60       FIXPVA
        321        60       FIXPVA
[...]
   655   21   6.0   1.89    3.3    0.006196    0.686955    0.682697
   656   21   7.0  12.97   25.4   -0.090953   -0.968705   -1.047445
   657   21   1.0   0.00    0.0    0.000000    0.442112    0.439341
   658   21   1.0   0.00    0.0    0.000000    0.473843    0.520884
   659   21   7.0   5.35   10.5    0.084989   -0.754241   -0.756478
   660   21   6.0   1.94    3.4    0.007337    0.973745    0.972502
   661   21   7.0   0.00    0.0    0.000000   -0.924770   -1.013750
   662   21   1.0   0.00    0.0    0.000000    0.483936    0.546547
   663   21   6.0   0.03    0.0    0.002068    0.884737    0.881178
   664   21   8.0   4.84   10.6    0.108753   -0.752876   -0.729364
   665   21   6.0   0.03    0.1    0.002363   -0.055794   -0.047469
   666   21   7.0   5.46   10.7    0.114956   -0.580003   -0.590672
   667   21   6.0   2.67    4.7    0.013658    0.325864    0.306986
   668   21   1.0   0.00    0.0    0.000000    0.206885    0.248822
   669   21   6.0   0.58    1.0    0.007188    0.145909    0.125200
   670   21   1.0   0.00    0.0    0.000000    0.225330    0.251349
   671   21   8.0  16.25   35.5    0.000769   -0.838626   -0.830768
   672   21   1.0   0.00    0.0    0.000000    0.512703    0.512011
   673   21   6.0   0.99    1.7   -0.010724    0.137631    0.103741
   674   21   1.0   0.00    0.0    0.000000    0.246907    0.252410
   675   21   8.0   5.21   11.4    0.070168   -0.781275   -0.786072
   676   21  15.0   9.56   12.0    0.141411    1.595537    1.653413
   677   21   8.0  17.91   39.1    0.373802   -0.897513   -0.890379
   678   21   8.0  12.92   28.2    0.302425   -0.897940   -0.896544
   679   21   8.0   1.65    3.6    0.019265   -0.972177   -0.793022
   680   22   6.0  12.29   21.7   -0.055772    0.176992   -0.018688
   681   22   1.0   0.00    0.0    0.000000    0.233499    0.219001
   682   22   1.0   0.00    0.0    0.000000    0.223642    0.209660
   683   22   6.0   6.68   11.8   -0.057285    0.073680    0.126537
   684   22   1.0   0.00    0.0    0.000000    0.246562    0.220390
   685   22   8.0   3.04    6.7    0.041485   -0.719212   -0.728470
   686   22   6.0   3.13    5.5   -0.032314    0.409421    0.406581
   687   22   1.0   0.00    0.0    0.000000    0.252460    0.248580
   688   22   7.0   0.00    0.0    0.000000   -0.821682   -0.843129
   689   22   6.0   1.78    3.1   -0.000988    0.194216    0.172907
   690   22   1.0   0.00    0.0    0.000000    0.318850    0.347793
   691   22   6.0   9.66   17.0   -0.046656   -0.405087   -0.414132
   692   22   1.0   0.00    0.0    0.000000    0.278830    0.279780
   693   22   6.0   3.43    6.0   -0.002291    1.030196    1.082085
   694   22   8.0   9.92   21.7    0.154104   -0.768936   -0.760525
   695   22   7.0   1.96    3.8    0.021329   -0.883468   -0.893340
   696   22   6.0   2.49    4.4   -0.002649    0.750621    0.760216
   697   22   7.0  14.44   28.3   -0.089083   -0.955843   -1.039812
   698   22   1.0   0.00    0.0    0.000000    0.434851    0.500555
   699   22   1.0   0.00    0.0    0.000000    0.455762    0.455028
   700   22   6.0   8.34   14.7   -0.058093    0.124064    0.125198
   701   22   1.0   0.00    0.0    0.000000    0.242342    0.241621
   702   22   8.0  21.49   47.0    0.042555   -0.836241   -0.836425
   703   22   1.0   0.00    0.0    0.000000    0.505460    0.505541
   704   22   6.0   5.91   10.4   -0.064066    0.156978    0.143210
   705   22   1.0   0.00    0.0    0.000000    0.215010    0.219146
   706   22   8.0  23.56   51.5    0.020170   -0.846195   -0.848962
   707   22   1.0   0.00    0.0    0.000000    0.506307    0.506636

 Done with FMO properties.
 CPU     0: STEP CPU TIME=     0.02 TOTAL CPU TIME=      52969.7 (    882.8 MIN)
 TOTAL WALL CLOCK TIME=     111839.0 SECONDS, CPU UTILIZATION IS    47.36%
 CPU     0: STEP CPU TIME=     0.00 TOTAL CPU TIME=      52969.7 (    882.8 MIN)
 TOTAL WALL CLOCK TIME=     111839.0 SECONDS, CPU UTILIZATION IS    47.36%

 Total timing statistics in pairs (CPU,wall) for each rank, sec

    Rank   total     SCF    corr     DFT    CPHF     EFP    solv     ESP    geom
 -------------------------------------------------------------------------------
       1   52969.7  12208.8  19090.4      0.0    0.0   0.0  664.6 19592.8    0.0
       1  111839.1  25429.2  44221.8      0.0    0.0   0.0 1541.7 37609.9    0.0
       2   52181.1  11995.6  19087.3      0.0    0.0   0.0  671.5 19016.8    0.0
       2  111839.1  25429.9  44220.2      0.0    0.0   0.0 1541.0 37608.7    0.0
       3   51854.1  12009.3  18536.9      0.0    0.0   0.0  673.6 19170.5    0.0
       3  111839.2  25429.5  44219.9      0.0    0.0   0.0 1541.7 37608.8    0.0
       4   51729.3  12049.2  18798.2      0.0    0.0   0.0  666.4 18828.8    0.0
       4  111839.1  25431.2  44219.8      0.0    0.0   0.0 1539.4 37608.5    0.0
       5   51813.1  12179.7  18499.6      0.0    0.0   0.0  668.3 19050.0    0.0
       5  111839.2  25429.5  44220.0      0.0    0.0   0.0 1541.5 37609.2    0.0
       6   51946.4  12118.3  18810.3      0.0    0.0   0.0  667.6 18949.4    0.0
       6  111839.2  25431.2  44219.9      0.0    0.0   0.0 1539.5 37608.8    0.0
       7   51738.0  12113.5  18967.3      0.0    0.0   0.0  666.8 18614.4    0.0
       7  111839.2  25431.0  44219.8      0.0    0.0   0.0 1539.6 37608.9    0.0
       8   51626.8  12062.9  19131.9      0.0    0.0   0.0  661.9 18400.3    0.0
       8  111839.2  25432.5  44219.8      0.0    0.0   0.0 1537.4 37608.7    0.0
       9   52031.3  12106.8  18642.5      0.0    0.0   0.0  655.5 19242.0    0.0
       9  111839.2  25433.2  44219.9      0.0    0.0   0.0 1537.8 37608.8    0.0
      10   51419.7  12321.0  18462.5      0.0    0.0   0.0  657.2 18611.4    0.0
      10  111839.2  25432.0  44219.8      0.0    0.0   0.0 1539.0 37608.3    0.0
      11   51371.5  12168.0  18983.8      0.0    0.0   0.0  656.0 18223.8    0.0
      11  111839.1  25433.7  44219.8      0.0    0.0   0.0 1537.5 37608.2    0.0
      12   50948.5  12157.0  18478.7      0.0    0.0   0.0  655.8 18276.8    0.0
      12  111839.1  25433.5  44219.7      0.0    0.0   0.0 1536.3 37608.0    0.0
      13   50741.2  12113.2  18715.9      0.0    0.0   0.0  651.4 17897.7    0.0
      13  111839.1  25435.3  44219.8      0.0    0.0   0.0 1536.5 37607.9    0.0
      14   50839.5  12182.6  18656.8      0.0    0.0   0.0  656.1 18006.9    0.0
      14  111839.2  25434.5  44219.8      0.0    0.0   0.0 1536.3 37607.7    0.0
      15   50717.6  12321.3  18667.6      0.0    0.0   0.0  650.2 17756.0    0.0
      15  111839.1  25435.6  44219.8      0.0    0.0   0.0 1535.5 37607.6    0.0
      16   51030.8  12516.1  18470.4      0.0    0.0   0.0  648.4 18074.9    0.0
      16  111839.2  25435.4  44219.8      0.0    0.0   0.0 1533.8 37607.3    0.0
averaged   51559.9  12164.0  18750.0      0.0    0.0   0.0  660.7 18607.0    0.0
averaged  111839.1  25432.3  44220.0      0.0    0.0   0.0 1538.4 37608.5    0.0

  FMO  timing statistics in pairs (CPU,wall) for each rank, sec

    Rank  FMOini FMOscf1  FMOdm1 FMOsyn1 FMOscf2  FMOes2 FMOsyn2 FMOscf3 FMOsyn3
 -------------------------------------------------------------------------------
       1    4.7   18208.8    0.6    0.0   33731.1    1024.4    0.0    0.0    0.0
       1   11.1   36691.8    1.3    0.0   73094.8    2039.6    0.0    0.0    0.0
       2    3.5   17829.3    0.1    0.0   33317.4    1030.8    0.0    0.0    0.0
       2   11.1   36691.8    1.3    0.0   73097.9    2036.5    0.0    0.0    0.0
       3    3.9   18043.7    0.3    0.0   32724.9    1081.3    0.0    0.0    0.0
       3   11.1   36691.8    1.3    0.0   73095.7    2038.6    0.0    0.0    0.0
       4    3.5   17991.4    0.2    0.0   32724.8    1009.4    0.0    0.0    0.0
       4   11.1   36691.8    1.3    0.0   73095.9    2038.5    0.0    0.0    0.0
       5    4.2   17925.6    0.4    0.0   32850.1    1032.7    0.0    0.0    0.0
       5   11.1   36691.8    1.3    0.0   73094.9    2039.5    0.0    0.0    0.0
       6    3.6   17981.6    0.1    0.0   32932.8    1028.3    0.0    0.0    0.0
       6   11.1   36691.8    1.3    0.0   73097.3    2037.0    0.0    0.0    0.0
       7    3.8   17786.6    0.3    0.0   32948.1     999.1    0.0    0.0    0.0
       7   11.1   36691.8    1.3    0.0   73094.8    2039.6    0.0    0.0    0.0
       8    3.3   17739.1    0.2    0.0   32886.8     997.4    0.0    0.0    0.0
       8   11.1   36691.8    1.3    0.0   73094.3    2040.1    0.0    0.0    0.0
       9    4.1   17962.2    0.5    0.0   33056.9    1007.6    0.0    0.0    0.0
       9   11.1   36691.8    1.3    0.0   73094.3    2040.1    0.0    0.0    0.0
      10    3.3   17778.5    0.1    0.0   32639.4     998.3    0.0    0.0    0.0
      10   11.1   36691.8    1.3    0.0   73095.3    2039.1    0.0    0.0    0.0
      11    3.5   17648.7    0.3    0.0   32748.1     970.9    0.0    0.0    0.0
      11   11.1   36691.8    1.3    0.0   73096.6    2037.8    0.0    0.0    0.0
      12    3.1   17806.5    0.1    0.0   32122.0    1016.8    0.0    0.0    0.0
      12   11.1   36691.8    1.3    0.0   73098.3    2036.1    0.0    0.0    0.0
      13    3.8   17620.7    0.4    0.0   32118.9     997.3    0.0    0.0    0.0
      13   11.1   36691.8    1.3    0.0   73097.1    2037.3    0.0    0.0    0.0
      14    3.1   17512.3    0.1    0.0   32351.1     972.9    0.0    0.0    0.0
      14   11.1   36691.8    1.3    0.0   73099.1    2035.3    0.0    0.0    0.0
      15    3.5   17574.3    0.3    0.0   32180.4     959.1    0.0    0.0    0.0
      15   11.1   36691.8    1.3    0.0   73094.7    2039.7    0.0    0.0    0.0
      16    3.2   17572.9    0.2    0.0   32491.9     962.6    0.0    0.0    0.0
      16   11.1   36691.8    1.3    0.0   73097.2    2037.2    0.0    0.0    0.0
averaged    3.6   17811.4    0.3    0.0   32739.0    1005.6    0.0    0.0    0.0
averaged   11.1   36691.8    1.3    0.0   73096.1    2038.2    0.0    0.0    0.0
             62769232  WORDS OF DYNAMIC MEMORY USED
 EXECUTION OF GAMESS TERMINATED NORMALLY Tue Dec 10 08:34:36 2019
 DDI: 263640 bytes (0.3 MB / 0 MWords) used by master data server.

 ----------------------------------------
 CPU timing information for all processes
 ========================================
 0: 51775.624 + 1194.88 = 52969.713
 1: 51100.248 + 1080.929 = 52181.177
 2: 50760.253 + 1093.911 = 51854.165
 3: 50646.406 + 1082.902 = 51729.309
 4: 50675.132 + 1137.968 = 51813.100
 5: 50879.661 + 1066.772 = 51946.433
 6: 50626.388 + 1111.658 = 51738.46
 7: 50556.793 + 1070.80 = 51626.874
 8: 50892.737 + 1138.566 = 52031.303
 9: 50391.112 + 1028.596 = 51419.708
 10: 50278.444 + 1093.94 = 51371.538
 11: 49910.610 + 1037.958 = 50948.568
 12: 49639.920 + 1101.284 = 50741.204
 13: 49792.837 + 1046.764 = 50839.601
 14: 49631.949 + 1085.647 = 50717.596
 15: 50008.196 + 1022.607 = 51030.803
 ----------------------------------------
 ddikick.x: exited gracefully.
----- accounting info -----
Files used on the master node gollum062.lsa.umich.edu were:
-rw-r--r-- 1 hazwong frank    33307 Dec  9 01:30 /scratch/hazwong/829267/2LU0_6/usrc/2LU0_6_fmo_input.F05
-rw-r--r-- 1 hazwong frank      634 Dec 10 08:34 /scratch/hazwong/829267/2LU0_6/usrc/2LU0_6_fmo_input.F06.001
-rw-r--r-- 1 hazwong frank      634 Dec 10 08:34 /scratch/hazwong/829267/2LU0_6/usrc/2LU0_6_fmo_input.F06.002
-rw-r--r-- 1 hazwong frank      634 Dec 10 08:34 /scratch/hazwong/829267/2LU0_6/usrc/2LU0_6_fmo_input.F06.003
-rw-r--r-- 1 hazwong frank      634 Dec 10 08:34 /scratch/hazwong/829267/2LU0_6/usrc/2LU0_6_fmo_input.F06.004
-rw-r--r-- 1 hazwong frank      634 Dec 10 08:34 /scratch/hazwong/829267/2LU0_6/usrc/2LU0_6_fmo_input.F06.005
-rw-r--r-- 1 hazwong frank      634 Dec 10 08:34 /scratch/hazwong/829267/2LU0_6/usrc/2LU0_6_fmo_input.F06.006
-rw-r--r-- 1 hazwong frank      634 Dec 10 08:34 /scratch/hazwong/829267/2LU0_6/usrc/2LU0_6_fmo_input.F06.007
-rw-r--r-- 1 hazwong frank      634 Dec 10 08:34 /scratch/hazwong/829267/2LU0_6/usrc/2LU0_6_fmo_input.F06.008
-rw-r--r-- 1 hazwong frank      634 Dec 10 08:34 /scratch/hazwong/829267/2LU0_6/usrc/2LU0_6_fmo_input.F06.009
-rw-r--r-- 1 hazwong frank      634 Dec 10 08:34 /scratch/hazwong/829267/2LU0_6/usrc/2LU0_6_fmo_input.F06.010
-rw-r--r-- 1 hazwong frank      634 Dec 10 08:34 /scratch/hazwong/829267/2LU0_6/usrc/2LU0_6_fmo_input.F06.011
-rw-r--r-- 1 hazwong frank      634 Dec 10 08:34 /scratch/hazwong/829267/2LU0_6/usrc/2LU0_6_fmo_input.F06.012
-rw-r--r-- 1 hazwong frank      634 Dec 10 08:34 /scratch/hazwong/829267/2LU0_6/usrc/2LU0_6_fmo_input.F06.013
-rw-r--r-- 1 hazwong frank      634 Dec 10 08:34 /scratch/hazwong/829267/2LU0_6/usrc/2LU0_6_fmo_input.F06.014
-rw-r--r-- 1 hazwong frank      634 Dec 10 08:34 /scratch/hazwong/829267/2LU0_6/usrc/2LU0_6_fmo_input.F06.015
-rw-r--r-- 1 hazwong frank    40551 Dec 10 08:34 /scratch/hazwong/829267/2LU0_6/usrc/2LU0_6_fmo_input.F07
-rw-r--r-- 1 hazwong frank        0 Dec  9 01:30 /scratch/hazwong/829267/2LU0_6/usrc/2LU0_6_fmo_input.F07.001
-rw-r--r-- 1 hazwong frank        0 Dec  9 01:30 /scratch/hazwong/829267/2LU0_6/usrc/2LU0_6_fmo_input.F07.002
-rw-r--r-- 1 hazwong frank        0 Dec  9 01:30 /scratch/hazwong/829267/2LU0_6/usrc/2LU0_6_fmo_input.F07.003
-rw-r--r-- 1 hazwong frank        0 Dec  9 01:30 /scratch/hazwong/829267/2LU0_6/usrc/2LU0_6_fmo_input.F07.004
-rw-r--r-- 1 hazwong frank        0 Dec  9 01:30 /scratch/hazwong/829267/2LU0_6/usrc/2LU0_6_fmo_input.F07.005
-rw-r--r-- 1 hazwong frank        0 Dec  9 01:30 /scratch/hazwong/829267/2LU0_6/usrc/2LU0_6_fmo_input.F07.006
-rw-r--r-- 1 hazwong frank        0 Dec  9 01:30 /scratch/hazwong/829267/2LU0_6/usrc/2LU0_6_fmo_input.F07.007
-rw-r--r-- 1 hazwong frank        0 Dec  9 01:30 /scratch/hazwong/829267/2LU0_6/usrc/2LU0_6_fmo_input.F07.008
-rw-r--r-- 1 hazwong frank        0 Dec  9 01:30 /scratch/hazwong/829267/2LU0_6/usrc/2LU0_6_fmo_input.F07.009
-rw-r--r-- 1 hazwong frank        0 Dec  9 01:30 /scratch/hazwong/829267/2LU0_6/usrc/2LU0_6_fmo_input.F07.010
-rw-r--r-- 1 hazwong frank        0 Dec  9 01:30 /scratch/hazwong/829267/2LU0_6/usrc/2LU0_6_fmo_input.F07.011
-rw-r--r-- 1 hazwong frank        0 Dec  9 01:30 /scratch/hazwong/829267/2LU0_6/usrc/2LU0_6_fmo_input.F07.012
-rw-r--r-- 1 hazwong frank        0 Dec  9 01:30 /scratch/hazwong/829267/2LU0_6/usrc/2LU0_6_fmo_input.F07.013
-rw-r--r-- 1 hazwong frank        0 Dec  9 01:30 /scratch/hazwong/829267/2LU0_6/usrc/2LU0_6_fmo_input.F07.014
-rw-r--r-- 1 hazwong frank        0 Dec  9 01:30 /scratch/hazwong/829267/2LU0_6/usrc/2LU0_6_fmo_input.F07.015
-rw-r--r-- 1 hazwong frank    65440 Dec 10 08:34 /scratch/hazwong/829267/2LU0_6/usrc/2LU0_6_fmo_input.F10.000
-rw-r--r-- 1 hazwong frank        0 Dec  9 01:30 /scratch/hazwong/829267/2LU0_6/usrc/2LU0_6_fmo_input.F26.000
-rw-r--r-- 1 hazwong frank        0 Dec  9 01:30 /scratch/hazwong/829267/2LU0_6/usrc/2LU0_6_fmo_input.F26.001
-rw-r--r-- 1 hazwong frank        0 Dec  9 01:30 /scratch/hazwong/829267/2LU0_6/usrc/2LU0_6_fmo_input.F26.002
-rw-r--r-- 1 hazwong frank        0 Dec  9 01:30 /scratch/hazwong/829267/2LU0_6/usrc/2LU0_6_fmo_input.F26.003
-rw-r--r-- 1 hazwong frank        0 Dec  9 01:30 /scratch/hazwong/829267/2LU0_6/usrc/2LU0_6_fmo_input.F26.004
-rw-r--r-- 1 hazwong frank        0 Dec  9 01:30 /scratch/hazwong/829267/2LU0_6/usrc/2LU0_6_fmo_input.F26.005
-rw-r--r-- 1 hazwong frank        0 Dec  9 01:30 /scratch/hazwong/829267/2LU0_6/usrc/2LU0_6_fmo_input.F26.006
-rw-r--r-- 1 hazwong frank        0 Dec  9 01:30 /scratch/hazwong/829267/2LU0_6/usrc/2LU0_6_fmo_input.F26.007
-rw-r--r-- 1 hazwong frank        0 Dec  9 01:30 /scratch/hazwong/829267/2LU0_6/usrc/2LU0_6_fmo_input.F26.008
-rw-r--r-- 1 hazwong frank        0 Dec  9 01:30 /scratch/hazwong/829267/2LU0_6/usrc/2LU0_6_fmo_input.F26.009
-rw-r--r-- 1 hazwong frank        0 Dec  9 01:30 /scratch/hazwong/829267/2LU0_6/usrc/2LU0_6_fmo_input.F26.010
-rw-r--r-- 1 hazwong frank        0 Dec  9 01:30 /scratch/hazwong/829267/2LU0_6/usrc/2LU0_6_fmo_input.F26.011
-rw-r--r-- 1 hazwong frank        0 Dec  9 01:30 /scratch/hazwong/829267/2LU0_6/usrc/2LU0_6_fmo_input.F26.012
-rw-r--r-- 1 hazwong frank        0 Dec  9 01:30 /scratch/hazwong/829267/2LU0_6/usrc/2LU0_6_fmo_input.F26.013
-rw-r--r-- 1 hazwong frank        0 Dec  9 01:30 /scratch/hazwong/829267/2LU0_6/usrc/2LU0_6_fmo_input.F26.014
-rw-r--r-- 1 hazwong frank        0 Dec  9 01:30 /scratch/hazwong/829267/2LU0_6/usrc/2LU0_6_fmo_input.F26.015
-rw-r--r-- 1 hazwong frank        0 Dec  9 01:30 /scratch/hazwong/829267/2LU0_6/usrc/2LU0_6_fmo_input.F27.000
-rw-r--r-- 1 hazwong frank        0 Dec  9 01:30 /scratch/hazwong/829267/2LU0_6/usrc/2LU0_6_fmo_input.F27.001
-rw-r--r-- 1 hazwong frank        0 Dec  9 01:30 /scratch/hazwong/829267/2LU0_6/usrc/2LU0_6_fmo_input.F27.002
-rw-r--r-- 1 hazwong frank        0 Dec  9 01:30 /scratch/hazwong/829267/2LU0_6/usrc/2LU0_6_fmo_input.F27.003
-rw-r--r-- 1 hazwong frank        0 Dec  9 01:30 /scratch/hazwong/829267/2LU0_6/usrc/2LU0_6_fmo_input.F27.004
-rw-r--r-- 1 hazwong frank        0 Dec  9 01:30 /scratch/hazwong/829267/2LU0_6/usrc/2LU0_6_fmo_input.F27.005
-rw-r--r-- 1 hazwong frank        0 Dec  9 01:30 /scratch/hazwong/829267/2LU0_6/usrc/2LU0_6_fmo_input.F27.006
-rw-r--r-- 1 hazwong frank        0 Dec  9 01:30 /scratch/hazwong/829267/2LU0_6/usrc/2LU0_6_fmo_input.F27.007
-rw-r--r-- 1 hazwong frank        0 Dec  9 01:30 /scratch/hazwong/829267/2LU0_6/usrc/2LU0_6_fmo_input.F27.008
-rw-r--r-- 1 hazwong frank        0 Dec  9 01:30 /scratch/hazwong/829267/2LU0_6/usrc/2LU0_6_fmo_input.F27.009
-rw-r--r-- 1 hazwong frank        0 Dec  9 01:30 /scratch/hazwong/829267/2LU0_6/usrc/2LU0_6_fmo_input.F27.010
-rw-r--r-- 1 hazwong frank        0 Dec  9 01:30 /scratch/hazwong/829267/2LU0_6/usrc/2LU0_6_fmo_input.F27.011
-rw-r--r-- 1 hazwong frank        0 Dec  9 01:30 /scratch/hazwong/829267/2LU0_6/usrc/2LU0_6_fmo_input.F27.012
-rw-r--r-- 1 hazwong frank        0 Dec  9 01:30 /scratch/hazwong/829267/2LU0_6/usrc/2LU0_6_fmo_input.F27.013
-rw-r--r-- 1 hazwong frank        0 Dec  9 01:30 /scratch/hazwong/829267/2LU0_6/usrc/2LU0_6_fmo_input.F27.014
-rw-r--r-- 1 hazwong frank        0 Dec  9 01:30 /scratch/hazwong/829267/2LU0_6/usrc/2LU0_6_fmo_input.F27.015
-rw-r--r-- 1 hazwong frank 45301760 Dec  9 11:42 /scratch/hazwong/829267/2LU0_6/usrc/2LU0_6_fmo_input.F40.000
-rw-r--r-- 1 hazwong frank 45301760 Dec  9 11:42 /scratch/hazwong/829267/2LU0_6/usrc/2LU0_6_fmo_input.F40.001
-rw-r--r-- 1 hazwong frank 45301760 Dec  9 11:42 /scratch/hazwong/829267/2LU0_6/usrc/2LU0_6_fmo_input.F40.002
-rw-r--r-- 1 hazwong frank 45301760 Dec  9 11:42 /scratch/hazwong/829267/2LU0_6/usrc/2LU0_6_fmo_input.F40.003
-rw-r--r-- 1 hazwong frank 45301760 Dec  9 11:42 /scratch/hazwong/829267/2LU0_6/usrc/2LU0_6_fmo_input.F40.004
-rw-r--r-- 1 hazwong frank 45301760 Dec  9 11:42 /scratch/hazwong/829267/2LU0_6/usrc/2LU0_6_fmo_input.F40.005
-rw-r--r-- 1 hazwong frank 45301760 Dec  9 11:42 /scratch/hazwong/829267/2LU0_6/usrc/2LU0_6_fmo_input.F40.006
-rw-r--r-- 1 hazwong frank 45301760 Dec  9 11:42 /scratch/hazwong/829267/2LU0_6/usrc/2LU0_6_fmo_input.F40.007
-rw-r--r-- 1 hazwong frank 45301760 Dec  9 11:42 /scratch/hazwong/829267/2LU0_6/usrc/2LU0_6_fmo_input.F40.008
-rw-r--r-- 1 hazwong frank 45301760 Dec  9 11:42 /scratch/hazwong/829267/2LU0_6/usrc/2LU0_6_fmo_input.F40.009
-rw-r--r-- 1 hazwong frank 45301760 Dec  9 11:42 /scratch/hazwong/829267/2LU0_6/usrc/2LU0_6_fmo_input.F40.010
-rw-r--r-- 1 hazwong frank 45301760 Dec  9 11:42 /scratch/hazwong/829267/2LU0_6/usrc/2LU0_6_fmo_input.F40.011
-rw-r--r-- 1 hazwong frank 45301760 Dec  9 11:42 /scratch/hazwong/829267/2LU0_6/usrc/2LU0_6_fmo_input.F40.012
-rw-r--r-- 1 hazwong frank 45301760 Dec  9 11:42 /scratch/hazwong/829267/2LU0_6/usrc/2LU0_6_fmo_input.F40.013
-rw-r--r-- 1 hazwong frank 45301760 Dec  9 11:42 /scratch/hazwong/829267/2LU0_6/usrc/2LU0_6_fmo_input.F40.014
-rw-r--r-- 1 hazwong frank 45301760 Dec  9 11:42 /scratch/hazwong/829267/2LU0_6/usrc/2LU0_6_fmo_input.F40.015
Tue Dec 10 08:34:39 EST 2019
0.198u 0.118s 31:04:02.79 0.0%	0+0k 1608+232io 27pf+0w
