----- GAMESS execution script 'rungms' -----
This job is running on host gollum056.lsa.umich.edu
under operating system Linux at Sun Nov 17 22:01:29 EST 2019
Available scratch disk space (Kbyte units) at beginning of the job is
Filesystem     1K-blocks  Used Available Use% Mounted on
/dev/sda4      426933580 33468 426900112   1% /scratch
GAMESS temporary binary files will be written to /scratch/hazwong/638883/2LUB_3/usrc
GAMESS supplementary output files will be written to /scratch/hazwong/638883/2LUB_3/src
Copying input file 2LUB_3_fmo_input.inp to your run's scratch directory...
This is a GDDI run, keeping various output files on local disks
 
Assuming a single but multicore node.
 

 Distributed Data Interface kickoff program.
 Initiating 16 compute processes on 1 nodes to run the following command:
 /export/apps/CentOS7/gamess/src/build//gamess.R3.x 2LUB_3_fmo_input 

          ******************************************************
          *         GAMESS VERSION = 30 SEP 2018 (R3)         *
          *             FROM IOWA STATE UNIVERSITY             *
          * M.W.SCHMIDT, K.K.BALDRIDGE, J.A.BOATZ, S.T.ELBERT, *
          *   M.S.GORDON, J.H.JENSEN, S.KOSEKI, N.MATSUNAGA,   *
          *          K.A.NGUYEN, S.J.SU, T.L.WINDUS,           *
          *       TOGETHER WITH M.DUPUIS, J.A.MONTGOMERY       *
          *         J.COMPUT.CHEM.  14, 1347-1363(1993)        *
          **************** 64 BIT LINUX VERSION ****************

  SINCE 1993, STUDENTS AND POSTDOCS WORKING AT IOWA STATE UNIVERSITY
  AND ALSO IN THEIR VARIOUS JOBS AFTER LEAVING ISU HAVE MADE IMPORTANT
  CONTRIBUTIONS TO THE CODE:
     IVANA ADAMOVIC, CHRISTINE AIKENS, YURI ALEXEEV, POOJA ARORA,
     ANDREY ASADCHEV, ROB BELL, PRADIPTA BANDYOPADHYAY, JONATHAN BENTZ,
     BRETT BODE, KURT BRORSEN, CALEB CARLIN, GALINA CHABAN, WEI CHEN,
     CHEOL HO CHOI, PAUL DAY, ALBERT DEFUSCO, NUWAN DESILVA, TIM DUDLEY,
     DMITRI FEDOROV, ALEX FINDLATER, GRAHAM FLETCHER, MARK FREITAG,
     KURT GLAESEMANN, ANASTASIA GUNINA,
     DAN KEMP, GRANT MERRILL, NORIYUKI MINEZAWA, JONATHAN MULLIN,
     TAKESHI NAGATA, SEAN NEDD, HEATHER NETZLOFF, BOSILJKA NJEGIC, RYAN OLSON,
     MIKE PAK, BUU PHAM,
     SPENCER PRUITT, LUKE ROSKOP, JIM SHOEMAKER, LYUDMILA SLIPCHENKO,
     TONY SMITH, SAROM SOK LEANG, JIE SONG, TETSUYA TAKETSUGU, SIMON WEBB,
     PENG XU, SOOHAENG YOO, FEDERICO ZAHARIEV

  ADDITIONAL CODE HAS BEEN PROVIDED BY COLLABORATORS IN OTHER GROUPS:
     IOWA STATE UNIVERSITY:
          JOE IVANIC, AARON WEST, LAIMUTIS BYTAUTAS, KLAUS RUEDENBERG
     UNIVERSITY OF TOKYO: KIMIHIKO HIRAO, TAKAHITO NAKAJIMA,
          TAKAO TSUNEDA, MUNEAKI KAMIYA, SUSUMU YANAGISAWA,
          KIYOSHI YAGI, MAHITO CHIBA, SEIKEN TOKURA, NAOAKI KAWAKAMI
     UNIVERSITY OF AARHUS: FRANK JENSEN
     UNIVERSITY OF IOWA: VISVALDAS KAIRYS, HUI LI
     NATIONAL INST. OF STANDARDS AND TECHNOLOGY: WALT STEVENS, DAVID GARMER
     UNIVERSITY OF PISA: BENEDETTA MENNUCCI, JACOPO TOMASI
     UNIVERSITY OF MEMPHIS: HENRY KURTZ, PRAKASHAN KORAMBATH
     UNIVERSITY OF ALBERTA: TOBY ZENG, MARIUSZ KLOBUKOWSKI
     UNIVERSITY OF NEW ENGLAND: MARK SPACKMAN
     MIE UNIVERSITY: HIROAKI UMEDA
     NAT. INST. OF ADVANCED INDUSTRIAL SCIENCE AND TECHNOLOGY: KAZUO KITAURA
     MICHIGAN STATE UNIVERSITY:
          KAROL KOWALSKI, MARTA WLOCH, JEFFREY GOUR, JESSE LUTZ,
          WEI LI, JUN SHEN, J. EMILIANO DEUSTUA, PIOTR PIECUCH
     UNIVERSITY OF MINNESOTA:
          YINAN SHU
     UNIVERSITY OF SILESIA: MONIKA MUSIAL, STANISLAW KUCHARSKI
     FACULTES UNIVERSITAIRES NOTRE-DAME DE LA PAIX:
          OLIVIER QUINET, BENOIT CHAMPAGNE
     UNIVERSITY OF CALIFORNIA - SANTA BARBARA: BERNARD KIRTMAN
     INSTITUTE FOR MOLECULAR SCIENCE:
          KAZUYA ISHIMURA, MICHIO KATOUDA, AND SHIGERU NAGASE
     UNIVERSITY OF NOTRE DAME: ANNA POMOGAEVA, DAN CHIPMAN
     KYUSHU UNIVERSITY:
          HARUYUKI NAKANO,
          FENG LONG GU, JACEK KORCHOWIEC, MARCIN MAKOWSKI, AND YURIKO AOKI,
          HIROTOSHI MORI AND EISAKU MIYOSHI
     PENNSYLVANIA STATE UNIVERSITY:
          TZVETELIN IORDANOV, CHET SWALINA, JONATHAN SKONE,
          SHARON HAMMES-SCHIFFER
     WASEDA UNIVERSITY:
          MASATO KOBAYASHI, TOMOKO AKAMA, TSUGUKI TOUMA,
          TAKESHI YOSHIKAWA, YASUHIRO IKABATA, JUNJI SEINO,
          YUYA NAKAJIMA, HIROMI NAKAI
     NANJING UNIVERSITY: SHUHUA LI
     UNIVERSITY OF NEBRASKA:
          PEIFENG SU, DEJUN SI, NANDUN THELLAMUREGE, YALI WANG, HUI LI
     UNIVERSITY OF ZURICH: ROBERTO PEVERATI, KIM BALDRIDGE
     N. COPERNICUS UNIVERSITY AND JACKSON STATE UNIVERSITY:
          MARIA BARYSZ
     UNIVERSITY OF COPENHAGEN: Jimmy Kromann, CASPER STEINMANN
     TOKYO INSTITUTE OF TECHNOLOGY: HIROYA NAKATA
     NAGOYA UNIVERSITY: YOSHIO NISHIMOTO, STEPHAN IRLE
     MOSCOW STATE UNIVERSITY: VLADIMIR MIRONOV


 PARALLEL VERSION RUNNING ON       16 PROCESSORS IN        1 NODES.

 EXECUTION OF GAMESS BEGUN Sun Nov 17 22:01:29 2019

            ECHO OF THE FIRST FEW INPUT CARDS -
 INPUT CARD>!*** FMO 5.3 (Gamess) INPUT generated by Facio 22.1.1.32 ***                    
 INPUT CARD> $CONTRL RUNTYP=ENERGY NPRINT=-5 ISPHER=1 MAXIT=200 $END                        
 INPUT CARD> $SYSTEM MWORDS=63 MEMDDI=63 $END                                               
 INPUT CARD> $GDDI NGROUP=1 $END                                                            
 INPUT CARD> $SCF DIRSCF=.TRUE. NPUNCH=0 $END                                               
 INPUT CARD>!*** NumCPU : 2  MemPerNode : 512MB                                             
 INPUT CARD> $PCM SOLVNT=WATER IEF=-10 ICOMP=2 ICAV=1 IDISP=1 IFMO=-1 $END                  
 INPUT CARD> $PCMCAV RADII=SUAHF $END                                                       
 INPUT CARD> $TESCAV NTSALL=60 $END                                                         
 INPUT CARD> $FMOPRP                                                                        
 INPUT CARD>    NAODIR=200                                                                  
 INPUT CARD>    NGRFMO(1)=1, 1, 0, 0, 0,   0, 0, 0, 0, 0                                    
 INPUT CARD>    IPIEDA=1                                                                    
 INPUT CARD>    NPRINT=9                                                                    
 INPUT CARD> $END                                                                           
 INPUT CARD> $FMO                                                                           
 INPUT CARD>      SCFTYP(1)=RHF                                                             
 INPUT CARD>      MODGRD=10                                                                 
 INPUT CARD>      MODMUL=0                                                                  
 INPUT CARD>      MAXCAO=5                                                                  
 INPUT CARD>      MAXBND=13                                                                 
 INPUT CARD>      NLAYER=1                                                                  
 INPUT CARD>      MPLEVL(1)=2                                                               
 INPUT CARD>      NFRAG=11                                                                  
 INPUT CARD>      ICHARG(1)=-1, -1, -1, -1, 0, -1, -1, -1, -1, -1, 0                        
 INPUT CARD>      FRGNAM(1)=F1, F2, F3, F4, F5, F6, F7, F8, F9, F10, F11                    
 INPUT CARD>      indat(1)=0                                                                
 INPUT CARD>               1   -35   0                                                      
 INPUT CARD>               36   -66   0                                                     
 INPUT CARD>               67   -100   0                                                    
 INPUT CARD>               101   -134   0                                                   
 INPUT CARD>               135   -166   0                                                   
 INPUT CARD>               167   -196   0                                                   
 INPUT CARD>               197   -227   0                                                   
 INPUT CARD>               228   -260   0                                                   
 INPUT CARD>               261   -293   0                                                   
 INPUT CARD>               294   -327   0                                                   
 INPUT CARD>               328   -354   0                                                   
 INPUT CARD> $END                                                                           
 INPUT CARD>                                                                                
 INPUT CARD> $FMOBND                                                                        
 INPUT CARD>   -36   35       6-31G*    MINI                                                
 INPUT CARD>   -67   66       6-31G*    MINI                                                
 INPUT CARD>   -101   100       6-31G*    MINI                                              
 INPUT CARD>   -135   134       6-31G*    MINI                                              
 INPUT CARD>   -167   166       6-31G*    MINI                                              
 INPUT CARD>   -197   196       6-31G*    MINI                                              
 INPUT CARD>   -228   227       6-31G*    MINI                                              
 INPUT CARD>   -261   260       6-31G*    MINI                                              
 INPUT CARD>   -294   293       6-31G*    MINI                                              


 -------------------------------------------------------------
 GROUP DDI, PROGRAMMED BY: RYAN M. OLSON AND DMITRI G. FEDOROV
        FEDOROV ET AL., J. COMPUT. CHEM., 25 (2004) 872.
 -------------------------------------------------------------

 -------------------------------------------------------
 GDDI: INITIALIZATION COMPLETED FOR GROUP     1 OF     1
 WITH    16 PROCESSES BALTYP=DLB   global rank=        0
 -------------------------------------------------------

   63000000 WORDS OF MEMORY AVAILABLE


     RUN TITLE
     ---------
  FMO calculation                                                                

 THE POINT GROUP OF THE MOLECULE IS C1      
 THE ORDER OF THE PRINCIPAL AXIS IS     0

 ATOM   ATOMIC CHARGE
 H.1-1       1.0
 O.1-1       8.0
 C.1-1       6.0
 N.1-1       7.0
 P.1-1      15.0

     ATOMIC BASIS SET LIBRARY
     ----------------
 THE CONTRACTED PRIMITIVE FUNCTIONS HAVE BEEN UNNORMALIZED
 THE CONTRACTED BASIS FUNCTIONS ARE NOW NORMALIZED TO UNITY

  SHELL TYPE  PRIMITIVE        EXPONENT          CONTRACTION COEFFICIENT(S)

 H.1-1     

      1   S       1            18.7311370    0.033494604338
      1   S       2             2.8253944    0.234726953484
      1   S       3             0.6401217    0.813757326146

      2   S       4             0.1612778    1.000000000000

 O.1-1     

      3   S       5          5484.6716600    0.001831074430
      3   S       6           825.2349460    0.013950172200
      3   S       7           188.0469580    0.068445078098
      3   S       8            52.9645000    0.232714335992
      3   S       9            16.8975704    0.470192897984
      3   S      10             5.7996353    0.358520852987

      4   L      11            15.5396162   -0.110777549525    0.070874268231
      4   L      12             3.5999336   -0.148026262701    0.339752839147
      4   L      13             1.0137618    1.130767015354    0.727158577316

      5   L      14             0.2700058    1.000000000000    1.000000000000

      6   D      15             0.8000000    1.000000000000

 C.1-1     

      7   S      16          3047.5248800    0.001834737132
      7   S      17           457.3695180    0.014037322813
      7   S      18           103.9486850    0.068842622264
      7   S      19            29.2101553    0.232184443216
      7   S      20             9.2866630    0.467941348435
      7   S      21             3.1639270    0.362311985337

      8   L      22             7.8682723   -0.119332419775    0.068999066591
      8   L      23             1.8812885   -0.160854151696    0.316423960957
      8   L      24             0.5442493    1.143456437840    0.744308290898

      9   L      25             0.1687145    1.000000000000    1.000000000000

     10   D      26             0.8000000    1.000000000000

 N.1-1     

     11   S      27          4173.5114600    0.001834772160
     11   S      28           627.4579110    0.013994627002
     11   S      29           142.9020930    0.068586551812
     11   S      30            40.2343293    0.232240873040
     11   S      31            12.8202129    0.469069948082
     11   S      32             4.3904370    0.360455199063

     12   L      33            11.6263619   -0.114961181702    0.067579743878
     12   L      34             2.7162798   -0.169117478561    0.323907295893
     12   L      35             0.7722184    1.145851947027    0.740895139755

     13   L      36             0.2120315    1.000000000000    1.000000000000

     14   D      37             0.8000000    1.000000000000

 P.1-1     

     15   S      38         19413.3000000    0.001851598923
     15   S      39          2909.4200000    0.014206191735
     15   S      40           661.3640000    0.069999459277
     15   S      41           185.7590000    0.240078860331
     15   S      42            59.1943000    0.484761717984
     15   S      43            20.0310000    0.335199804993

     16   L      44           339.4780000   -0.002782170105    0.004564616191
     16   L      45            81.0101000   -0.036049901354    0.033693571881
     16   L      46            25.8780000   -0.116631004382    0.139754883368
     16   L      47             9.4522100    0.096832803638    0.339361716786
     16   L      48             3.6656600    0.614418023082    0.450920623685
     16   L      49             1.4674600    0.403798015170    0.238585800889

     17   L      50             2.1562300   -0.252924113863   -0.017765312733
     17   L      51             0.7489970    0.032851844678    0.274058196433
     17   L      52             0.2831450    1.081254761783    0.785421562957

     18   L      53             0.0998317    1.000000000000    1.000000000000

     19   D      54             0.5500000    1.000000000000

 TOTAL NUMBER OF BASIS SET SHELLS             =   19
 NUMBER OF CARTESIAN GAUSSIAN BASIS FUNCTIONS =   66

     $CONTRL OPTIONS
     ---------------
 SCFTYP=RHF          RUNTYP=ENERGY       EXETYP=RUN     
 MPLEVL=       0     CITYP =NONE         CCTYP =NONE         VBTYP =NONE    
 DFTTYP=NONE         TDDFT =NONE    
 MULT  =       1     ICHARG=       0     NZVAR =       0     COORD =UNIQUE  
 PP    =NONE         RELWFN=NONE         LOCAL =NONE         NUMGRD=       F
 ISPHER=       1     NOSYM =       0     MAXIT =     200     UNITS =ANGS    
 PLTORB=       F     MOLPLT=       F     AIMPAC=       F     FRIEND=        
 NPRINT=      -5     IREST =       0     GEOM  =INPUT   
 NORMF =       0     NORMP =       0     ITOL  =      24     ICUT  =      12
 INTTYP=BEST         GRDTYP=BEST         QMTTOL= 1.0E-06

     $SYSTEM OPTIONS
     ---------------
  REPLICATED MEMORY=    63000000 WORDS (ON EVERY NODE).
 DISTRIBUTED MEMDDI=          63 MILLION WORDS IN AGGREGATE,
 MEMDDI DISTRIBUTED OVER  16 PROCESSORS IS     3937500 WORDS/PROCESSOR.
 TOTAL MEMORY REQUESTED ON EACH PROCESSOR=    66937500 WORDS.
 TIMLIM=      525600.00 MINUTES, OR     365.0 DAYS.
 PARALL= T  BALTYP=  DLB     KDIAG=    0  COREFL= F
 MXSEQ2=     300 MXSEQ3=     150  mem10=         0

 ** LOOKING UP INTERNALLY STORED DATA FOR SOLVENT=WATER    **
 OPTICAL AND PHYSICAL CONSTANTS:
 EPS= 78.390; EPSINF=  1.776; RSOLV=  1.385 A; VMOL=  18.070 ML/MOL;
 TCE= .25700E-03 1/K; STEN= 71.810 DYN/CM;  DSTEN=  0.6500; CMF=  1.2770


     -----------------------------------
     INPUT FOR PCM SOLVATION CALCULATION 
     -----------------------------------
     IEF   =     -10
     ICOMP =       2     IFIELD=       0     ICAV  =       1
     IDISP =       1     IREP  =       0     IDP   =       0

     SOLVNT=WATER        EPS   = 78.3900     EPSINF=  1.7760
     VMOL  = 18.0700     TCE   =  0.00025700 STEN  = 71.8100
     DSTEN =  0.6500     CMF   =  1.2770     RSOLV =  1.3850

     NESFP =       0
     OMEGA = 40.0000     RET   =100.0000     FRO   =  0.7000

     TABS  =298.0000     IPRINT=       0

     --------------------------------
     INPUT FOR ITERATIVE C-PCM METHOD 
     --------------------------------
     IPCMIT  =         1     MXDIIS  =        50
     MXITR1  =       200     MXITR2  =       200
     THRES   = 0.100E-09     IMUL    =         3
     RCUT(1) =   20.0000     RCUT(2) =   50.0000

     IDIRCT  =         1
     IMGABI  =         0     RABI    =    4.0000
     IMGASC  =         0     RASC    =   20.0000
     THRSLS  = 0.500E-03     DENSLS  =    0.0100
     IEFPOL  =         1     REFPOL  =    0.0000

     INPUT FOR ISOTROPIC DIELECTRICS
     -------------------------------
     EPS=    78.39

          ----------------
          PROPERTIES INPUT
          ----------------

     MOMENTS            FIELD           POTENTIAL          DENSITY
 IEMOM =       1   IEFLD =       0   IEPOT =       0   IEDEN =       0
 WHERE =COMASS     WHERE =NUCLEI     WHERE =NUCLEI     WHERE =NUCLEI  
 OUTPUT=BOTH       OUTPUT=BOTH       OUTPUT=NONE       OUTPUT=BOTH    
 IEMINT=       0   IEFINT=       0                     IEDINT=       0
                                                       MORB  =       0
          EXTRAPOLATION IN EFFECT
          SOSCF IN EFFECT
 ORBITAL PRINTING OPTION: NPREO=     1 32767     2     1

     -------------------------------
     INTEGRAL TRANSFORMATION OPTIONS
     -------------------------------
     NWORD  =            0
     CUTOFF = 1.0E-10     MPTRAN =       0
     DIRTRF =       T     AOINTS =DUP     

          ----------------------
          INTEGRAL INPUT OPTIONS
          ----------------------
 NOPK  =       1 NORDER=       0 SCHWRZ=       T

 ..... DONE SETTING UP THE RUN .....
 CPU     0: STEP CPU TIME=     0.04 TOTAL CPU TIME=          0.0 (      0.0 MIN)
 TOTAL WALL CLOCK TIME=          0.1 SECONDS, CPU UTILIZATION IS    57.14%
 CPU     0: STEP CPU TIME=     0.00 TOTAL CPU TIME=          0.0 (      0.0 MIN)
 TOTAL WALL CLOCK TIME=          0.1 SECONDS, CPU UTILIZATION IS    57.14%

                    ----------------------
                    AO INTEGRAL TECHNOLOGY
                    ----------------------
     S,P,L SHELL ROTATED AXIS INTEGRALS, REPROGRAMMED BY
        KAZUYA ISHIMURA (IMS) AND JOSE SIERRA (SYNSTAR).
     S,P,D,L SHELL ROTATED AXIS INTEGRALS PROGRAMMED BY
        KAZUYA ISHIMURA (INSTITUTE FOR MOLECULAR SCIENCE).
     S,P,D,F,G SHELL TO TOTAL QUARTET ANGULAR MOMENTUM SUM 5,
        ERIC PROGRAM BY GRAHAM FLETCHER (ELORET AND NASA ADVANCED
        SUPERCOMPUTING DIVISION, AMES RESEARCH CENTER).
     S,P,D,F,G,L SHELL GENERAL RYS QUADRATURE PROGRAMMED BY
        MICHEL DUPUIS (PACIFIC NORTHWEST NATIONAL LABORATORY).
 Setting modorb=1 flag...
 Setting modorb=1 flag...

          -----------------------
          MP2 CONTROL INFORMATION
          -----------------------
          NACORE =        8  NBCORE =        8
          LMOMP2 =        F  AOINTS = DUP     
          METHOD =        2  NWORD  =               0
          MP2PRP =        F  OSPT   = NONE    
          CUTOFF = 1.00E-12  CPHFBS = BASISAO 
          CODE   = IMS     

          NUMBER OF CORE -A-  ORBITALS =     8
          NUMBER OF CORE -B-  ORBITALS =     8
          NUMBER OF OCC. -A-  ORBITALS =    18
          NUMBER OF OCC. -B-  ORBITALS =    18
          NUMBER OF MOLECULAR ORBITALS =    66
          NUMBER OF   BASIS  FUNCTIONS =    66

 CPU     0: STEP CPU TIME=     0.02 TOTAL CPU TIME=          0.1 (      0.0 MIN)
 TOTAL WALL CLOCK TIME=          0.1 SECONDS, CPU UTILIZATION IS    60.00%
 CPU     0: STEP CPU TIME=     0.00 TOTAL CPU TIME=          0.1 (      0.0 MIN)
 TOTAL WALL CLOCK TIME=          0.1 SECONDS, CPU UTILIZATION IS    60.00%

     INPUT FOR CAVITY DEFINITION 
     ---------------------------
   ATOM               COORDINATES                RADIUS       EPS
      1      0.5900     -3.3950      3.2900      0.0100     78.3900
      2      0.2320     -3.1980      2.4040      1.5900     78.3900
      3     -0.0140     -4.4660      1.7730      1.7700     78.3900
      4     -0.6860     -5.0760      2.4180      0.0100     78.3900
      5      0.9500     -5.0140      1.6770      0.0100     78.3900
      6     -0.6510     -4.3460      0.3830      1.7700     78.3900
      7     -0.7890     -5.3510     -0.0750      0.0100     78.3900
      8     -1.9740     -3.7360      0.4930      1.5900     78.3900
      9     -2.1810     -2.8690     -0.6130      1.7700     78.3900
     10     -3.1150     -3.2150     -1.1120      0.0100     78.3900
     11     -2.3640     -1.4780     -0.1800      1.6800     78.3900
     12     -2.9400      0.6430     -0.0740      1.7700     78.3900
     13     -2.3620      0.3390      1.1520      1.6800     78.3900
     14     -2.0370     -0.9290      1.0380      1.7700     78.3900
     15     -1.5640     -1.5340      1.8160      0.0100     78.3900
     16     -3.9850      1.8010     -1.8550      1.6800     78.3900
     17     -3.8710      0.6660     -2.5550      1.7700     78.3900
     18     -4.2710      0.7020     -3.5750      0.0100     78.3900
     19     -3.4110     -0.5280     -2.1630      1.6800     78.3900
     20     -2.9430     -0.4660     -0.9040      1.7700     78.3900
     21     -3.5080      1.8290     -0.5850      1.7700     78.3900
     22     -3.5870      2.9750      0.1150      1.6800     78.3900
     23     -3.2520      3.0460      1.0610      0.0100     78.3900
     24     -3.9600      3.8030     -0.3130      0.0100     78.3900
     25     -1.0150     -3.0460     -1.5610      1.7700     78.3900
     26     -0.7650     -2.1150     -2.1100      0.0100     78.3900
     27     -1.3070     -4.0850     -2.4740      1.5900     78.3900
     28     -0.5190     -4.2090     -3.0190      0.0100     78.3900
     29      0.1040     -3.4480     -0.6080      1.7700     78.3900
     30      0.4420     -2.5570     -0.0260      0.0100     78.3900
     31      1.1940     -4.1870     -1.2220      1.5900     78.3900
     32      2.4960     -3.3870     -1.6250      2.1000     78.3900
     33      2.8550     -2.4780     -0.5190      1.5900     78.3900
     34      3.5270     -4.3750     -2.0240      1.5900     78.3900
     35      2.0580     -2.5400     -2.8860      1.5900     78.3900
     36      1.6480     -3.2340     -4.0910      1.7700     78.3900
     37      0.9230     -4.0490     -3.8720      0.0100     78.3900
     38      2.5320     -3.6830     -4.5930      0.0100     78.3900
     39      0.9990     -2.2910     -5.1100      1.7700     78.3900
     40      0.6820     -2.8540     -6.0160      0.0100     78.3900
     41     -0.1900     -1.6830     -4.5410      1.5900     78.3900
     42     -0.2990     -0.3460     -5.0100      1.7700     78.3900
     43     -1.2870     -0.2890     -5.5290      0.0100     78.3900
     44     -0.2720      0.6540     -3.9080      1.6800     78.3900
     45      0.2880      0.3350     -2.6910      1.7700     78.3900
     46      0.7050     -0.6700     -2.6070      0.0100     78.3900
     47      0.2870      1.2070     -1.6740      1.7700     78.3900
     48      0.7040      0.9680     -0.6980      0.0100     78.3900
     49     -0.7770      1.9320     -4.1180      1.7700     78.3900
     50     -1.2400      2.2280     -5.2310      1.5900     78.3900
     51     -0.7860      2.8230     -3.1050      1.6800     78.3900
     52     -0.2850      2.4900     -1.9060      1.7700     78.3900
     53     -0.3350      3.3870     -0.9220      1.6800     78.3900
     54     -0.7600      4.2750     -1.1190      0.0100     78.3900
     55     -0.0350      3.1850      0.0140      0.0100     78.3900
     56      0.8060     -0.1290     -6.0270      1.7700     78.3900
     57      1.1970      0.9060     -6.0100      0.0100     78.3900
     58      0.3530     -0.4600     -7.3280      1.5900     78.3900
     59      1.1360     -0.5470     -7.8930      0.0100     78.3900
     60      1.8650     -1.1120     -5.5520      1.7700     78.3900
     61      2.3770     -0.7340     -4.6360      0.0100     78.3900
     62      2.7760     -1.5350     -6.5850      1.5900     78.3900
     63      4.1910     -0.8690     -6.7070      2.1000     78.3900
     64      5.0010     -1.2760     -5.5410      1.5900     78.3900
     65      4.7290     -1.1970     -8.0470      1.5900     78.3900
     66      3.9370      0.6760     -6.6380      1.5900     78.3900
     67      3.4990      1.4030     -7.8120      1.7700     78.3900
     68      2.5470      0.9870     -8.2130      0.0100     78.3900
     69      4.2650      1.3450     -8.6200      0.0100     78.3900
     70      3.2610      2.8840     -7.4790      1.7700     78.3900
     71      2.8480      3.4370     -8.3490      0.0100     78.3900
     72      2.3020      2.9940     -6.3910      1.5900     78.3900
     73      2.6850      4.0310     -5.5140      1.7700     78.3900
     74      1.8060      4.7040     -5.4870      0.0100     78.3900
     75      2.9150      3.5340     -4.1480      1.6800     78.3900
     76      2.6740      4.1990     -2.9680      1.7700     78.3900
     77      1.7440      7.0500     -1.2290      1.6800     78.3900
     78      1.5680      7.2950     -0.2780      0.0100     78.3900
     79      1.4980      7.7050     -1.9500      0.0100     78.3900
     80      2.1840      5.4520     -2.8380      1.6800     78.3900
     81      2.1190      5.8300     -1.5620      1.7700     78.3900
     82      2.4340      5.0110     -0.5100      1.6800     78.3900
     83      2.3130      5.3610      0.4260      0.0100     78.3900
     84      2.8850      3.7030     -0.6150      1.7700     78.3900
     85      3.1290      3.0270      0.3890      1.5900     78.3900
     86      3.0180      3.3040     -1.9700      1.7700     78.3900
     87      3.4540      2.1010     -2.5070      1.6800     78.3900
     88      3.3750      2.2830     -3.8010      1.7700     78.3900
     89      3.6220      1.5380     -4.5560      0.0100     78.3900
     90      3.8890      4.7400     -6.1270      1.7700     78.3900
     91      4.6140      5.1000     -5.3660      0.0100     78.3900
     92      3.4420      5.8280     -6.9220      1.5900     78.3900
     93      3.2330      6.5850     -6.3600      0.0100     78.3900
     94      4.5050      3.6270     -6.9800      1.7700     78.3900
     95      5.0300      2.9240     -6.2950      0.0100     78.3900
     96      5.3150      4.0770     -8.1030      1.5900     78.3900
     97      6.7090      3.4000     -8.3920      2.1000     78.3900
     98      7.1850      2.7250     -7.1660      1.5900     78.3900
     99      6.6600      2.5830     -9.6300      1.5900     78.3900
    100      7.7120      4.5870     -8.6580      1.5900     78.3900
    101      7.4820      5.6010     -9.6580      1.7700     78.3900
    102      6.4640      5.5370    -10.1090      0.0100     78.3900
    103      8.2200      5.4790    -10.4800      0.0100     78.3900
    104      7.6570      7.0080     -9.0840      1.7700     78.3900
    105      7.3200      7.7730     -9.8170      0.0100     78.3900
    106      6.8470      7.1600     -7.8860      1.5900     78.3900
    107      7.5590      7.9260     -6.9360      1.7700     78.3900
    108      6.8910      8.7640     -6.6330      0.0100     78.3900
    109      7.9110      7.1310     -5.7450      1.6800     78.3900
    110      8.2590      7.6320     -4.5230      1.7700     78.3900
    111      8.7200     10.3450     -2.4180      1.6800     78.3900
    112      8.5600     11.1250     -3.0210      0.0100     78.3900
    113      8.9310     10.5060     -1.4490      0.0100     78.3900
    114      8.3410      8.9350     -4.2020      1.6800     78.3900
    115      8.6090      9.1260     -2.9150      1.7700     78.3900
    116      8.8060      8.0960     -2.0330      1.6800     78.3900
    117      9.0270      8.3190     -1.0740      0.0100     78.3900
    118      8.7510      6.7410     -2.3410      1.7700     78.3900
    119      8.9460      5.8820     -1.4760      1.5900     78.3900
    120      8.4690      6.5310     -3.7150      1.7700     78.3900
    121      8.2880      5.3490     -4.4260      1.6800     78.3900
    122      7.9480      5.7590     -5.6210      1.7700     78.3900
    123      7.6800      5.1120     -6.4480      0.0100     78.3900
    124      8.7780      8.4760     -7.6390      1.7700     78.3900
    125      9.6230      8.6460     -6.9450      0.0100     78.3900
    126      8.4420      9.6930     -8.2790      1.5900     78.3900
    127      9.2180      9.9630     -8.7840      0.0100     78.3900
    128      9.0830      7.3710     -8.6460      1.7700     78.3900
    129      9.5000      6.4730     -8.1370      0.0100     78.3900
    130      9.8620      7.7740     -9.7960      1.5900     78.3900
    131     11.4360      7.7200     -9.7510      2.1000     78.3900
    132     11.8840      6.3700     -9.3340      1.5900     78.3900
    133     11.9570      8.2090    -11.0480      1.5900     78.3900
    134     11.8110      8.7620     -8.6270      1.5900     78.3900
    135     11.6750     10.1770     -8.9100      1.7700     78.3900
    136     10.6420     10.4300     -9.2280      0.0100     78.3900
    137     12.3570     10.4830     -9.7410      0.0100     78.3900
    138     12.0110     11.0350     -7.6880      1.7700     78.3900
    139     11.8750     12.1160     -7.9210      0.0100     78.3900
    140     11.1310     10.7150     -6.5730      1.5900     78.3900
    141     11.8710     10.7700     -5.3640      1.7700     78.3900
    142     11.3450     11.4950     -4.7010      0.0100     78.3900
    143     11.9040      9.4580     -4.7060      1.6800     78.3900
    144     12.0680      7.8470     -3.2160      1.7700     78.3900
    145     11.7330      7.2340     -4.4140      1.6800     78.3900
    146     11.6490      8.2270     -5.2630      1.7700     78.3900
    147     11.4130      8.1250     -6.3230      0.0100     78.3900
    148     12.6530      8.2250     -0.9540      1.6800     78.3900
    149     12.7350      9.5210     -1.2710      1.7700     78.3900
    150     13.0220     10.1900     -0.4510      0.0100     78.3900
    151     12.5170     10.1160     -2.4490      1.6800     78.3900
    152     12.1800      9.2170     -3.3840      1.7700     78.3900
    153     12.3060      7.3390     -1.9210      1.7700     78.3900
    154     12.2070      6.0350     -1.6060      1.6800     78.3900
    155     11.9050      5.3520     -2.2750      0.0100     78.3900
    156     12.3560      5.7280     -0.6630      0.0100     78.3900
    157     13.2590     11.2980     -5.6950      1.7700     78.3900
    158     14.0460     10.8560     -5.0490      0.0100     78.3900
    159     13.2760     12.7120     -5.5710      1.5900     78.3900
    160     14.0930     13.0500     -5.9730      0.0100     78.3900
    161     13.4230     10.8340     -7.1400      1.7700     78.3900
    162     13.6570      9.7490     -7.1830      0.0100     78.3900
    163     14.3660     11.5960     -7.9120      1.5900     78.3900
    164     15.2640     11.4940     -7.5430      0.0100     78.3900
    165     13.5920      5.4010      8.2030      0.0100     78.3900
    166     13.5260      6.1220      7.5460      1.5900     78.3900
    167     14.1640      7.2770      8.1120      1.7700     78.3900
    168     15.2330      7.0390      8.3010      0.0100     78.3900
    169     13.6870      7.5160      9.0910      0.0100     78.3900
    170     14.0940      8.5190      7.2130      1.7700     78.3900
    171     14.5020      9.4080      7.7400      0.0100     78.3900
    172     14.9010      8.3140      6.0130      1.5900     78.3900
    173     14.2440      8.8940      4.8960      1.7700     78.3900
    174     14.9770      9.6070      4.4450      0.0100     78.3900
    175     13.8330      7.8640      3.8920      1.6800     78.3900
    176     13.7230      6.5320      4.2380      1.7700     78.3900
    177     13.9830      6.2880      5.2680      0.0100     78.3900
    178     13.5520      8.2780      2.6090      1.7700     78.3900
    179     13.6060      9.4540      2.2680      1.5900     78.3900
    180     13.2080      7.2760      1.7370      1.6800     78.3900
    181     13.0220      7.5730      0.7860      0.0100     78.3900
    182     13.1440      5.9240      1.9950      1.7700     78.3900
    183     12.8750      5.1350      1.0890      1.5900     78.3900
    184     13.4040      5.5720      3.3570      1.7700     78.3900
    185     13.3720      4.5240      3.6450      0.0100     78.3900
    186     13.0610      9.6810      5.4390      1.7700     78.3900
    187     12.2190      9.7140      4.7220      0.0100     78.3900
    188     13.4510     11.0020      5.7700      1.5900     78.3900
    189     12.6660     11.4470      6.1160      0.0100     78.3900
    190     12.7010      8.8670      6.6760      1.7700     78.3900
    191     12.2300      7.9070      6.3710      0.0100     78.3900
    192     11.9460      9.5690      7.6870      1.5900     78.3900
    193     10.3740      9.4690      7.6920      2.1000     78.3900
    194      9.9580      8.0750      7.4270      1.5900     78.3900
    195      9.8470     10.0830      8.9340      1.5900     78.3900
    196      9.9490     10.3430      6.4600      1.5900     78.3900
    197     10.1150     11.7770      6.4500      1.7700     78.3900
    198     11.1700     12.0620      6.6720      0.0100     78.3900
    199      9.4680     12.2460      7.2270      0.0100     78.3900
    200      9.7280     12.3670      5.0820      1.7700     78.3900
    201      9.8350     13.4730      5.0830      0.0100     78.3900
    202     10.6210     11.8490      4.0500      1.5900     78.3900
    203      9.8800     11.6340      2.8520      1.7700     78.3900
    204     10.4050     12.2300      2.0710      0.0100     78.3900
    205      9.8470     10.2070      2.4230      1.6800     78.3900
    206     10.0900      9.2080      3.3340      1.7700     78.3900
    207     10.2960      9.5350      4.3520      0.0100     78.3900
    208     10.0970      7.9180      2.9750      1.7700     78.3900
    209     10.3300      7.1200      3.6790      0.0100     78.3900
    210      9.5340      9.8760      1.1060      1.7700     78.3900
    211      9.2950     10.7810      0.2920      1.5900     78.3900
    212      9.5020      8.5770      0.7320      1.6800     78.3900
    213      9.8000      7.6110      1.6170      1.7700     78.3900
    214      9.8070      6.3470      1.2040      1.6800     78.3900
    215      9.5610      6.1530      0.2500      0.0100     78.3900
    216      9.9990      5.5800      1.8160      0.0100     78.3900
    217      8.4910     12.2050      3.0650      1.7700     78.3900
    218      7.7120     11.6480      2.4990      0.0100     78.3900
    219      8.4570     13.5740      2.7020      1.5900     78.3900
    220      7.5830     13.9130      2.9520      0.0100     78.3900
    221      8.3150     12.0190      4.5720      1.7700     78.3900
    222      8.1450     10.9430      4.8050      0.0100     78.3900
    223      7.3320     12.8780      5.1960      1.5900     78.3900
    224      5.7990     12.5150      5.0630      2.1000     78.3900
    225      5.5810     11.1240      5.5180      1.5900     78.3900
    226      5.0290     13.5700      5.7560      1.5900     78.3900
    227      5.4850     12.6290      3.5220      1.5900     78.3900
    228      4.3370     11.9160      2.9960      1.7700     78.3900
    229      3.3920     12.3080      3.4420      0.0100     78.3900
    230      4.4060     10.8280      3.2300      0.0100     78.3900
    231      4.2380     12.0620      1.4690      1.7700     78.3900
    232      4.2410     13.1350      1.1760      0.0100     78.3900
    233      5.3910     11.4230      0.8420      1.5900     78.3900
    234      4.9830     10.7490     -0.3380      1.7700     78.3900
    235      5.6110     11.1520     -1.1650      0.0100     78.3900
    236      5.2030      9.2990     -0.2200      1.6800     78.3900
    237      5.4680      7.1630     -0.6720      1.7700     78.3900
    238      5.5930      7.2820      0.7080      1.6800     78.3900
    239      5.4340      8.5670      0.9220      1.7700     78.3900
    240      5.4810      9.0470      1.9030      0.0100     78.3900
    241      5.3410      6.2790     -2.8620      1.6800     78.3900
    242      5.0800      7.5220     -3.2680      1.7700     78.3900
    243      4.9300      7.6390     -4.3450      0.0100     78.3900
    244      5.0280      8.6530     -2.5550      1.6800     78.3900
    245      5.2190      8.3960     -1.2520      1.7700     78.3900
    246      5.5510      6.0570     -1.5430      1.7700     78.3900
    247      5.8270      4.8100     -1.1270      1.6800     78.3900
    248      6.0740      4.6010     -0.1780      0.0100     78.3900
    249      5.9530      4.0960     -1.8140      0.0100     78.3900
    250      3.5210     11.0870     -0.5900      1.7700     78.3900
    251      2.9630     10.2360     -1.0390      0.0100     78.3900
    252      3.4040     12.2250     -1.4240      1.5900     78.3900
    253      2.4960     12.5510     -1.3360      0.0100     78.3900
    254      3.0230     11.3800      0.8190      1.7700     78.3900
    255      2.9070     10.4180      1.3710      0.0100     78.3900
    256      1.8520     12.2410      0.8660      1.5900     78.3900
    257      0.4670     11.6150      1.2910      2.1000     78.3900
    258      0.5670     10.1470      1.1410      1.5900     78.3900
    259      0.0960     12.1190      2.6310      1.5900     78.3900
    260     -0.5570     12.1320      0.2150      1.5900     78.3900
    261     -0.8330     13.5180     -0.0800      1.7700     78.3900
    262     -0.0670     14.2060      0.3500      0.0100     78.3900
    263     -1.8220     13.8000      0.3500      0.0100     78.3900
    264     -0.9290     13.7700     -1.5930      1.7700     78.3900
    265     -1.0390     14.8570     -1.8050      0.0100     78.3900
    266      0.2990     13.3280     -2.2470      1.5900     78.3900
    267     -0.0270     12.7460     -3.5040      1.7700     78.3900
    268      0.5550     13.3080     -4.2710      0.0100     78.3900
    269      0.3500     11.3350     -3.5650      1.6800     78.3900
    270      0.9280      9.3570     -4.3080      1.7700     78.3900
    271      0.9960      9.2800     -2.9270      1.6800     78.3900
    272      0.6230     10.4730     -2.5290      1.7700     78.3900
    273      0.5470     10.7940     -1.4890      0.0100     78.3900
    274      1.0700      8.8180     -6.6090      1.6800     78.3900
    275      0.6550     10.0650     -6.8460      1.7700     78.3900
    276      0.5570     10.3240     -7.9050      0.0100     78.3900
    277      0.3610     11.0410     -5.9780      1.6800     78.3900
    278      0.5200     10.6120     -4.7150      1.7700     78.3900
    279      1.2100      8.4250     -5.3220      1.7700     78.3900
    280      1.6000      7.1680     -5.0990      1.6800     78.3900
    281      1.7780      6.7950     -4.1770      0.0100     78.3900
    282      1.4970      6.5250     -5.8550      0.0100     78.3900
    283     -1.5040     12.9540     -3.7530      1.7700     78.3900
    284     -1.9550     12.1070     -4.3070      0.0100     78.3900
    285     -1.7130     14.1630     -4.4610      1.5900     78.3900
    286     -2.6620     14.3520     -4.4320      0.0100     78.3900
    287     -2.0540     13.0220     -2.3350      1.7700     78.3900
    288     -2.0960     12.0010     -1.8890      0.0100     78.3900
    289     -3.2990     13.7420     -2.2380      1.5900     78.3900
    290     -4.6450     13.0480     -1.8210      2.1000     78.3900
    291     -4.3950     12.1670     -0.6630      1.5900     78.3900
    292     -5.6820     14.0900     -1.6550      1.5900     78.3900
    293     -5.0140     12.1600     -3.0660      1.5900     78.3900
    294     -5.2540     12.7150     -4.3790      1.7700     78.3900
    295     -4.5440     13.5380     -4.6230      0.0100     78.3900
    296     -6.2870     13.1360     -4.4360      0.0100     78.3900
    297     -5.1310     11.6440     -5.4700      1.7700     78.3900
    298     -5.3690     12.0710     -6.4700      0.0100     78.3900
    299     -3.7560     11.1540     -5.5340      1.5900     78.3900
    300     -3.7620      9.7470     -5.7190      1.7700     78.3900
    301     -3.0920      9.5290     -6.5830      0.0100     78.3900
    302     -3.2630      9.0320     -4.5260      1.6800     78.3900
    303     -2.7770      7.7520     -4.4850      1.7700     78.3900
    304     -1.9120      4.8130     -6.0970      1.6800     78.3900
    305     -2.2100      4.9790     -7.0370      0.0100     78.3900
    306     -1.5950      3.8960     -5.8380      0.0100     78.3900
    307     -2.6730      6.9150     -5.5300      1.6800     78.3900
    308     -2.1150      5.7540     -5.1940      1.7700     78.3900
    309     -1.7280      5.4480     -3.9160      1.6800     78.3900
    310     -1.3380      4.5350     -3.7360      0.0100     78.3900
    311     -1.8430      6.2800     -2.8110      1.7700     78.3900
    312     -1.4740      5.9140     -1.6920      1.5900     78.3900
    313     -2.4220      7.5280     -3.1670      1.7700     78.3900
    314     -2.6960      8.6410     -2.3870      1.6800     78.3900
    315     -3.1890      9.5070     -3.2360      1.7700     78.3900
    316     -3.5070     10.5150     -2.9800      0.0100     78.3900
    317     -5.1810      9.3570     -6.0660      1.7700     78.3900
    318     -5.4230      8.3200     -5.7620      0.0100     78.3900
    319     -5.3850      9.5010     -7.4590      1.5900     78.3900
    320     -6.3250      9.3600     -7.6150      0.0100     78.3900
    321     -5.9850     10.3830     -5.2720      1.7700     78.3900
    322     -5.9520     10.1400     -4.1850      0.0100     78.3900
    323     -7.3270     10.6190     -5.7570      1.5900     78.3900
    324     -8.5370      9.8560     -5.0990      2.1000     78.3900
    325     -8.4100      9.9040     -3.6250      1.5900     78.3900
    326     -9.7980     10.3720     -5.6720      1.5900     78.3900
    327     -8.3350      8.3720     -5.5810      1.5900     78.3900
    328     -8.4690      8.0310     -6.9820      1.7700     78.3900
    329     -7.8110      8.6570     -7.6230      0.0100     78.3900
    330     -9.5170      8.1970     -7.3190      0.0100     78.3900
    331     -8.1220      6.5540     -7.2360      1.7700     78.3900
    332     -8.2740      6.2890     -8.3050      0.0100     78.3900
    333     -6.7210      6.3010     -6.9230      1.5900     78.3900
    334     -6.5950      5.0270     -6.3020      1.7700     78.3900
    335     -5.8720      4.4540     -6.9280      0.0100     78.3900
    336     -6.0820      5.1410     -4.9030      1.6800     78.3900
    337     -6.1790      6.3200     -4.1960      1.7700     78.3900
    338     -6.6590      7.1390     -4.7250      0.0100     78.3900
    339     -5.5110      4.0280     -4.3290      1.7700     78.3900
    340     -5.4190      2.9550     -4.9170      1.5900     78.3900
    341     -5.0490      4.2070     -3.0500      1.6800     78.3900
    342     -4.6490      3.3840     -2.6140      0.0100     78.3900
    343     -5.1210      5.3500     -2.2820      1.7700     78.3900
    344     -4.7000      5.3410     -1.1270      1.5900     78.3900
    345     -5.7150      6.4690     -2.9490      1.7700     78.3900
    346     -5.7990      7.4180     -2.4210      0.0100     78.3900
    347     -7.9610      4.3500     -6.3680      1.7700     78.3900
    348     -8.1560      3.7110     -5.4780      0.0100     78.3900
    349     -8.0760      3.5710     -7.5500      1.5900     78.3900
    350     -9.0060      3.3140     -7.6670      0.0100     78.3900
    351     -8.8950      5.5560     -6.3700      1.7700     78.3900
    352     -8.9740      5.9810     -5.3470      0.0100     78.3900
    353    -10.2010      5.3010     -6.9180      1.5900     78.3900
    354    -10.6970      4.7040     -6.3300      0.0100     78.3900

     ----------------------------
     INPUT FOR TESSERA DEFINITION
     ----------------------------
     NTSALL  =        60     MTHALL  =         4
     MTHAUT  =         0     AUTFRE  =    2.0000
     NTSFRZ  =        60     KEEPSM  =         0
     AREAKP  =   10.0000     BONDRY  =    1.0000
     AREATL  =    0.0100

     SPHERE     INITS       METHOD
          1        60       FIXPVA
          2        60       FIXPVA
          3        60       FIXPVA
          4        60       FIXPVA
          5        60       FIXPVA
          6        60       FIXPVA
          7        60       FIXPVA
          8        60       FIXPVA
          9        60       FIXPVA
         10        60       FIXPVA
         11        60       FIXPVA
         12        60       FIXPVA
         13        60       FIXPVA
         14        60       FIXPVA
         15        60       FIXPVA
         16        60       FIXPVA
         17        60       FIXPVA
         18        60       FIXPVA
         19        60       FIXPVA
         20        60       FIXPVA
         21        60       FIXPVA
         22        60       FIXPVA
         23        60       FIXPVA
         24        60       FIXPVA
         25        60       FIXPVA
         26        60       FIXPVA
         27        60       FIXPVA
         28        60       FIXPVA
         29        60       FIXPVA
         30        60       FIXPVA
         31        60       FIXPVA
         32        60       FIXPVA
         33        60       FIXPVA
         34        60       FIXPVA
         35        60       FIXPVA
         36        60       FIXPVA
         37        60       FIXPVA
         38        60       FIXPVA
         39        60       FIXPVA
         40        60       FIXPVA
         41        60       FIXPVA
         42        60       FIXPVA
         43        60       FIXPVA
         44        60       FIXPVA
         45        60       FIXPVA
         46        60       FIXPVA
         47        60       FIXPVA
         48        60       FIXPVA
         49        60       FIXPVA
         50        60       FIXPVA
         51        60       FIXPVA
         52        60       FIXPVA
         53        60       FIXPVA
         54        60       FIXPVA
         55        60       FIXPVA
         56        60       FIXPVA
         57        60       FIXPVA
         58        60       FIXPVA
         59        60       FIXPVA
         60        60       FIXPVA
         61        60       FIXPVA
         62        60       FIXPVA
         63        60       FIXPVA
         64        60       FIXPVA
         65        60       FIXPVA
         66        60       FIXPVA
         67        60       FIXPVA
         68        60       FIXPVA
         69        60       FIXPVA
         70        60       FIXPVA
         71        60       FIXPVA
         72        60       FIXPVA
         73        60       FIXPVA
         74        60       FIXPVA
         75        60       FIXPVA
         76        60       FIXPVA
         77        60       FIXPVA
         78        60       FIXPVA
         79        60       FIXPVA
         80        60       FIXPVA
         81        60       FIXPVA
         82        60       FIXPVA
         83        60       FIXPVA
         84        60       FIXPVA
         85        60       FIXPVA
         86        60       FIXPVA
         87        60       FIXPVA
         88        60       FIXPVA
         89        60       FIXPVA
         90        60       FIXPVA
         91        60       FIXPVA
         92        60       FIXPVA
         93        60       FIXPVA
         94        60       FIXPVA
         95        60       FIXPVA
         96        60       FIXPVA
         97        60       FIXPVA
         98        60       FIXPVA
         99        60       FIXPVA
        100        60       FIXPVA
        101        60       FIXPVA
        102        60       FIXPVA
        103        60       FIXPVA
        104        60       FIXPVA
        105        60       FIXPVA
        106        60       FIXPVA
        107        60       FIXPVA
        108        60       FIXPVA
        109        60       FIXPVA
        110        60       FIXPVA
        111        60       FIXPVA
        112        60       FIXPVA
        113        60       FIXPVA
        114        60       FIXPVA
        115        60       FIXPVA
        116        60       FIXPVA
        117        60       FIXPVA
        118        60       FIXPVA
        119        60       FIXPVA
        120        60       FIXPVA
        121        60       FIXPVA
        122        60       FIXPVA
        123        60       FIXPVA
        124        60       FIXPVA
        125        60       FIXPVA
        126        60       FIXPVA
        127        60       FIXPVA
        128        60       FIXPVA
        129        60       FIXPVA
        130        60       FIXPVA
        131        60       FIXPVA
        132        60       FIXPVA
        133        60       FIXPVA
        134        60       FIXPVA
        135        60       FIXPVA
        136        60       FIXPVA
        137        60       FIXPVA
        138        60       FIXPVA
        139        60       FIXPVA
        140        60       FIXPVA
        141        60       FIXPVA
        142        60       FIXPVA
        143        60       FIXPVA
        144        60       FIXPVA
        145        60       FIXPVA
        146        60       FIXPVA
        147        60       FIXPVA
        148        60       FIXPVA
        149        60       FIXPVA
        150        60       FIXPVA
        151        60       FIXPVA
        152        60       FIXPVA
        153        60       FIXPVA
        154        60       FIXPVA
        155        60       FIXPVA
        156        60       FIXPVA
        157        60       FIXPVA
        158        60       FIXPVA
        159        60       FIXPVA
        160        60       FIXPVA
        161        60       FIXPVA
        162        60       FIXPVA
        163        60       FIXPVA
        164        60       FIXPVA
        165        60       FIXPVA
        166        60       FIXPVA
        167        60       FIXPVA
        168        60       FIXPVA
        169        60       FIXPVA
        170        60       FIXPVA
        171        60       FIXPVA
        172        60       FIXPVA
        173        60       FIXPVA
        174        60       FIXPVA
        175        60       FIXPVA
        176        60       FIXPVA
        177        60       FIXPVA
        178        60       FIXPVA
        179        60       FIXPVA
        180        60       FIXPVA
        181        60       FIXPVA
        182        60       FIXPVA
        183        60       FIXPVA
        184        60       FIXPVA
        185        60       FIXPVA
        186        60       FIXPVA
        187        60       FIXPVA
        188        60       FIXPVA
        189        60       FIXPVA
        190        60       FIXPVA
        191        60       FIXPVA
        192        60       FIXPVA
        193        60       FIXPVA
        194        60       FIXPVA
        195        60       FIXPVA
        196        60       FIXPVA
        197        60       FIXPVA
        198        60       FIXPVA
        199        60       FIXPVA
        200        60       FIXPVA
        201        60       FIXPVA
        202        60       FIXPVA
        203        60       FIXPVA
        204        60       FIXPVA
        205        60       FIXPVA
        206        60       FIXPVA
        207        60       FIXPVA
        208        60       FIXPVA
        209        60       FIXPVA
        210        60       FIXPVA
        211        60       FIXPVA
        212        60       FIXPVA
        213        60       FIXPVA
        214        60       FIXPVA
        215        60       FIXPVA
        216        60       FIXPVA
        217        60       FIXPVA
        218        60       FIXPVA
        219        60       FIXPVA
        220        60       FIXPVA
        221        60       FIXPVA
        222        60       FIXPVA
        223        60       FIXPVA
        224        60       FIXPVA
        225        60       FIXPVA
        226        60       FIXPVA
        227        60       FIXPVA
        228        60       FIXPVA
        229        60       FIXPVA
        230        60       FIXPVA
        231        60       FIXPVA
        232        60       FIXPVA
        233        60       FIXPVA
        234        60       FIXPVA
        235        60       FIXPVA
        236        60       FIXPVA
        237        60       FIXPVA
        238        60       FIXPVA
        239        60       FIXPVA
        240        60       FIXPVA
        241        60       FIXPVA
        242        60       FIXPVA
        243        60       FIXPVA
        244        60       FIXPVA
        245        60       FIXPVA
        246        60       FIXPVA
        247        60       FIXPVA
        248        60       FIXPVA
        249        60       FIXPVA
        250        60       FIXPVA
        251        60       FIXPVA
        252        60       FIXPVA
        253        60       FIXPVA
        254        60       FIXPVA
        255        60       FIXPVA
        256        60       FIXPVA
        257        60       FIXPVA
        258        60       FIXPVA
        259        60       FIXPVA
        260        60       FIXPVA
        261        60       FIXPVA
        262        60       FIXPVA
        263        60       FIXPVA
        264        60       FIXPVA
        265        60       FIXPVA
        266        60       FIXPVA
        267        60       FIXPVA
        268        60       FIXPVA
        269        60       FIXPVA
        270        60       FIXPVA
        271        60       FIXPVA
        272        60       FIXPVA
        273        60       FIXPVA
        274        60       FIXPVA
        275        60       FIXPVA
        276        60       FIXPVA
        277        60       FIXPVA
        278        60       FIXPVA
        279        60       FIXPVA
        280        60       FIXPVA
        281        60       FIXPVA
        282        60       FIXPVA
        283        60       FIXPVA
        284        60       FIXPVA
        285        60       FIXPVA
        286        60       FIXPVA
        287        60       FIXPVA
        288        60       FIXPVA
        289        60       FIXPVA
        290        60       FIXPVA
        291        60       FIXPVA
        292        60       FIXPVA
        293        60       FIXPVA
        294        60       FIXPVA
        295        60       FIXPVA
        296        60       FIXPVA
        297        60       FIXPVA
        298        60       FIXPVA
        299        60       FIXPVA
        300        60       FIXPVA
        301        60       FIXPVA
        302        60       FIXPVA
        303        60       FIXPVA
        304        60       FIXPVA
        305        60       FIXPVA
        306        60       FIXPVA
        307        60       FIXPVA
        308        60       FIXPVA
        309        60       FIXPVA
        310        60       FIXPVA
        311        60       FIXPVA
        312        60       FIXPVA
        313        60       FIXPVA
        314        60       FIXPVA
        315        60       FIXPVA
        316        60       FIXPVA
        317        60       FIXPVA
        318        60       FIXPVA
        319        60       FIXPVA
        320        60       FIXPVA
        321        60       FIXPVA
        322        60       FIXPVA
        323        60       FIXPVA
        324        60       FIXPVA
        325        60       FIXPVA
        326        60       FIXPVA
        327        60       FIXPVA
        328        60       FIXPVA
        329        60       FIXPVA
        330        60       FIXPVA
        331        60       FIXPVA
        332        60       FIXPVA
        333        60       FIXPVA
        334        60       FIXPVA
        335        60       FIXPVA
        336        60       FIXPVA
        337        60       FIXPVA
        338        60       FIXPVA
        339        60       FIXPVA
        340        60       FIXPVA
        341        60       FIXPVA
        342        60       FIXPVA
        343        60       FIXPVA
        344        60       FIXPVA
        345        60       FIXPVA
        346        60       FIXPVA
        347        60       FIXPVA
        348        60       FIXPVA
        349        60       FIXPVA
        350        60       FIXPVA
        351        60       FIXPVA
        352        60       FIXPVA
        353        60       FIXPVA
        354        60       FIXPVA

     ------------------------------
      FIXPVA TESSELLATION FOR PCM
         PEIFENG SU AND HUI LI
     UNIVERSITY OF NEBRASKA-LINCOLN
     ------------------------------


 PCM DIMENSIONS: MXSP=   354, MXTS=     14160, MEMORY=        145497

     INPUT FOR CAVITY DEFINITION 
     ---------------------------
   ATOM               COORDINATES                RADIUS       EPS
      1      0.5900     -3.3950      3.2900      0.0100     78.3900
      2      0.2320     -3.1980      2.4040      1.5900     78.3900
      3     -0.0140     -4.4660      1.7730      1.7700     78.3900
      4     -0.6860     -5.0760      2.4180      0.0100     78.3900
      5      0.9500     -5.0140      1.6770      0.0100     78.3900
      6     -0.6510     -4.3460      0.3830      1.7700     78.3900
      7     -0.7890     -5.3510     -0.0750      0.0100     78.3900
      8     -1.9740     -3.7360      0.4930      1.5900     78.3900
      9     -2.1810     -2.8690     -0.6130      1.7700     78.3900
     10     -3.1150     -3.2150     -1.1120      0.0100     78.3900
     11     -2.3640     -1.4780     -0.1800      1.6800     78.3900
     12     -2.9400      0.6430     -0.0740      1.7700     78.3900
     13     -2.3620      0.3390      1.1520      1.6800     78.3900
     14     -2.0370     -0.9290      1.0380      1.7700     78.3900
     15     -1.5640     -1.5340      1.8160      0.0100     78.3900
     16     -3.9850      1.8010     -1.8550      1.6800     78.3900
     17     -3.8710      0.6660     -2.5550      1.7700     78.3900
     18     -4.2710      0.7020     -3.5750      0.0100     78.3900
     19     -3.4110     -0.5280     -2.1630      1.6800     78.3900
     20     -2.9430     -0.4660     -0.9040      1.7700     78.3900
     21     -3.5080      1.8290     -0.5850      1.7700     78.3900
     22     -3.5870      2.9750      0.1150      1.6800     78.3900
     23     -3.2520      3.0460      1.0610      0.0100     78.3900
     24     -3.9600      3.8030     -0.3130      0.0100     78.3900
     25     -1.0150     -3.0460     -1.5610      1.7700     78.3900
     26     -0.7650     -2.1150     -2.1100      0.0100     78.3900
     27     -1.3070     -4.0850     -2.4740      1.5900     78.3900
     28     -0.5190     -4.2090     -3.0190      0.0100     78.3900
     29      0.1040     -3.4480     -0.6080      1.7700     78.3900
     30      0.4420     -2.5570     -0.0260      0.0100     78.3900
     31      1.1940     -4.1870     -1.2220      1.5900     78.3900
     32      2.4960     -3.3870     -1.6250      2.1000     78.3900
     33      2.8550     -2.4780     -0.5190      1.5900     78.3900
     34      3.5270     -4.3750     -2.0240      1.5900     78.3900
     35      2.0580     -2.5400     -2.8860      1.5900     78.3900
     36      1.6480     -3.2340     -4.0910      1.7700     78.3900
     37      0.9230     -4.0490     -3.8720      0.0100     78.3900
     38      2.5320     -3.6830     -4.5930      0.0100     78.3900
     39      0.9990     -2.2910     -5.1100      1.7700     78.3900
     40      0.6820     -2.8540     -6.0160      0.0100     78.3900
     41     -0.1900     -1.6830     -4.5410      1.5900     78.3900
     42     -0.2990     -0.3460     -5.0100      1.7700     78.3900
     43     -1.2870     -0.2890     -5.5290      0.0100     78.3900
     44     -0.2720      0.6540     -3.9080      1.6800     78.3900
     45      0.2880      0.3350     -2.6910      1.7700     78.3900
     46      0.7050     -0.6700     -2.6070      0.0100     78.3900
     47      0.2870      1.2070     -1.6740      1.7700     78.3900
     48      0.7040      0.9680     -0.6980      0.0100     78.3900
     49     -0.7770      1.9320     -4.1180      1.7700     78.3900
     50     -1.2400      2.2280     -5.2310      1.5900     78.3900
     51     -0.7860      2.8230     -3.1050      1.6800     78.3900
     52     -0.2850      2.4900     -1.9060      1.7700     78.3900
     53     -0.3350      3.3870     -0.9220      1.6800     78.3900
     54     -0.7600      4.2750     -1.1190      0.0100     78.3900
     55     -0.0350      3.1850      0.0140      0.0100     78.3900
     56      0.8060     -0.1290     -6.0270      1.7700     78.3900
     57      1.1970      0.9060     -6.0100      0.0100     78.3900
     58      0.3530     -0.4600     -7.3280      1.5900     78.3900
     59      1.1360     -0.5470     -7.8930      0.0100     78.3900
     60      1.8650     -1.1120     -5.5520      1.7700     78.3900
     61      2.3770     -0.7340     -4.6360      0.0100     78.3900
     62      2.7760     -1.5350     -6.5850      1.5900     78.3900
     63      4.1910     -0.8690     -6.7070      2.1000     78.3900
     64      5.0010     -1.2760     -5.5410      1.5900     78.3900
     65      4.7290     -1.1970     -8.0470      1.5900     78.3900
     66      3.9370      0.6760     -6.6380      1.5900     78.3900
     67      3.4990      1.4030     -7.8120      1.7700     78.3900
     68      2.5470      0.9870     -8.2130      0.0100     78.3900
     69      4.2650      1.3450     -8.6200      0.0100     78.3900
     70      3.2610      2.8840     -7.4790      1.7700     78.3900
     71      2.8480      3.4370     -8.3490      0.0100     78.3900
     72      2.3020      2.9940     -6.3910      1.5900     78.3900
     73      2.6850      4.0310     -5.5140      1.7700     78.3900
     74      1.8060      4.7040     -5.4870      0.0100     78.3900
     75      2.9150      3.5340     -4.1480      1.6800     78.3900
     76      2.6740      4.1990     -2.9680      1.7700     78.3900
     77      1.7440      7.0500     -1.2290      1.6800     78.3900
     78      1.5680      7.2950     -0.2780      0.0100     78.3900
     79      1.4980      7.7050     -1.9500      0.0100     78.3900
     80      2.1840      5.4520     -2.8380      1.6800     78.3900
     81      2.1190      5.8300     -1.5620      1.7700     78.3900
     82      2.4340      5.0110     -0.5100      1.6800     78.3900
     83      2.3130      5.3610      0.4260      0.0100     78.3900
     84      2.8850      3.7030     -0.6150      1.7700     78.3900
     85      3.1290      3.0270      0.3890      1.5900     78.3900
     86      3.0180      3.3040     -1.9700      1.7700     78.3900
     87      3.4540      2.1010     -2.5070      1.6800     78.3900
     88      3.3750      2.2830     -3.8010      1.7700     78.3900
     89      3.6220      1.5380     -4.5560      0.0100     78.3900
     90      3.8890      4.7400     -6.1270      1.7700     78.3900
     91      4.6140      5.1000     -5.3660      0.0100     78.3900
     92      3.4420      5.8280     -6.9220      1.5900     78.3900
     93      3.2330      6.5850     -6.3600      0.0100     78.3900
     94      4.5050      3.6270     -6.9800      1.7700     78.3900
     95      5.0300      2.9240     -6.2950      0.0100     78.3900
     96      5.3150      4.0770     -8.1030      1.5900     78.3900
     97      6.7090      3.4000     -8.3920      2.1000     78.3900
     98      7.1850      2.7250     -7.1660      1.5900     78.3900
     99      6.6600      2.5830     -9.6300      1.5900     78.3900
    100      7.7120      4.5870     -8.6580      1.5900     78.3900
    101      7.4820      5.6010     -9.6580      1.7700     78.3900
    102      6.4640      5.5370    -10.1090      0.0100     78.3900
    103      8.2200      5.4790    -10.4800      0.0100     78.3900
    104      7.6570      7.0080     -9.0840      1.7700     78.3900
    105      7.3200      7.7730     -9.8170      0.0100     78.3900
    106      6.8470      7.1600     -7.8860      1.5900     78.3900
    107      7.5590      7.9260     -6.9360      1.7700     78.3900
    108      6.8910      8.7640     -6.6330      0.0100     78.3900
    109      7.9110      7.1310     -5.7450      1.6800     78.3900
    110      8.2590      7.6320     -4.5230      1.7700     78.3900
    111      8.7200     10.3450     -2.4180      1.6800     78.3900
    112      8.5600     11.1250     -3.0210      0.0100     78.3900
    113      8.9310     10.5060     -1.4490      0.0100     78.3900
    114      8.3410      8.9350     -4.2020      1.6800     78.3900
    115      8.6090      9.1260     -2.9150      1.7700     78.3900
    116      8.8060      8.0960     -2.0330      1.6800     78.3900
    117      9.0270      8.3190     -1.0740      0.0100     78.3900
    118      8.7510      6.7410     -2.3410      1.7700     78.3900
    119      8.9460      5.8820     -1.4760      1.5900     78.3900
    120      8.4690      6.5310     -3.7150      1.7700     78.3900
    121      8.2880      5.3490     -4.4260      1.6800     78.3900
    122      7.9480      5.7590     -5.6210      1.7700     78.3900
    123      7.6800      5.1120     -6.4480      0.0100     78.3900
    124      8.7780      8.4760     -7.6390      1.7700     78.3900
    125      9.6230      8.6460     -6.9450      0.0100     78.3900
    126      8.4420      9.6930     -8.2790      1.5900     78.3900
    127      9.2180      9.9630     -8.7840      0.0100     78.3900
    128      9.0830      7.3710     -8.6460      1.7700     78.3900
    129      9.5000      6.4730     -8.1370      0.0100     78.3900
    130      9.8620      7.7740     -9.7960      1.5900     78.3900
    131     11.4360      7.7200     -9.7510      2.1000     78.3900
    132     11.8840      6.3700     -9.3340      1.5900     78.3900
    133     11.9570      8.2090    -11.0480      1.5900     78.3900
    134     11.8110      8.7620     -8.6270      1.5900     78.3900
    135     11.6750     10.1770     -8.9100      1.7700     78.3900
    136     10.6420     10.4300     -9.2280      0.0100     78.3900
    137     12.3570     10.4830     -9.7410      0.0100     78.3900
    138     12.0110     11.0350     -7.6880      1.7700     78.3900
    139     11.8750     12.1160     -7.9210      0.0100     78.3900
    140     11.1310     10.7150     -6.5730      1.5900     78.3900
    141     11.8710     10.7700     -5.3640      1.7700     78.3900
    142     11.3450     11.4950     -4.7010      0.0100     78.3900
    143     11.9040      9.4580     -4.7060      1.6800     78.3900
    144     12.0680      7.8470     -3.2160      1.7700     78.3900
    145     11.7330      7.2340     -4.4140      1.6800     78.3900
    146     11.6490      8.2270     -5.2630      1.7700     78.3900
    147     11.4130      8.1250     -6.3230      0.0100     78.3900
    148     12.6530      8.2250     -0.9540      1.6800     78.3900
    149     12.7350      9.5210     -1.2710      1.7700     78.3900
    150     13.0220     10.1900     -0.4510      0.0100     78.3900
    151     12.5170     10.1160     -2.4490      1.6800     78.3900
    152     12.1800      9.2170     -3.3840      1.7700     78.3900
    153     12.3060      7.3390     -1.9210      1.7700     78.3900
    154     12.2070      6.0350     -1.6060      1.6800     78.3900
    155     11.9050      5.3520     -2.2750      0.0100     78.3900
    156     12.3560      5.7280     -0.6630      0.0100     78.3900
    157     13.2590     11.2980     -5.6950      1.7700     78.3900
    158     14.0460     10.8560     -5.0490      0.0100     78.3900
    159     13.2760     12.7120     -5.5710      1.5900     78.3900
    160     14.0930     13.0500     -5.9730      0.0100     78.3900
    161     13.4230     10.8340     -7.1400      1.7700     78.3900
    162     13.6570      9.7490     -7.1830      0.0100     78.3900
    163     14.3660     11.5960     -7.9120      1.5900     78.3900
    164     15.2640     11.4940     -7.5430      0.0100     78.3900
    165     13.5920      5.4010      8.2030      0.0100     78.3900
    166     13.5260      6.1220      7.5460      1.5900     78.3900
    167     14.1640      7.2770      8.1120      1.7700     78.3900
    168     15.2330      7.0390      8.3010      0.0100     78.3900
    169     13.6870      7.5160      9.0910      0.0100     78.3900
    170     14.0940      8.5190      7.2130      1.7700     78.3900
    171     14.5020      9.4080      7.7400      0.0100     78.3900
    172     14.9010      8.3140      6.0130      1.5900     78.3900
    173     14.2440      8.8940      4.8960      1.7700     78.3900
    174     14.9770      9.6070      4.4450      0.0100     78.3900
    175     13.8330      7.8640      3.8920      1.6800     78.3900
    176     13.7230      6.5320      4.2380      1.7700     78.3900
    177     13.9830      6.2880      5.2680      0.0100     78.3900
    178     13.5520      8.2780      2.6090      1.7700     78.3900
    179     13.6060      9.4540      2.2680      1.5900     78.3900
    180     13.2080      7.2760      1.7370      1.6800     78.3900
    181     13.0220      7.5730      0.7860      0.0100     78.3900
    182     13.1440      5.9240      1.9950      1.7700     78.3900
    183     12.8750      5.1350      1.0890      1.5900     78.3900
    184     13.4040      5.5720      3.3570      1.7700     78.3900
    185     13.3720      4.5240      3.6450      0.0100     78.3900
    186     13.0610      9.6810      5.4390      1.7700     78.3900
    187     12.2190      9.7140      4.7220      0.0100     78.3900
    188     13.4510     11.0020      5.7700      1.5900     78.3900
    189     12.6660     11.4470      6.1160      0.0100     78.3900
    190     12.7010      8.8670      6.6760      1.7700     78.3900
    191     12.2300      7.9070      6.3710      0.0100     78.3900
    192     11.9460      9.5690      7.6870      1.5900     78.3900
    193     10.3740      9.4690      7.6920      2.1000     78.3900
    194      9.9580      8.0750      7.4270      1.5900     78.3900
    195      9.8470     10.0830      8.9340      1.5900     78.3900
    196      9.9490     10.3430      6.4600      1.5900     78.3900
    197     10.1150     11.7770      6.4500      1.7700     78.3900
    198     11.1700     12.0620      6.6720      0.0100     78.3900
    199      9.4680     12.2460      7.2270      0.0100     78.3900
    200      9.7280     12.3670      5.0820      1.7700     78.3900
    201      9.8350     13.4730      5.0830      0.0100     78.3900
    202     10.6210     11.8490      4.0500      1.5900     78.3900
    203      9.8800     11.6340      2.8520      1.7700     78.3900
    204     10.4050     12.2300      2.0710      0.0100     78.3900
    205      9.8470     10.2070      2.4230      1.6800     78.3900
    206     10.0900      9.2080      3.3340      1.7700     78.3900
    207     10.2960      9.5350      4.3520      0.0100     78.3900
    208     10.0970      7.9180      2.9750      1.7700     78.3900
    209     10.3300      7.1200      3.6790      0.0100     78.3900
    210      9.5340      9.8760      1.1060      1.7700     78.3900
    211      9.2950     10.7810      0.2920      1.5900     78.3900
    212      9.5020      8.5770      0.7320      1.6800     78.3900
    213      9.8000      7.6110      1.6170      1.7700     78.3900
    214      9.8070      6.3470      1.2040      1.6800     78.3900
    215      9.5610      6.1530      0.2500      0.0100     78.3900
    216      9.9990      5.5800      1.8160      0.0100     78.3900
    217      8.4910     12.2050      3.0650      1.7700     78.3900
    218      7.7120     11.6480      2.4990      0.0100     78.3900
    219      8.4570     13.5740      2.7020      1.5900     78.3900
    220      7.5830     13.9130      2.9520      0.0100     78.3900
    221      8.3150     12.0190      4.5720      1.7700     78.3900
    222      8.1450     10.9430      4.8050      0.0100     78.3900
    223      7.3320     12.8780      5.1960      1.5900     78.3900
    224      5.7990     12.5150      5.0630      2.1000     78.3900
    225      5.5810     11.1240      5.5180      1.5900     78.3900
    226      5.0290     13.5700      5.7560      1.5900     78.3900
    227      5.4850     12.6290      3.5220      1.5900     78.3900
    228      4.3370     11.9160      2.9960      1.7700     78.3900
    229      3.3920     12.3080      3.4420      0.0100     78.3900
    230      4.4060     10.8280      3.2300      0.0100     78.3900
    231      4.2380     12.0620      1.4690      1.7700     78.3900
    232      4.2410     13.1350      1.1760      0.0100     78.3900
    233      5.3910     11.4230      0.8420      1.5900     78.3900
    234      4.9830     10.7490     -0.3380      1.7700     78.3900
    235      5.6110     11.1520     -1.1650      0.0100     78.3900
    236      5.2030      9.2990     -0.2200      1.6800     78.3900
    237      5.4680      7.1630     -0.6720      1.7700     78.3900
    238      5.5930      7.2820      0.7080      1.6800     78.3900
    239      5.4340      8.5670      0.9220      1.7700     78.3900
    240      5.4810      9.0470      1.9030      0.0100     78.3900
    241      5.3410      6.2790     -2.8620      1.6800     78.3900
    242      5.0800      7.5220     -3.2680      1.7700     78.3900
    243      4.9300      7.6390     -4.3450      0.0100     78.3900
    244      5.0280      8.6530     -2.5550      1.6800     78.3900
    245      5.2190      8.3960     -1.2520      1.7700     78.3900
    246      5.5510      6.0570     -1.5430      1.7700     78.3900
    247      5.8270      4.8100     -1.1270      1.6800     78.3900
    248      6.0740      4.6010     -0.1780      0.0100     78.3900
    249      5.9530      4.0960     -1.8140      0.0100     78.3900
    250      3.5210     11.0870     -0.5900      1.7700     78.3900
    251      2.9630     10.2360     -1.0390      0.0100     78.3900
    252      3.4040     12.2250     -1.4240      1.5900     78.3900
    253      2.4960     12.5510     -1.3360      0.0100     78.3900
    254      3.0230     11.3800      0.8190      1.7700     78.3900
    255      2.9070     10.4180      1.3710      0.0100     78.3900
    256      1.8520     12.2410      0.8660      1.5900     78.3900
    257      0.4670     11.6150      1.2910      2.1000     78.3900
    258      0.5670     10.1470      1.1410      1.5900     78.3900
    259      0.0960     12.1190      2.6310      1.5900     78.3900
    260     -0.5570     12.1320      0.2150      1.5900     78.3900
    261     -0.8330     13.5180     -0.0800      1.7700     78.3900
    262     -0.0670     14.2060      0.3500      0.0100     78.3900
    263     -1.8220     13.8000      0.3500      0.0100     78.3900
    264     -0.9290     13.7700     -1.5930      1.7700     78.3900
    265     -1.0390     14.8570     -1.8050      0.0100     78.3900
    266      0.2990     13.3280     -2.2470      1.5900     78.3900
    267     -0.0270     12.7460     -3.5040      1.7700     78.3900
    268      0.5550     13.3080     -4.2710      0.0100     78.3900
    269      0.3500     11.3350     -3.5650      1.6800     78.3900
    270      0.9280      9.3570     -4.3080      1.7700     78.3900
    271      0.9960      9.2800     -2.9270      1.6800     78.3900
    272      0.6230     10.4730     -2.5290      1.7700     78.3900
    273      0.5470     10.7940     -1.4890      0.0100     78.3900
    274      1.0700      8.8180     -6.6090      1.6800     78.3900
    275      0.6550     10.0650     -6.8460      1.7700     78.3900
    276      0.5570     10.3240     -7.9050      0.0100     78.3900
    277      0.3610     11.0410     -5.9780      1.6800     78.3900
    278      0.5200     10.6120     -4.7150      1.7700     78.3900
    279      1.2100      8.4250     -5.3220      1.7700     78.3900
    280      1.6000      7.1680     -5.0990      1.6800     78.3900
    281      1.7780      6.7950     -4.1770      0.0100     78.3900
    282      1.4970      6.5250     -5.8550      0.0100     78.3900
    283     -1.5040     12.9540     -3.7530      1.7700     78.3900
    284     -1.9550     12.1070     -4.3070      0.0100     78.3900
    285     -1.7130     14.1630     -4.4610      1.5900     78.3900
    286     -2.6620     14.3520     -4.4320      0.0100     78.3900
    287     -2.0540     13.0220     -2.3350      1.7700     78.3900
    288     -2.0960     12.0010     -1.8890      0.0100     78.3900
    289     -3.2990     13.7420     -2.2380      1.5900     78.3900
    290     -4.6450     13.0480     -1.8210      2.1000     78.3900
    291     -4.3950     12.1670     -0.6630      1.5900     78.3900
    292     -5.6820     14.0900     -1.6550      1.5900     78.3900
    293     -5.0140     12.1600     -3.0660      1.5900     78.3900
    294     -5.2540     12.7150     -4.3790      1.7700     78.3900
    295     -4.5440     13.5380     -4.6230      0.0100     78.3900
    296     -6.2870     13.1360     -4.4360      0.0100     78.3900
    297     -5.1310     11.6440     -5.4700      1.7700     78.3900
    298     -5.3690     12.0710     -6.4700      0.0100     78.3900
    299     -3.7560     11.1540     -5.5340      1.5900     78.3900
    300     -3.7620      9.7470     -5.7190      1.7700     78.3900
    301     -3.0920      9.5290     -6.5830      0.0100     78.3900
    302     -3.2630      9.0320     -4.5260      1.6800     78.3900
    303     -2.7770      7.7520     -4.4850      1.7700     78.3900
    304     -1.9120      4.8130     -6.0970      1.6800     78.3900
    305     -2.2100      4.9790     -7.0370      0.0100     78.3900
    306     -1.5950      3.8960     -5.8380      0.0100     78.3900
    307     -2.6730      6.9150     -5.5300      1.6800     78.3900
    308     -2.1150      5.7540     -5.1940      1.7700     78.3900
    309     -1.7280      5.4480     -3.9160      1.6800     78.3900
    310     -1.3380      4.5350     -3.7360      0.0100     78.3900
    311     -1.8430      6.2800     -2.8110      1.7700     78.3900
    312     -1.4740      5.9140     -1.6920      1.5900     78.3900
    313     -2.4220      7.5280     -3.1670      1.7700     78.3900
    314     -2.6960      8.6410     -2.3870      1.6800     78.3900
    315     -3.1890      9.5070     -3.2360      1.7700     78.3900
    316     -3.5070     10.5150     -2.9800      0.0100     78.3900
    317     -5.1810      9.3570     -6.0660      1.7700     78.3900
    318     -5.4230      8.3200     -5.7620      0.0100     78.3900
    319     -5.3850      9.5010     -7.4590      1.5900     78.3900
    320     -6.3250      9.3600     -7.6150      0.0100     78.3900
    321     -5.9850     10.3830     -5.2720      1.7700     78.3900
    322     -5.9520     10.1400     -4.1850      0.0100     78.3900
    323     -7.3270     10.6190     -5.7570      1.5900     78.3900
    324     -8.5370      9.8560     -5.0990      2.1000     78.3900
    325     -8.4100      9.9040     -3.6250      1.5900     78.3900
    326     -9.7980     10.3720     -5.6720      1.5900     78.3900
    327     -8.3350      8.3720     -5.5810      1.5900     78.3900
    328     -8.4690      8.0310     -6.9820      1.7700     78.3900
    329     -7.8110      8.6570     -7.6230      0.0100     78.3900
    330     -9.5170      8.1970     -7.3190      0.0100     78.3900
[...]
   302   10   7.0   0.00    0.0    0.000000   -0.803017   -0.814878
   303   10   6.0   0.00    0.0    0.000000    0.702747    0.708265
   304   10   7.0  15.52   30.4   -0.083378   -0.976150   -1.049409
   305   10   1.0   0.00    0.0    0.000000    0.444712    0.440802
   306   10   1.0   0.00    0.0    0.000000    0.476832    0.518045
   307   10   7.0   3.40    6.7    0.066333   -0.751648   -0.754331
   308   10   6.0   0.10    0.2    0.001657    0.965950    0.971176
   309   10   7.0   0.07    0.1    0.003347   -0.930373   -1.015460
   310   10   1.0   0.00    0.0    0.000000    0.488102    0.542656
   311   10   6.0   0.00    0.0    0.000002    0.886029    0.888928
   312   10   8.0   6.19   13.5    0.122885   -0.755188   -0.741681
   313   10   6.0   0.00    0.0    0.000000   -0.047868   -0.043636
   314   10   7.0   7.58   14.8    0.156684   -0.589974   -0.600988
   315   10   6.0   1.93    3.4    0.014878    0.269153    0.252396
   316   10   1.0   0.00    0.0    0.000000    0.270950    0.296579
   317   10   6.0   0.80    1.4    0.008272    0.139262    0.104260
   318   10   1.0   0.00    0.0    0.000000    0.188967    0.225459
   319   10   8.0  16.66   36.4    0.101445   -0.826264   -0.846111
   320   10   1.0   0.00    0.0    0.000000    0.500933    0.529079
   321   10   6.0   0.97    1.7   -0.017165    0.133436    0.098837
   322   10   1.0   0.00    0.0    0.000000    0.256494    0.258320
   323   10   8.0   3.31    7.2    0.049910   -0.792955   -0.799673
   324   10  15.0  12.98   16.3    0.168912    1.600473    1.653125
   325   10   8.0  13.05   28.5    0.292059   -0.891073   -0.889567
   326   10   8.0  17.16   37.5    0.343854   -0.892003   -0.887660
   327   10   8.0   0.87    1.9    0.007833   -0.974340   -0.789631
   328   11   6.0  12.68   22.4   -0.107986    0.208064   -0.032504
   329   11   1.0   0.00    0.0    0.000000    0.146688    0.174603
   330   11   1.0   0.00    0.0    0.000000    0.248578    0.230778
   331   11   6.0   6.93   12.2   -0.052280    0.091171    0.151150
   332   11   1.0   0.00    0.0    0.000000    0.256227    0.228021
   333   11   8.0   4.52    9.9    0.050968   -0.729209   -0.736893
   334   11   6.0   4.81    8.5   -0.047712    0.416500    0.415574
   335   11   1.0   0.00    0.0    0.000000    0.261369    0.259260
   336   11   7.0   0.38    0.7   -0.003041   -0.830532   -0.838625
   337   11   6.0   2.71    4.8    0.003238    0.193344    0.178300
   338   11   1.0   0.00    0.0    0.000000    0.307393    0.329835
   339   11   6.0   3.25    5.7   -0.017168    1.113830    1.115874
   340   11   8.0  11.14   24.3    0.168197   -0.684460   -0.690681
   341   11   7.0   1.43    2.8    0.001912   -0.932310   -1.015466
   342   11   1.0   0.00    0.0    0.000000    0.485375    0.546568
   343   11   6.0   2.73    4.8   -0.003524    0.880189    0.887975
   344   11   8.0  10.91   23.8    0.157441   -0.731028   -0.716583
   345   11   6.0   8.58   15.1   -0.026291   -0.448609   -0.448606
   346   11   1.0   0.00    0.0    0.000000    0.275583    0.273039
   347   11   6.0   5.24    9.2   -0.050184    0.124968    0.125919
   348   11   1.0   0.00    0.0    0.000000    0.220614    0.219212
   349   11   8.0  20.64   45.1    0.035992   -0.841698   -0.842963
   350   11   1.0   0.00    0.0    0.000000    0.508116    0.507812
   351   11   6.0   4.74    8.4   -0.051505    0.158350    0.142360
   352   11   1.0   0.00    0.0    0.000000    0.224708    0.226983
   353   11   8.0  21.68   47.4   -0.021390   -0.849252   -0.853466
   354   11   1.0   0.00    0.0    0.000000    0.510595    0.509753

 Done with FMO properties.
 CPU     0: STEP CPU TIME=     0.00 TOTAL CPU TIME=      17306.0 (    288.4 MIN)
 TOTAL WALL CLOCK TIME=      43230.7 SECONDS, CPU UTILIZATION IS    40.03%
 CPU     0: STEP CPU TIME=     0.00 TOTAL CPU TIME=      17306.0 (    288.4 MIN)
 TOTAL WALL CLOCK TIME=      43230.7 SECONDS, CPU UTILIZATION IS    40.03%

 Total timing statistics in pairs (CPU,wall) for each rank, sec

    Rank   total     SCF    corr     DFT    CPHF     EFP    solv     ESP    geom
 -------------------------------------------------------------------------------
       1   17306.0   5194.5   6548.8      0.0    0.0   0.0  163.9  5092.3    0.0
       1   43230.8  11099.0  20130.0      0.0    0.0   0.0  454.5 10702.1    0.0
       2   17923.2   5080.4   7240.9      0.0    0.0   0.0  164.5  5144.0    0.0
       2   43230.8  11093.4  20129.1      0.0    0.0   0.0  454.6 10701.3    0.0
       3   17640.2   5167.0   6647.5      0.0    0.0   0.0  165.3  5311.6    0.0
       3   43230.8  11093.1  20129.1      0.0    0.0   0.0  455.0 10701.4    0.0
       4   17863.5   5046.2   7058.0      0.0    0.0   0.0  164.6  5262.0    0.0
       4   43230.8  11093.9  20129.1      0.0    0.0   0.0  453.8 10701.3    0.0
       5   17806.5   5137.5   6766.0      0.0    0.0   0.0  165.0  5391.2    0.0
       5   43230.8  11093.8  20129.0      0.0    0.0   0.0  454.6 10701.4    0.0
       6   17926.0   5174.3   6848.1      0.0    0.0   0.0  164.0  5387.4    0.0
       6   43230.8  11094.3  20129.0      0.0    0.0   0.0  453.7 10701.3    0.0
       7   18021.4   5200.3   7073.3      0.0    0.0   0.0  164.5  5250.2    0.0
       7   43230.8  11093.8  20129.0      0.0    0.0   0.0  454.2 10701.3    0.0
       8   17702.5   5130.3   6841.9      0.0    0.0   0.0  163.6  5235.2    0.0
       8   43230.8  11094.4  20129.0      0.0    0.0   0.0  453.0 10701.2    0.0
       9   17676.3   5184.2   6622.4      0.0    0.0   0.0  160.5  5374.8    0.0
       9   43230.8  11095.4  20129.0      0.0    0.0   0.0  452.8 10701.6    0.0
      10   18436.1   5192.2   7219.5      0.0    0.0   0.0  161.8  5512.4    0.0
      10   43230.8  11095.1  20129.0      0.0    0.0   0.0  453.0 10701.4    0.0
      11   17981.4   5145.7   6974.4      0.0    0.0   0.0  160.9  5356.1    0.0
      11   43230.8  11095.5  20129.0      0.0    0.0   0.0  452.5 10701.4    0.0
      12   17881.8   5086.1   6999.8      0.0    0.0   0.0  161.3  5288.6    0.0
      12   43230.8  11095.8  20129.0      0.0    0.0   0.0  451.8 10701.3    0.0
      13   17375.3   5170.2   6579.8      0.0    0.0   0.0  160.3  5150.1    0.0
      13   43230.8  11096.1  20129.0      0.0    0.0   0.0  452.2 10701.2    0.0
      14   19073.7   5196.3   8053.4      0.0    0.0   0.0  161.5  5326.0    0.0
      14   43230.8  11095.9  20129.0      0.0    0.0   0.0  451.9 10701.2    0.0
      15   17592.1   5104.9   6779.1      0.0    0.0   0.0  160.7  5223.9    0.0
      15   43230.8  11096.2  20128.9      0.0    0.0   0.0  451.9 10701.1    0.0
      16   17650.2   5081.2   7086.6      0.0    0.0   0.0  161.0  4992.3    0.0
      16   43230.8  11096.4  20128.9      0.0    0.0   0.0  451.0 10701.0    0.0
averaged   17866.0   5143.2   6958.7      0.0    0.0   0.0  162.7  5268.6    0.0
averaged   43230.8  11095.1  20129.1      0.0    0.0   0.0  453.2 10701.3    0.0

  FMO  timing statistics in pairs (CPU,wall) for each rank, sec

    Rank  FMOini FMOscf1  FMOdm1 FMOsyn1 FMOscf2  FMOes2 FMOsyn2 FMOscf3 FMOsyn3
 -------------------------------------------------------------------------------
       1    2.2    6656.6    0.3    0.0   10441.7     205.1    0.0    0.0    0.0
       1    5.5   14280.0    0.7    0.0   28455.9     488.3    0.0    0.0    0.0
       2    1.7    6633.3    0.1    0.0   11091.7     196.5    0.0    0.0    0.0
       2    5.5   14280.0    0.7    0.0   28461.5     482.8    0.0    0.0    0.0
       3    1.8    6895.4    0.1    0.0   10492.5     250.3    0.0    0.0    0.0
       3    5.5   14280.0    0.7    0.0   28462.2     482.0    0.0    0.0    0.0
       4    1.7    6695.1    0.1    0.0   10931.1     235.4    0.0    0.0    0.0
       4    5.5   14280.0    0.7    0.0   28461.9     482.3    0.0    0.0    0.0
       5    2.0    6893.9    0.2    0.0   10662.6     247.7    0.0    0.0    0.0
       5    5.5   14280.0    0.7    0.0   28461.5     482.7    0.0    0.0    0.0
       6    1.7    6941.0    0.1    0.0   10729.3     253.9    0.0    0.0    0.0
       6    5.5   14280.0    0.7    0.0   28460.3     483.9    0.0    0.0    0.0
       7    1.8    6922.3    0.1    0.0   10861.7     235.4    0.0    0.0    0.0
       7    5.5   14280.0    0.7    0.0   28462.0     482.2    0.0    0.0    0.0
       8    1.6    6760.0    0.0    0.0   10704.9     235.8    0.0    0.0    0.0
       8    5.5   14280.0    0.7    0.0   28461.0     483.3    0.0    0.0    0.0
       9    1.9    6890.0    0.3    0.0   10547.3     236.8    0.0    0.0    0.0
       9    5.5   14280.0    0.7    0.0   28460.0     484.3    0.0    0.0    0.0
      10    1.5    6872.1    0.1    0.0   11307.1     255.3    0.0    0.0    0.0
      10    5.5   14280.0    0.7    0.0   28461.1     483.1    0.0    0.0    0.0
      11    1.7    6774.1    0.1    0.0   10957.1     248.3    0.0    0.0    0.0
      11    5.5   14280.0    0.7    0.0   28460.4     483.8    0.0    0.0    0.0
      12    1.5    6789.3    0.0    0.0   10838.8     252.2    0.0    0.0    0.0
      12    5.5   14280.0    0.7    0.0   28461.9     482.3    0.0    0.0    0.0
      13    1.8    6734.9    0.2    0.0   10418.6     219.8    0.0    0.0    0.0
      13    5.5   14280.0    0.7    0.0   28461.1     483.1    0.0    0.0    0.0
      14    1.5    6813.9    0.1    0.0   12015.6     242.7    0.0    0.0    0.0
      14    5.5   14280.0    0.7    0.0   28462.4     481.8    0.0    0.0    0.0
      15    1.6    6749.6    0.1    0.0   10611.8     229.0    0.0    0.0    0.0
      15    5.5   14280.0    0.7    0.0   28461.1     483.1    0.0    0.0    0.0
      16    1.5    6603.6    0.1    0.0   10810.0     235.1    0.0    0.0    0.0
      16    5.5   14280.0    0.7    0.0   28460.3     483.9    0.0    0.0    0.0
averaged    1.7    6789.1    0.1    0.0   10838.9     236.2    0.0    0.0    0.0
averaged    5.5   14280.0    0.7    0.0   28460.9     483.3    0.0    0.0    0.0
             62711159  WORDS OF DYNAMIC MEMORY USED
 EXECUTION OF GAMESS TERMINATED NORMALLY Mon Nov 18 10:02:00 2019
 DDI: 263640 bytes (0.3 MB / 0 MWords) used by master data server.

 ----------------------------------------
 CPU timing information for all processes
 ========================================
 0: 16909.527 + 396.521 = 17306.48
 1: 17526.575 + 396.676 = 17923.252
 2: 17248.482 + 391.787 = 17640.269
 3: 17466.821 + 396.762 = 17863.583
 4: 17410.898 + 395.606 = 17806.504
 5: 17538.118 + 387.925 = 17926.43
 6: 17613.179 + 408.227 = 18021.407
 7: 17318.993 + 383.502 = 17702.496
 8: 17287.970 + 388.405 = 17676.376
 9: 18057.921 + 378.252 = 18436.174
 10: 17580.431 + 400.980 = 17981.411
 11: 17492.823 + 389.23 = 17881.847
 12: 16982.519 + 392.880 = 17375.399
 13: 18636.864 + 436.915 = 19073.780
 14: 17214.182 + 378.04 = 17592.187
 15: 17270.573 + 379.653 = 17650.226
 ----------------------------------------
 ddikick.x: exited gracefully.
----- accounting info -----
Files used on the master node gollum056.lsa.umich.edu were:
-rw-r--r-- 1 hazwong frank    17665 Nov 17 22:01 /scratch/hazwong/638883/2LUB_3/usrc/2LUB_3_fmo_input.F05
-rw-r--r-- 1 hazwong frank      634 Nov 18 10:02 /scratch/hazwong/638883/2LUB_3/usrc/2LUB_3_fmo_input.F06.001
-rw-r--r-- 1 hazwong frank      634 Nov 18 10:02 /scratch/hazwong/638883/2LUB_3/usrc/2LUB_3_fmo_input.F06.002
-rw-r--r-- 1 hazwong frank      634 Nov 18 10:02 /scratch/hazwong/638883/2LUB_3/usrc/2LUB_3_fmo_input.F06.003
-rw-r--r-- 1 hazwong frank      634 Nov 18 10:02 /scratch/hazwong/638883/2LUB_3/usrc/2LUB_3_fmo_input.F06.004
-rw-r--r-- 1 hazwong frank      634 Nov 18 10:02 /scratch/hazwong/638883/2LUB_3/usrc/2LUB_3_fmo_input.F06.005
-rw-r--r-- 1 hazwong frank      634 Nov 18 10:02 /scratch/hazwong/638883/2LUB_3/usrc/2LUB_3_fmo_input.F06.006
-rw-r--r-- 1 hazwong frank      634 Nov 18 10:02 /scratch/hazwong/638883/2LUB_3/usrc/2LUB_3_fmo_input.F06.007
-rw-r--r-- 1 hazwong frank      634 Nov 18 10:02 /scratch/hazwong/638883/2LUB_3/usrc/2LUB_3_fmo_input.F06.008
-rw-r--r-- 1 hazwong frank      634 Nov 18 10:02 /scratch/hazwong/638883/2LUB_3/usrc/2LUB_3_fmo_input.F06.009
-rw-r--r-- 1 hazwong frank      634 Nov 18 10:02 /scratch/hazwong/638883/2LUB_3/usrc/2LUB_3_fmo_input.F06.010
-rw-r--r-- 1 hazwong frank      634 Nov 18 10:02 /scratch/hazwong/638883/2LUB_3/usrc/2LUB_3_fmo_input.F06.011
-rw-r--r-- 1 hazwong frank      634 Nov 18 10:02 /scratch/hazwong/638883/2LUB_3/usrc/2LUB_3_fmo_input.F06.012
-rw-r--r-- 1 hazwong frank      634 Nov 18 10:02 /scratch/hazwong/638883/2LUB_3/usrc/2LUB_3_fmo_input.F06.013
-rw-r--r-- 1 hazwong frank      634 Nov 18 10:02 /scratch/hazwong/638883/2LUB_3/usrc/2LUB_3_fmo_input.F06.014
-rw-r--r-- 1 hazwong frank      634 Nov 18 10:02 /scratch/hazwong/638883/2LUB_3/usrc/2LUB_3_fmo_input.F06.015
-rw-r--r-- 1 hazwong frank    10850 Nov 18 10:02 /scratch/hazwong/638883/2LUB_3/usrc/2LUB_3_fmo_input.F07
-rw-r--r-- 1 hazwong frank        0 Nov 17 22:01 /scratch/hazwong/638883/2LUB_3/usrc/2LUB_3_fmo_input.F07.001
-rw-r--r-- 1 hazwong frank        0 Nov 17 22:01 /scratch/hazwong/638883/2LUB_3/usrc/2LUB_3_fmo_input.F07.002
-rw-r--r-- 1 hazwong frank        0 Nov 17 22:01 /scratch/hazwong/638883/2LUB_3/usrc/2LUB_3_fmo_input.F07.003
-rw-r--r-- 1 hazwong frank        0 Nov 17 22:01 /scratch/hazwong/638883/2LUB_3/usrc/2LUB_3_fmo_input.F07.004
-rw-r--r-- 1 hazwong frank        0 Nov 17 22:01 /scratch/hazwong/638883/2LUB_3/usrc/2LUB_3_fmo_input.F07.005
-rw-r--r-- 1 hazwong frank        0 Nov 17 22:01 /scratch/hazwong/638883/2LUB_3/usrc/2LUB_3_fmo_input.F07.006
-rw-r--r-- 1 hazwong frank        0 Nov 17 22:01 /scratch/hazwong/638883/2LUB_3/usrc/2LUB_3_fmo_input.F07.007
-rw-r--r-- 1 hazwong frank        0 Nov 17 22:01 /scratch/hazwong/638883/2LUB_3/usrc/2LUB_3_fmo_input.F07.008
-rw-r--r-- 1 hazwong frank        0 Nov 17 22:01 /scratch/hazwong/638883/2LUB_3/usrc/2LUB_3_fmo_input.F07.009
-rw-r--r-- 1 hazwong frank        0 Nov 17 22:01 /scratch/hazwong/638883/2LUB_3/usrc/2LUB_3_fmo_input.F07.010
-rw-r--r-- 1 hazwong frank        0 Nov 17 22:01 /scratch/hazwong/638883/2LUB_3/usrc/2LUB_3_fmo_input.F07.011
-rw-r--r-- 1 hazwong frank        0 Nov 17 22:01 /scratch/hazwong/638883/2LUB_3/usrc/2LUB_3_fmo_input.F07.012
-rw-r--r-- 1 hazwong frank        0 Nov 17 22:01 /scratch/hazwong/638883/2LUB_3/usrc/2LUB_3_fmo_input.F07.013
-rw-r--r-- 1 hazwong frank        0 Nov 17 22:01 /scratch/hazwong/638883/2LUB_3/usrc/2LUB_3_fmo_input.F07.014
-rw-r--r-- 1 hazwong frank        0 Nov 17 22:01 /scratch/hazwong/638883/2LUB_3/usrc/2LUB_3_fmo_input.F07.015
-rw-r--r-- 1 hazwong frank    65440 Nov 18 10:02 /scratch/hazwong/638883/2LUB_3/usrc/2LUB_3_fmo_input.F10.000
-rw-r--r-- 1 hazwong frank        0 Nov 17 22:01 /scratch/hazwong/638883/2LUB_3/usrc/2LUB_3_fmo_input.F26.000
-rw-r--r-- 1 hazwong frank        0 Nov 17 22:01 /scratch/hazwong/638883/2LUB_3/usrc/2LUB_3_fmo_input.F26.001
-rw-r--r-- 1 hazwong frank        0 Nov 17 22:01 /scratch/hazwong/638883/2LUB_3/usrc/2LUB_3_fmo_input.F26.002
-rw-r--r-- 1 hazwong frank        0 Nov 17 22:01 /scratch/hazwong/638883/2LUB_3/usrc/2LUB_3_fmo_input.F26.003
-rw-r--r-- 1 hazwong frank        0 Nov 17 22:01 /scratch/hazwong/638883/2LUB_3/usrc/2LUB_3_fmo_input.F26.004
-rw-r--r-- 1 hazwong frank        0 Nov 17 22:01 /scratch/hazwong/638883/2LUB_3/usrc/2LUB_3_fmo_input.F26.005
-rw-r--r-- 1 hazwong frank        0 Nov 17 22:01 /scratch/hazwong/638883/2LUB_3/usrc/2LUB_3_fmo_input.F26.006
-rw-r--r-- 1 hazwong frank        0 Nov 17 22:01 /scratch/hazwong/638883/2LUB_3/usrc/2LUB_3_fmo_input.F26.007
-rw-r--r-- 1 hazwong frank        0 Nov 17 22:01 /scratch/hazwong/638883/2LUB_3/usrc/2LUB_3_fmo_input.F26.008
-rw-r--r-- 1 hazwong frank        0 Nov 17 22:01 /scratch/hazwong/638883/2LUB_3/usrc/2LUB_3_fmo_input.F26.009
-rw-r--r-- 1 hazwong frank        0 Nov 17 22:01 /scratch/hazwong/638883/2LUB_3/usrc/2LUB_3_fmo_input.F26.010
-rw-r--r-- 1 hazwong frank        0 Nov 17 22:01 /scratch/hazwong/638883/2LUB_3/usrc/2LUB_3_fmo_input.F26.011
-rw-r--r-- 1 hazwong frank        0 Nov 17 22:01 /scratch/hazwong/638883/2LUB_3/usrc/2LUB_3_fmo_input.F26.012
-rw-r--r-- 1 hazwong frank        0 Nov 17 22:01 /scratch/hazwong/638883/2LUB_3/usrc/2LUB_3_fmo_input.F26.013
-rw-r--r-- 1 hazwong frank        0 Nov 17 22:01 /scratch/hazwong/638883/2LUB_3/usrc/2LUB_3_fmo_input.F26.014
-rw-r--r-- 1 hazwong frank        0 Nov 17 22:01 /scratch/hazwong/638883/2LUB_3/usrc/2LUB_3_fmo_input.F26.015
-rw-r--r-- 1 hazwong frank        0 Nov 17 22:01 /scratch/hazwong/638883/2LUB_3/usrc/2LUB_3_fmo_input.F27.000
-rw-r--r-- 1 hazwong frank        0 Nov 17 22:01 /scratch/hazwong/638883/2LUB_3/usrc/2LUB_3_fmo_input.F27.001
-rw-r--r-- 1 hazwong frank        0 Nov 17 22:01 /scratch/hazwong/638883/2LUB_3/usrc/2LUB_3_fmo_input.F27.002
-rw-r--r-- 1 hazwong frank        0 Nov 17 22:01 /scratch/hazwong/638883/2LUB_3/usrc/2LUB_3_fmo_input.F27.003
-rw-r--r-- 1 hazwong frank        0 Nov 17 22:01 /scratch/hazwong/638883/2LUB_3/usrc/2LUB_3_fmo_input.F27.004
-rw-r--r-- 1 hazwong frank        0 Nov 17 22:01 /scratch/hazwong/638883/2LUB_3/usrc/2LUB_3_fmo_input.F27.005
-rw-r--r-- 1 hazwong frank        0 Nov 17 22:01 /scratch/hazwong/638883/2LUB_3/usrc/2LUB_3_fmo_input.F27.006
-rw-r--r-- 1 hazwong frank        0 Nov 17 22:01 /scratch/hazwong/638883/2LUB_3/usrc/2LUB_3_fmo_input.F27.007
-rw-r--r-- 1 hazwong frank        0 Nov 17 22:01 /scratch/hazwong/638883/2LUB_3/usrc/2LUB_3_fmo_input.F27.008
-rw-r--r-- 1 hazwong frank        0 Nov 17 22:01 /scratch/hazwong/638883/2LUB_3/usrc/2LUB_3_fmo_input.F27.009
-rw-r--r-- 1 hazwong frank        0 Nov 17 22:01 /scratch/hazwong/638883/2LUB_3/usrc/2LUB_3_fmo_input.F27.010
-rw-r--r-- 1 hazwong frank        0 Nov 17 22:01 /scratch/hazwong/638883/2LUB_3/usrc/2LUB_3_fmo_input.F27.011
-rw-r--r-- 1 hazwong frank        0 Nov 17 22:01 /scratch/hazwong/638883/2LUB_3/usrc/2LUB_3_fmo_input.F27.012
-rw-r--r-- 1 hazwong frank        0 Nov 17 22:01 /scratch/hazwong/638883/2LUB_3/usrc/2LUB_3_fmo_input.F27.013
-rw-r--r-- 1 hazwong frank        0 Nov 17 22:01 /scratch/hazwong/638883/2LUB_3/usrc/2LUB_3_fmo_input.F27.014
-rw-r--r-- 1 hazwong frank        0 Nov 17 22:01 /scratch/hazwong/638883/2LUB_3/usrc/2LUB_3_fmo_input.F27.015
-rw-r--r-- 1 hazwong frank 22495232 Nov 18 01:59 /scratch/hazwong/638883/2LUB_3/usrc/2LUB_3_fmo_input.F40.000
-rw-r--r-- 1 hazwong frank 22495232 Nov 18 01:59 /scratch/hazwong/638883/2LUB_3/usrc/2LUB_3_fmo_input.F40.001
-rw-r--r-- 1 hazwong frank 22495232 Nov 18 01:59 /scratch/hazwong/638883/2LUB_3/usrc/2LUB_3_fmo_input.F40.002
-rw-r--r-- 1 hazwong frank 22495232 Nov 18 01:59 /scratch/hazwong/638883/2LUB_3/usrc/2LUB_3_fmo_input.F40.003
-rw-r--r-- 1 hazwong frank 22495232 Nov 18 01:59 /scratch/hazwong/638883/2LUB_3/usrc/2LUB_3_fmo_input.F40.004
-rw-r--r-- 1 hazwong frank 22495232 Nov 18 01:59 /scratch/hazwong/638883/2LUB_3/usrc/2LUB_3_fmo_input.F40.005
-rw-r--r-- 1 hazwong frank 22495232 Nov 18 01:59 /scratch/hazwong/638883/2LUB_3/usrc/2LUB_3_fmo_input.F40.006
-rw-r--r-- 1 hazwong frank 22495232 Nov 18 01:59 /scratch/hazwong/638883/2LUB_3/usrc/2LUB_3_fmo_input.F40.007
-rw-r--r-- 1 hazwong frank 22495232 Nov 18 01:59 /scratch/hazwong/638883/2LUB_3/usrc/2LUB_3_fmo_input.F40.008
-rw-r--r-- 1 hazwong frank 22495232 Nov 18 01:59 /scratch/hazwong/638883/2LUB_3/usrc/2LUB_3_fmo_input.F40.009
-rw-r--r-- 1 hazwong frank 22495232 Nov 18 01:59 /scratch/hazwong/638883/2LUB_3/usrc/2LUB_3_fmo_input.F40.010
-rw-r--r-- 1 hazwong frank 22495232 Nov 18 01:59 /scratch/hazwong/638883/2LUB_3/usrc/2LUB_3_fmo_input.F40.011
-rw-r--r-- 1 hazwong frank 22495232 Nov 18 01:59 /scratch/hazwong/638883/2LUB_3/usrc/2LUB_3_fmo_input.F40.012
-rw-r--r-- 1 hazwong frank 22495232 Nov 18 01:59 /scratch/hazwong/638883/2LUB_3/usrc/2LUB_3_fmo_input.F40.013
-rw-r--r-- 1 hazwong frank 22495232 Nov 18 01:59 /scratch/hazwong/638883/2LUB_3/usrc/2LUB_3_fmo_input.F40.014
-rw-r--r-- 1 hazwong frank 22495232 Nov 18 01:59 /scratch/hazwong/638883/2LUB_3/usrc/2LUB_3_fmo_input.F40.015
Mon Nov 18 10:02:03 EST 2019
0.187u 0.092s 12:00:34.34 0.0%	0+0k 1256+144io 20pf+0w
