----- GAMESS execution script 'rungms' -----
This job is running on host gollum090.lsa.umich.edu
under operating system Linux at Sat Dec 7 19:50:54 EST 2019
Available scratch disk space (Kbyte units) at beginning of the job is
Filesystem     1K-blocks   Used Available Use% Mounted on
/dev/sda4      426933580 394016 426539564   1% /scratch
GAMESS temporary binary files will be written to /scratch/hazwong/826305/2LUB_4/usrc
GAMESS supplementary output files will be written to /scratch/hazwong/826305/2LUB_4/src
Copying input file 2LUB_4_fmo_input.inp to your run's scratch directory...
This is a GDDI run, keeping various output files on local disks
 
Assuming a single but multicore node.
 

 Distributed Data Interface kickoff program.
 Initiating 16 compute processes on 1 nodes to run the following command:
 /export/apps/CentOS7/gamess/src/build//gamess.R3.x 2LUB_4_fmo_input 

          ******************************************************
          *         GAMESS VERSION = 30 SEP 2018 (R3)         *
          *             FROM IOWA STATE UNIVERSITY             *
          * M.W.SCHMIDT, K.K.BALDRIDGE, J.A.BOATZ, S.T.ELBERT, *
          *   M.S.GORDON, J.H.JENSEN, S.KOSEKI, N.MATSUNAGA,   *
          *          K.A.NGUYEN, S.J.SU, T.L.WINDUS,           *
          *       TOGETHER WITH M.DUPUIS, J.A.MONTGOMERY       *
          *         J.COMPUT.CHEM.  14, 1347-1363(1993)        *
          **************** 64 BIT LINUX VERSION ****************

  SINCE 1993, STUDENTS AND POSTDOCS WORKING AT IOWA STATE UNIVERSITY
  AND ALSO IN THEIR VARIOUS JOBS AFTER LEAVING ISU HAVE MADE IMPORTANT
  CONTRIBUTIONS TO THE CODE:
     IVANA ADAMOVIC, CHRISTINE AIKENS, YURI ALEXEEV, POOJA ARORA,
     ANDREY ASADCHEV, ROB BELL, PRADIPTA BANDYOPADHYAY, JONATHAN BENTZ,
     BRETT BODE, KURT BRORSEN, CALEB CARLIN, GALINA CHABAN, WEI CHEN,
     CHEOL HO CHOI, PAUL DAY, ALBERT DEFUSCO, NUWAN DESILVA, TIM DUDLEY,
     DMITRI FEDOROV, ALEX FINDLATER, GRAHAM FLETCHER, MARK FREITAG,
     KURT GLAESEMANN, ANASTASIA GUNINA,
     DAN KEMP, GRANT MERRILL, NORIYUKI MINEZAWA, JONATHAN MULLIN,
     TAKESHI NAGATA, SEAN NEDD, HEATHER NETZLOFF, BOSILJKA NJEGIC, RYAN OLSON,
     MIKE PAK, BUU PHAM,
     SPENCER PRUITT, LUKE ROSKOP, JIM SHOEMAKER, LYUDMILA SLIPCHENKO,
     TONY SMITH, SAROM SOK LEANG, JIE SONG, TETSUYA TAKETSUGU, SIMON WEBB,
     PENG XU, SOOHAENG YOO, FEDERICO ZAHARIEV

  ADDITIONAL CODE HAS BEEN PROVIDED BY COLLABORATORS IN OTHER GROUPS:
     IOWA STATE UNIVERSITY:
          JOE IVANIC, AARON WEST, LAIMUTIS BYTAUTAS, KLAUS RUEDENBERG
     UNIVERSITY OF TOKYO: KIMIHIKO HIRAO, TAKAHITO NAKAJIMA,
          TAKAO TSUNEDA, MUNEAKI KAMIYA, SUSUMU YANAGISAWA,
          KIYOSHI YAGI, MAHITO CHIBA, SEIKEN TOKURA, NAOAKI KAWAKAMI
     UNIVERSITY OF AARHUS: FRANK JENSEN
     UNIVERSITY OF IOWA: VISVALDAS KAIRYS, HUI LI
     NATIONAL INST. OF STANDARDS AND TECHNOLOGY: WALT STEVENS, DAVID GARMER
     UNIVERSITY OF PISA: BENEDETTA MENNUCCI, JACOPO TOMASI
     UNIVERSITY OF MEMPHIS: HENRY KURTZ, PRAKASHAN KORAMBATH
     UNIVERSITY OF ALBERTA: TOBY ZENG, MARIUSZ KLOBUKOWSKI
     UNIVERSITY OF NEW ENGLAND: MARK SPACKMAN
     MIE UNIVERSITY: HIROAKI UMEDA
     NAT. INST. OF ADVANCED INDUSTRIAL SCIENCE AND TECHNOLOGY: KAZUO KITAURA
     MICHIGAN STATE UNIVERSITY:
          KAROL KOWALSKI, MARTA WLOCH, JEFFREY GOUR, JESSE LUTZ,
          WEI LI, JUN SHEN, J. EMILIANO DEUSTUA, PIOTR PIECUCH
     UNIVERSITY OF MINNESOTA:
          YINAN SHU
     UNIVERSITY OF SILESIA: MONIKA MUSIAL, STANISLAW KUCHARSKI
     FACULTES UNIVERSITAIRES NOTRE-DAME DE LA PAIX:
          OLIVIER QUINET, BENOIT CHAMPAGNE
     UNIVERSITY OF CALIFORNIA - SANTA BARBARA: BERNARD KIRTMAN
     INSTITUTE FOR MOLECULAR SCIENCE:
          KAZUYA ISHIMURA, MICHIO KATOUDA, AND SHIGERU NAGASE
     UNIVERSITY OF NOTRE DAME: ANNA POMOGAEVA, DAN CHIPMAN
     KYUSHU UNIVERSITY:
          HARUYUKI NAKANO,
          FENG LONG GU, JACEK KORCHOWIEC, MARCIN MAKOWSKI, AND YURIKO AOKI,
          HIROTOSHI MORI AND EISAKU MIYOSHI
     PENNSYLVANIA STATE UNIVERSITY:
          TZVETELIN IORDANOV, CHET SWALINA, JONATHAN SKONE,
          SHARON HAMMES-SCHIFFER
     WASEDA UNIVERSITY:
          MASATO KOBAYASHI, TOMOKO AKAMA, TSUGUKI TOUMA,
          TAKESHI YOSHIKAWA, YASUHIRO IKABATA, JUNJI SEINO,
          YUYA NAKAJIMA, HIROMI NAKAI
     NANJING UNIVERSITY: SHUHUA LI
     UNIVERSITY OF NEBRASKA:
          PEIFENG SU, DEJUN SI, NANDUN THELLAMUREGE, YALI WANG, HUI LI
     UNIVERSITY OF ZURICH: ROBERTO PEVERATI, KIM BALDRIDGE
     N. COPERNICUS UNIVERSITY AND JACKSON STATE UNIVERSITY:
          MARIA BARYSZ
     UNIVERSITY OF COPENHAGEN: Jimmy Kromann, CASPER STEINMANN
     TOKYO INSTITUTE OF TECHNOLOGY: HIROYA NAKATA
     NAGOYA UNIVERSITY: YOSHIO NISHIMOTO, STEPHAN IRLE
     MOSCOW STATE UNIVERSITY: VLADIMIR MIRONOV


 PARALLEL VERSION RUNNING ON       16 PROCESSORS IN        1 NODES.

 EXECUTION OF GAMESS BEGUN Sat Dec  7 19:50:54 2019

            ECHO OF THE FIRST FEW INPUT CARDS -
 INPUT CARD>!*** FMO 5.3 (Gamess) INPUT generated by Facio 22.1.1.32 ***                    
 INPUT CARD> $CONTRL RUNTYP=ENERGY NPRINT=-5 ISPHER=1 MAXIT=200 $END                        
 INPUT CARD> $SYSTEM MWORDS=63 MEMDDI=63 $END                                               
 INPUT CARD> $GDDI NGROUP=1 $END                                                            
 INPUT CARD> $SCF DIRSCF=.TRUE. NPUNCH=0 $END                                               
 INPUT CARD>!*** NumCPU : 2  MemPerNode : 512MB                                             
 INPUT CARD> $PCM SOLVNT=WATER IEF=-10 ICOMP=2 ICAV=1 IDISP=1 IFMO=-1 $END                  
 INPUT CARD> $PCMCAV RADII=SUAHF $END                                                       
 INPUT CARD> $TESCAV NTSALL=60 $END                                                         
 INPUT CARD> $FMOPRP                                                                        
 INPUT CARD>    NAODIR=200                                                                  
 INPUT CARD>    NGRFMO(1)=1, 1, 0, 0, 0,   0, 0, 0, 0, 0                                    
 INPUT CARD>    IPIEDA=1                                                                    
 INPUT CARD>    NPRINT=9                                                                    
 INPUT CARD> $END                                                                           
 INPUT CARD> $FMO                                                                           
 INPUT CARD>      SCFTYP(1)=RHF                                                             
 INPUT CARD>      MODGRD=10                                                                 
 INPUT CARD>      MODMUL=0                                                                  
 INPUT CARD>      MAXCAO=5                                                                  
 INPUT CARD>      MAXBND=13                                                                 
 INPUT CARD>      NLAYER=1                                                                  
 INPUT CARD>      MPLEVL(1)=2                                                               
 INPUT CARD>      NFRAG=11                                                                  
 INPUT CARD>      ICHARG(1)=-1, -1, -1, -1, 0, -1, -1, -1, -1, -1, 0                        
 INPUT CARD>      FRGNAM(1)=F1, F2, F3, F4, F5, F6, F7, F8, F9, F10, F11                    
 INPUT CARD>      indat(1)=0                                                                
 INPUT CARD>               1   -35   0                                                      
 INPUT CARD>               36   -66   0                                                     
 INPUT CARD>               67   -100   0                                                    
 INPUT CARD>               101   -134   0                                                   
 INPUT CARD>               135   -166   0                                                   
 INPUT CARD>               167   -196   0                                                   
 INPUT CARD>               197   -227   0                                                   
 INPUT CARD>               228   -260   0                                                   
 INPUT CARD>               261   -293   0                                                   
 INPUT CARD>               294   -327   0                                                   
 INPUT CARD>               328   -354   0                                                   
 INPUT CARD> $END                                                                           
 INPUT CARD>                                                                                
 INPUT CARD> $FMOBND                                                                        
 INPUT CARD>   -36   35       6-31G*    MINI                                                
 INPUT CARD>   -67   66       6-31G*    MINI                                                
 INPUT CARD>   -101   100       6-31G*    MINI                                              
 INPUT CARD>   -135   134       6-31G*    MINI                                              
 INPUT CARD>   -167   166       6-31G*    MINI                                              
 INPUT CARD>   -197   196       6-31G*    MINI                                              
 INPUT CARD>   -228   227       6-31G*    MINI                                              
 INPUT CARD>   -261   260       6-31G*    MINI                                              
 INPUT CARD>   -294   293       6-31G*    MINI                                              


 -------------------------------------------------------------
 GROUP DDI, PROGRAMMED BY: RYAN M. OLSON AND DMITRI G. FEDOROV
        FEDOROV ET AL., J. COMPUT. CHEM., 25 (2004) 872.
 -------------------------------------------------------------

 -------------------------------------------------------
 GDDI: INITIALIZATION COMPLETED FOR GROUP     1 OF     1
 WITH    16 PROCESSES BALTYP=DLB   global rank=        0
 -------------------------------------------------------

   63000000 WORDS OF MEMORY AVAILABLE


     RUN TITLE
     ---------
  FMO calculation                                                                

 THE POINT GROUP OF THE MOLECULE IS C1      
 THE ORDER OF THE PRINCIPAL AXIS IS     0

 ATOM   ATOMIC CHARGE
 H.1-1       1.0
 O.1-1       8.0
 C.1-1       6.0
 N.1-1       7.0
 P.1-1      15.0

     ATOMIC BASIS SET LIBRARY
     ----------------
 THE CONTRACTED PRIMITIVE FUNCTIONS HAVE BEEN UNNORMALIZED
 THE CONTRACTED BASIS FUNCTIONS ARE NOW NORMALIZED TO UNITY

  SHELL TYPE  PRIMITIVE        EXPONENT          CONTRACTION COEFFICIENT(S)

 H.1-1     

      1   S       1            18.7311370    0.033494604338
      1   S       2             2.8253944    0.234726953484
      1   S       3             0.6401217    0.813757326146

      2   S       4             0.1612778    1.000000000000

 O.1-1     

      3   S       5          5484.6716600    0.001831074430
      3   S       6           825.2349460    0.013950172200
      3   S       7           188.0469580    0.068445078098
      3   S       8            52.9645000    0.232714335992
      3   S       9            16.8975704    0.470192897984
      3   S      10             5.7996353    0.358520852987

      4   L      11            15.5396162   -0.110777549525    0.070874268231
      4   L      12             3.5999336   -0.148026262701    0.339752839147
      4   L      13             1.0137618    1.130767015354    0.727158577316

      5   L      14             0.2700058    1.000000000000    1.000000000000

      6   D      15             0.8000000    1.000000000000

 C.1-1     

      7   S      16          3047.5248800    0.001834737132
      7   S      17           457.3695180    0.014037322813
      7   S      18           103.9486850    0.068842622264
      7   S      19            29.2101553    0.232184443216
      7   S      20             9.2866630    0.467941348435
      7   S      21             3.1639270    0.362311985337

      8   L      22             7.8682723   -0.119332419775    0.068999066591
      8   L      23             1.8812885   -0.160854151696    0.316423960957
      8   L      24             0.5442493    1.143456437840    0.744308290898

      9   L      25             0.1687145    1.000000000000    1.000000000000

     10   D      26             0.8000000    1.000000000000

 N.1-1     

     11   S      27          4173.5114600    0.001834772160
     11   S      28           627.4579110    0.013994627002
     11   S      29           142.9020930    0.068586551812
     11   S      30            40.2343293    0.232240873040
     11   S      31            12.8202129    0.469069948082
     11   S      32             4.3904370    0.360455199063

     12   L      33            11.6263619   -0.114961181702    0.067579743878
     12   L      34             2.7162798   -0.169117478561    0.323907295893
     12   L      35             0.7722184    1.145851947027    0.740895139755

     13   L      36             0.2120315    1.000000000000    1.000000000000

     14   D      37             0.8000000    1.000000000000

 P.1-1     

     15   S      38         19413.3000000    0.001851598923
     15   S      39          2909.4200000    0.014206191735
     15   S      40           661.3640000    0.069999459277
     15   S      41           185.7590000    0.240078860331
     15   S      42            59.1943000    0.484761717984
     15   S      43            20.0310000    0.335199804993

     16   L      44           339.4780000   -0.002782170105    0.004564616191
     16   L      45            81.0101000   -0.036049901354    0.033693571881
     16   L      46            25.8780000   -0.116631004382    0.139754883368
     16   L      47             9.4522100    0.096832803638    0.339361716786
     16   L      48             3.6656600    0.614418023082    0.450920623685
     16   L      49             1.4674600    0.403798015170    0.238585800889

     17   L      50             2.1562300   -0.252924113863   -0.017765312733
     17   L      51             0.7489970    0.032851844678    0.274058196433
     17   L      52             0.2831450    1.081254761783    0.785421562957

     18   L      53             0.0998317    1.000000000000    1.000000000000

     19   D      54             0.5500000    1.000000000000

 TOTAL NUMBER OF BASIS SET SHELLS             =   19
 NUMBER OF CARTESIAN GAUSSIAN BASIS FUNCTIONS =   66

     $CONTRL OPTIONS
     ---------------
 SCFTYP=RHF          RUNTYP=ENERGY       EXETYP=RUN     
 MPLEVL=       0     CITYP =NONE         CCTYP =NONE         VBTYP =NONE    
 DFTTYP=NONE         TDDFT =NONE    
 MULT  =       1     ICHARG=       0     NZVAR =       0     COORD =UNIQUE  
 PP    =NONE         RELWFN=NONE         LOCAL =NONE         NUMGRD=       F
 ISPHER=       1     NOSYM =       0     MAXIT =     200     UNITS =ANGS    
 PLTORB=       F     MOLPLT=       F     AIMPAC=       F     FRIEND=        
 NPRINT=      -5     IREST =       0     GEOM  =INPUT   
 NORMF =       0     NORMP =       0     ITOL  =      24     ICUT  =      12
 INTTYP=BEST         GRDTYP=BEST         QMTTOL= 1.0E-06

     $SYSTEM OPTIONS
     ---------------
  REPLICATED MEMORY=    63000000 WORDS (ON EVERY NODE).
 DISTRIBUTED MEMDDI=          63 MILLION WORDS IN AGGREGATE,
 MEMDDI DISTRIBUTED OVER  16 PROCESSORS IS     3937500 WORDS/PROCESSOR.
 TOTAL MEMORY REQUESTED ON EACH PROCESSOR=    66937500 WORDS.
 TIMLIM=      525600.00 MINUTES, OR     365.0 DAYS.
 PARALL= T  BALTYP=  DLB     KDIAG=    0  COREFL= F
 MXSEQ2=     300 MXSEQ3=     150  mem10=         0

 ** LOOKING UP INTERNALLY STORED DATA FOR SOLVENT=WATER    **
 OPTICAL AND PHYSICAL CONSTANTS:
 EPS= 78.390; EPSINF=  1.776; RSOLV=  1.385 A; VMOL=  18.070 ML/MOL;
 TCE= .25700E-03 1/K; STEN= 71.810 DYN/CM;  DSTEN=  0.6500; CMF=  1.2770


     -----------------------------------
     INPUT FOR PCM SOLVATION CALCULATION 
     -----------------------------------
     IEF   =     -10
     ICOMP =       2     IFIELD=       0     ICAV  =       1
     IDISP =       1     IREP  =       0     IDP   =       0

     SOLVNT=WATER        EPS   = 78.3900     EPSINF=  1.7760
     VMOL  = 18.0700     TCE   =  0.00025700 STEN  = 71.8100
     DSTEN =  0.6500     CMF   =  1.2770     RSOLV =  1.3850

     NESFP =       0
     OMEGA = 40.0000     RET   =100.0000     FRO   =  0.7000

     TABS  =298.0000     IPRINT=       0

     --------------------------------
     INPUT FOR ITERATIVE C-PCM METHOD 
     --------------------------------
     IPCMIT  =         1     MXDIIS  =        50
     MXITR1  =       200     MXITR2  =       200
     THRES   = 0.100E-09     IMUL    =         3
     RCUT(1) =   20.0000     RCUT(2) =   50.0000

     IDIRCT  =         1
     IMGABI  =         0     RABI    =    4.0000
     IMGASC  =         0     RASC    =   20.0000
     THRSLS  = 0.500E-03     DENSLS  =    0.0100
     IEFPOL  =         1     REFPOL  =    0.0000

     INPUT FOR ISOTROPIC DIELECTRICS
     -------------------------------
     EPS=    78.39

          ----------------
          PROPERTIES INPUT
          ----------------

     MOMENTS            FIELD           POTENTIAL          DENSITY
 IEMOM =       1   IEFLD =       0   IEPOT =       0   IEDEN =       0
 WHERE =COMASS     WHERE =NUCLEI     WHERE =NUCLEI     WHERE =NUCLEI  
 OUTPUT=BOTH       OUTPUT=BOTH       OUTPUT=NONE       OUTPUT=BOTH    
 IEMINT=       0   IEFINT=       0                     IEDINT=       0
                                                       MORB  =       0
          EXTRAPOLATION IN EFFECT
          SOSCF IN EFFECT
 ORBITAL PRINTING OPTION: NPREO=     1 32767     2     1

     -------------------------------
     INTEGRAL TRANSFORMATION OPTIONS
     -------------------------------
     NWORD  =            0
     CUTOFF = 1.0E-10     MPTRAN =       0
     DIRTRF =       T     AOINTS =DUP     

          ----------------------
          INTEGRAL INPUT OPTIONS
          ----------------------
 NOPK  =       1 NORDER=       0 SCHWRZ=       T

 ..... DONE SETTING UP THE RUN .....
 CPU     0: STEP CPU TIME=     0.04 TOTAL CPU TIME=          0.0 (      0.0 MIN)
 TOTAL WALL CLOCK TIME=          0.1 SECONDS, CPU UTILIZATION IS    66.67%
 CPU     0: STEP CPU TIME=     0.00 TOTAL CPU TIME=          0.0 (      0.0 MIN)
 TOTAL WALL CLOCK TIME=          0.1 SECONDS, CPU UTILIZATION IS    66.67%

                    ----------------------
                    AO INTEGRAL TECHNOLOGY
                    ----------------------
     S,P,L SHELL ROTATED AXIS INTEGRALS, REPROGRAMMED BY
        KAZUYA ISHIMURA (IMS) AND JOSE SIERRA (SYNSTAR).
     S,P,D,L SHELL ROTATED AXIS INTEGRALS PROGRAMMED BY
        KAZUYA ISHIMURA (INSTITUTE FOR MOLECULAR SCIENCE).
     S,P,D,F,G SHELL TO TOTAL QUARTET ANGULAR MOMENTUM SUM 5,
        ERIC PROGRAM BY GRAHAM FLETCHER (ELORET AND NASA ADVANCED
        SUPERCOMPUTING DIVISION, AMES RESEARCH CENTER).
     S,P,D,F,G,L SHELL GENERAL RYS QUADRATURE PROGRAMMED BY
        MICHEL DUPUIS (PACIFIC NORTHWEST NATIONAL LABORATORY).
 Setting modorb=1 flag...
 Setting modorb=1 flag...

          -----------------------
          MP2 CONTROL INFORMATION
          -----------------------
          NACORE =        8  NBCORE =        8
          LMOMP2 =        F  AOINTS = DUP     
          METHOD =        2  NWORD  =               0
          MP2PRP =        F  OSPT   = NONE    
          CUTOFF = 1.00E-12  CPHFBS = BASISAO 
          CODE   = IMS     

          NUMBER OF CORE -A-  ORBITALS =     8
          NUMBER OF CORE -B-  ORBITALS =     8
          NUMBER OF OCC. -A-  ORBITALS =    18
          NUMBER OF OCC. -B-  ORBITALS =    18
          NUMBER OF MOLECULAR ORBITALS =    66
          NUMBER OF   BASIS  FUNCTIONS =    66

 CPU     0: STEP CPU TIME=     0.02 TOTAL CPU TIME=          0.1 (      0.0 MIN)
 TOTAL WALL CLOCK TIME=          0.1 SECONDS, CPU UTILIZATION IS    66.67%
 CPU     0: STEP CPU TIME=     0.00 TOTAL CPU TIME=          0.1 (      0.0 MIN)
 TOTAL WALL CLOCK TIME=          0.1 SECONDS, CPU UTILIZATION IS    66.67%

     INPUT FOR CAVITY DEFINITION 
     ---------------------------
   ATOM               COORDINATES                RADIUS       EPS
      1      2.5320     -2.5690      3.6960      0.0100     78.3900
      2      2.0400     -2.5330      2.8560      1.5900     78.3900
      3      1.7420     -3.8880      2.4890      1.7700     78.3900
      4      1.2350     -4.3920      3.3420      0.0100     78.3900
      5      2.6910     -4.4320      2.2810      0.0100     78.3900
      6      0.8400     -3.9810      1.2550      1.7700     78.3900
      7      0.6480     -5.0410      0.9800      0.0100     78.3900
      8     -0.4490     -3.3590      1.5400      1.5900     78.3900
      9     -0.9070     -2.6790      0.3820      1.7700     78.3900
     10     -1.9180     -3.0920      0.1480      0.0100     78.3900
     11     -1.0400     -1.2390      0.6240      1.6800     78.3900
     12     -1.6660      0.8670      0.5200      1.7700     78.3900
     13     -0.8450      0.7620      1.6340      1.6800     78.3900
     14     -0.5010     -0.5050      1.6560      1.7700     78.3900
     15      0.1390     -0.9740      2.4080      0.0100     78.3900
     16     -3.1190      1.7160     -1.1460      1.6800     78.3900
     17     -3.1110      0.4860     -1.6690      1.7700     78.3900
     18     -3.7210      0.3620     -2.5710      0.0100     78.3900
     19     -2.4990     -0.6190     -1.2260      1.6800     78.3900
     20     -1.7890     -0.3560     -0.1160      1.7700     78.3900
     21     -2.3830      1.9500     -0.0300      1.7700     78.3900
     22     -2.3710      3.1840      0.5000      1.6800     78.3900
     23     -1.8650      3.3860      1.3420      0.0100     78.3900
     24     -2.7910      3.9530      0.0090      0.0100     78.3900
     25      0.0510     -3.0030     -0.7410      1.7700     78.3900
     26      0.1420     -2.1820     -1.4820      0.0100     78.3900
     27     -0.3920     -4.1820     -1.3780      1.5900     78.3900
     28      0.3240     -4.4740     -1.9560      0.0100     78.3900
     29      1.3610     -3.2380      0.0140      1.7700     78.3900
     30      1.7730     -2.2660      0.3750      0.0100     78.3900
     31      2.3530     -4.0500     -0.6750      1.5900     78.3900
     32      3.3760     -3.3020     -1.6320      2.1000     78.3900
     33      4.0400     -2.2230     -0.8680      1.5900     78.3900
     34      4.2710     -4.3130     -2.2360      1.5900     78.3900
     35      2.4820     -2.6760     -2.7620      1.5900     78.3900
     36      1.8500     -3.5210     -3.7570      1.7700     78.3900
     37      1.1630     -4.2560     -3.2870      0.0100     78.3900
     38      2.6050     -4.1110     -4.3300      0.0100     78.3900
     39      1.0280     -2.7000     -4.7620      1.7700     78.3900
     40      0.5040     -3.3720     -5.4770      0.0100     78.3900
     41      0.0010     -1.9300     -4.0740      1.5900     78.3900
     42     -0.1380     -0.6640     -4.7100      1.7700     78.3900
     43     -1.2090     -0.6030     -5.0220      0.0100     78.3900
     44      0.1640      0.4770     -3.8030      1.6800     78.3900
     45      0.9060      0.2840     -2.6610      1.7700     78.3900
     46      1.2610     -0.7320     -2.4890      0.0100     78.3900
     47      1.1550      1.2940     -1.8130      1.7700     78.3900
     48      1.7140      1.1590     -0.8910      0.0100     78.3900
     49     -0.2890      1.7520     -4.1230      1.7700     78.3900
     50     -0.9390      1.9240     -5.1670      1.5900     78.3900
     51     -0.0430      2.7790     -3.2840      1.6800     78.3900
     52      0.6460      2.5810     -2.1500      1.7700     78.3900
     53      0.8560      3.6060     -1.3300      1.6800     78.3900
     54      0.5260      4.5170     -1.6000      0.0100     78.3900
     55      1.4420      3.5400     -0.5270      0.0100     78.3900
     56      0.7360     -0.6700     -5.9520      1.7700     78.3900
     57      1.1820      0.3260     -6.1750      0.0100     78.3900
     58     -0.0170     -1.1220     -7.0650      1.5900     78.3900
     59      0.6130     -1.2950     -7.7820      0.0100     78.3900
     60      1.8220     -1.6670     -5.5670      1.7700     78.3900
     61      2.5390     -1.1950     -4.8560      0.0100     78.3900
     62      2.4740     -2.3110     -6.6840      1.5900     78.3900
     63      3.7770     -1.6650     -7.2960      2.1000     78.3900
     64      4.7900     -1.5660     -6.2120      1.5900     78.3900
     65      4.1530     -2.4680     -8.4790      1.5900     78.3900
     66      3.3250     -0.2430     -7.7760      1.5900     78.3900
     67      4.3210      0.7530     -8.1150      1.7700     78.3900
     68      5.0000      0.3810     -8.9200      0.0100     78.3900
     69      4.9530      0.9800     -7.2240      0.0100     78.3900
     70      3.6850      2.0740     -8.6030      1.7700     78.3900
     71      3.2980      1.9610     -9.6360      0.0100     78.3900
     72      2.5450      2.4450     -7.7660      1.5900     78.3900
     73      2.5670      3.8380     -7.4970      1.7700     78.3900
     74      1.5590      4.2030     -7.7950      0.0100     78.3900
     75      2.7970      4.1610     -6.0720      1.6800     78.3900
     76      3.3270      3.3850     -5.0580      1.7700     78.3900
     77      4.6280      0.3610     -4.0010      1.6800     78.3900
     78      5.0800     -0.0210     -3.1970      0.0100     78.3900
     79      4.6000     -0.1760     -4.8480      0.0100     78.3900
     80      3.7460      2.1120     -5.1630      1.6800     78.3900
     81      4.2060      1.6130     -4.0370      1.7700     78.3900
     82      4.2560      2.3320     -2.8710      1.6800     78.3900
     83      4.6660      1.9000     -2.0570      0.0100     78.3900
     84      3.8540      3.6600     -2.7230      1.7700     78.3900
     85      3.9400      4.2140     -1.6190      1.5900     78.3900
     86      3.3350      4.1900     -3.9410      1.7700     78.3900
     87      2.8160      5.4430     -4.2380      1.6800     78.3900
     88      2.5090      5.3810     -5.5060      1.7700     78.3900
     89      2.0670      6.1990     -6.0800      0.0100     78.3900
     90      3.6210      4.4580     -8.3870      1.7700     78.3900
     91      4.1240      5.3350     -7.9240      0.0100     78.3900
     92      3.0400      4.8420     -9.6200      1.5900     78.3900
     93      3.7620      4.9590    -10.2570      0.0100     78.3900
     94      4.6050      3.3080     -8.5480      1.7700     78.3900
     95      5.2000      3.2080     -7.6070      0.0100     78.3900
     96      5.4120      3.4000     -9.7440      1.5900     78.3900
     97      6.9770      3.5120     -9.6450      2.1000     78.3900
     98      7.4620      2.5890     -8.5990      1.5900     78.3900
     99      7.5390      3.3590    -11.0040      1.5900     78.3900
    100      7.2170      4.9900     -9.1560      1.5900     78.3900
    101      7.0110      6.0920    -10.0710      1.7700     78.3900
    102      5.9640      6.0950    -10.4510      0.0100     78.3900
    103      7.7030      6.0170    -10.9420      0.0100     78.3900
    104      7.2620      7.4430     -9.3900      1.7700     78.3900
    105      7.1240      8.2830    -10.1070      0.0100     78.3900
    106      6.2910      7.6260     -8.3220      1.5900     78.3900
    107      6.9250      8.2220     -7.2010      1.7700     78.3900
    108      6.3240      9.1220     -6.9300      0.0100     78.3900
    109      6.9560      7.2950     -6.0570      1.6800     78.3900
    110      7.2330      7.6210     -4.7570      1.7700     78.3900
    111      8.1370      9.9690     -2.3730      1.6800     78.3900
    112      8.1700     10.8190     -2.9020      0.0100     78.3900
    113      8.3010      9.9960     -1.3850      0.0100     78.3900
    114      7.5450      8.8510     -4.3000      1.6800     78.3900
    115      7.7830      8.8520     -2.9910      1.7700     78.3900
    116      7.6940      7.7290     -2.2100      1.6800     78.3900
    117      7.8370      7.8220     -1.2180      0.0100     78.3900
    118      7.3190      6.4610     -2.6460      1.7700     78.3900
    119      7.2500      5.5090     -1.8630      1.5900     78.3900
    120      7.1210      6.4360     -4.0500      1.7700     78.3900
    121      6.8020      5.3760     -4.8940      1.6800     78.3900
    122      6.7060      5.9390     -6.0750      1.7700     78.3900
    123      6.4400      5.4240     -6.9980      0.0100     78.3900
    124      8.3130      8.6510     -7.6400      1.7700     78.3900
    125      9.0540      8.6240     -6.8140      0.0100     78.3900
    126      8.2630      9.9560     -8.1890      1.5900     78.3900
    127      9.1300     10.1270     -8.5800      0.0100     78.3900
    128      8.6290      7.6050     -8.7040      1.7700     78.3900
    129      8.8590      6.6280     -8.2150      0.0100     78.3900
    130      9.6210      8.0090     -9.6760      1.5900     78.3900
    131     11.1000      7.4790     -9.5370      2.1000     78.3900
    132     11.0870      6.0400     -9.2060      1.5900     78.3900
    133     11.8610      7.8770    -10.7420      1.5900     78.3900
    134     11.6460      8.2730     -8.2910      1.5900     78.3900
    135     11.9380      9.6820     -8.4310      1.7700     78.3900
    136     11.0460     10.2460     -8.7870      0.0100     78.3900
    137     12.7560      9.8410     -9.1740      0.0100     78.3900
    138     12.3990     10.2840     -7.0990      1.7700     78.3900
    139     12.6360     11.3640     -7.2110      0.0100     78.3900
    140     11.3390     10.1740     -6.1060      1.5900     78.3900
    141     11.9200      9.8890     -4.8420      1.7700     78.3900
    142     11.5810     10.6930     -4.1500      0.0100     78.3900
    143     11.4530      8.5960     -4.3320      1.6800     78.3900
    144     10.9220      6.9140     -3.0190      1.7700     78.3900
    145     10.5240      6.5490     -4.2980      1.6800     78.3900
    146     10.8610      7.5760     -5.0390      1.7700     78.3900
    147     10.7110      7.6530     -6.1180      0.0100     78.3900
    148     11.3400      6.9010     -0.6900      1.6800     78.3900
    149     11.8560      8.1240     -0.8550      1.7700     78.3900
    150     12.2450      8.5960      0.0540      0.0100     78.3900
    151     11.9940      8.8390     -1.9780      1.6800     78.3900
    152     11.4930      8.1740     -3.0290      1.7700     78.3900
    153     10.8460      6.2520     -1.7740      1.7700     78.3900
    154     10.3110      5.0270     -1.6130      1.6800     78.3900
    155      9.8910      4.5320     -2.3760      0.0100     78.3900
    156     10.2190      4.6320     -0.6950      0.0100     78.3900
    157     13.4330      9.9560     -4.9930      1.7700     78.3900
    158     13.9540      9.2330     -4.3300      0.0100     78.3900
    159     13.8790     11.2740     -4.7170      1.5900     78.3900
    160     14.8050     11.3550     -5.0010      0.0100     78.3900
    161     13.6090      9.5850     -6.4620      1.7700     78.3900
    162     13.5000      8.4860     -6.6020      0.0100     78.3900
    163     14.8340     10.0570     -7.0530      1.5900     78.3900
    164     15.5890      9.5780     -6.6680      0.0100     78.3900
    165     10.3560      3.2280      8.1270      0.0100     78.3900
    166     10.4760      4.0370      7.5970      1.5900     78.3900
    167     11.4010      4.8670      8.3160      1.7700     78.3900
    168     12.3060      4.2720      8.5700      0.0100     78.3900
    169     10.9210      5.1930      9.2660      0.0100     78.3900
    170     11.8310      6.1200      7.5410      1.7700     78.3900
    171     12.4320      6.7920      8.1890      0.0100     78.3900
    172     12.6750      5.7520      6.4040      1.5900     78.3900
    173     12.3590      6.5910      5.3010      1.7700     78.3900
    174     13.3210      7.0600      4.9850      0.0100     78.3900
    175     11.7670      5.8270      4.1650      1.6800     78.3900
    176     11.2180      4.5760      4.3560      1.7700     78.3900
    177     11.2460      4.1990      5.3790      0.0100     78.3900
    178     11.7880      6.4000      2.9140      1.7700     78.3900
    179     12.2600      7.5150      2.7050      1.5900     78.3900
    180     11.2480      5.6340      1.9150      1.6800     78.3900
    181     11.2760      6.0460      0.9890      0.0100     78.3900
    182     10.7280      4.3600      2.0220      1.7700     78.3900
    183     10.3210      3.7730      1.0210      1.5900     78.3900
    184     10.7170      3.8400      3.3550      1.7700     78.3900
    185     10.3110      2.8470      3.5350      0.0100     78.3900
    186     11.4270      7.6710      5.8170      1.7700     78.3900
    187     10.7320      8.0320      5.0340      0.0100     78.3900
    188     12.1790      8.7600      6.3170      1.5900     78.3900
    189     11.5410      9.4000      6.6550      0.0100     78.3900
    190     10.6840      6.9380      6.9290      1.7700     78.3900
    191      9.9590      6.2120      6.4920      0.0100     78.3900
    192     10.0890      7.7800      7.9440      1.5900     78.3900
    193      8.6070      8.2920      7.7690      2.1000     78.3900
    194      7.7320      7.1470      7.4420      1.5900     78.3900
    195      8.2360      9.0990      8.9510      1.5900     78.3900
    196      8.6920      9.2360      6.5140      1.5900     78.3900
    197      9.3300     10.5370      6.6190      1.7700     78.3900
    198     10.3710     10.4570      7.0180      0.0100     78.3900
    199      8.7640     11.1890      7.3260      0.0100     78.3900
    200      9.3810     11.2650      5.2600      1.7700     78.3900
    201      9.9150     12.2390      5.3460      0.0100     78.3900
    202     10.1060     10.4670      4.2780      1.5900     78.3900
    203      9.4690     10.5970      3.0040      1.7700     78.3900
    204     10.2530     10.9850      2.3120      0.0100     78.3900
    205      8.9530      9.3080      2.4640      1.6800     78.3900
    206      8.7070      8.2590      3.3150      1.7700     78.3900
    207      8.9330      8.4390      4.3660      0.0100     78.3900
    208      8.2540      7.0820      2.8620      1.7700     78.3900
    209      8.1020      6.2290      3.5180      0.0100     78.3900
    210      8.6260      9.1880      1.1140      1.7700     78.3900
    211      8.7520     10.1680      0.3660      1.5900     78.3900
    212      8.1890      8.0040      0.6350      1.6800     78.3900
    213      8.0230      6.9600      1.4630      1.7700     78.3900
    214      7.6260      5.7930      0.9610      1.6800     78.3900
    215      7.4450      5.7320     -0.0250      0.0100     78.3900
    216      7.4360      4.9980      1.5370      0.0100     78.3900
    217      8.3780     11.6340      3.1390      1.7700     78.3900
    218      7.5010     11.4290      2.4890      0.0100     78.3900
    219      8.8870     12.9210      2.8550      1.5900     78.3900
    220      8.1780     13.5340      3.0830      0.0100     78.3900
    221      8.0110     11.5030      4.6080      1.7700     78.3900
    222      7.4260     10.5730      4.7700      0.0100     78.3900
    223      7.3860     12.6720      5.1770      1.5900     78.3900
    224      5.8190     12.7860      5.1810      2.1000     78.3900
    225      5.2510     11.4610      5.5110      1.5900     78.3900
    226      5.4390     13.9120      6.0610      1.5900     78.3900
    227      5.4510     13.1030      3.6870      1.5900     78.3900
    228      5.8260     14.3260      3.0190      1.7700     78.3900
    229      6.9150     14.5300      3.1230      0.0100     78.3900
    230      5.2870     15.1890      3.4720      0.0100     78.3900
    231      5.4660     14.2760      1.5220      1.7700     78.3900
    232      5.7750     15.2140      1.0060      0.0100     78.3900
    233      6.1650     13.1750      0.8770      1.5900     78.3900
    234      5.3150     12.5730     -0.0850      1.7700     78.3900
    235      5.8440     12.6530     -1.0650      0.0100     78.3900
    236      5.0840     11.1600      0.2310      1.6800     78.3900
    237      4.7330      8.9990      0.0460      1.7700     78.3900
    238      4.8830      9.2520      1.4040      1.6800     78.3900
    239      5.0820     10.5470      1.4630      1.7700     78.3900
    240      5.2590     11.1130      2.3790      0.0100     78.3900
    241      4.4550      7.9170     -2.0310      1.6800     78.3900
    242      4.4950      9.1240     -2.5840      1.7700     78.3900
    243      4.3910      9.1360     -3.6750      0.0100     78.3900
    244      4.7130     10.3120     -2.0120      1.6800     78.3900
    245      4.8370     10.1720     -0.6820      1.7700     78.3900
    246      4.5570      7.8090     -0.6870      1.7700     78.3900
    247      4.4880      6.5860     -0.1420      1.6800     78.3900
    248      4.4050      6.4420      0.8420      0.0100     78.3900
    249      4.2100      5.8450     -0.7660      0.0100     78.3900
    250      4.0230     13.3650     -0.1490      1.7700     78.3900
    251      3.1320     12.7180     -0.3050      0.0100     78.3900
    252      4.0750     14.3370     -1.1760      1.5900     78.3900
    253      3.2370     14.8230     -1.1260      0.0100     78.3900
    254      3.9800     14.0070      1.2350      1.7700     78.3900
    255      3.6440     13.2570      1.9870      0.0100     78.3900
    256      3.2270     15.2370      1.3290      1.5900     78.3900
    257      1.6550     15.1600      1.2710      2.1000     78.3900
    258      1.2180     13.8160      1.7290      1.5900     78.3900
    259      1.0790     16.3210      1.9690      1.5900     78.3900
    260      1.3170     15.2940     -0.2630      1.5900     78.3900
    261     -0.0220     14.9440     -0.7300      1.7700     78.3900
    262     -0.5860     15.8720     -0.9740      0.0100     78.3900
    263     -0.6300     14.4210      0.0530      0.0100     78.3900
    264      0.0040     14.0490     -1.9960      1.7700     78.3900
    265      0.1860     14.6710     -2.9000      0.0100     78.3900
    266      1.1140     13.1080     -1.9190      1.5900     78.3900
    267      0.7190     11.8400     -2.4050      1.7700     78.3900
    268      1.4640     11.5580     -3.1830      0.0100     78.3900
    269      0.7450     10.8450     -1.3260      1.6800     78.3900
    270      0.9180      8.9750     -0.1840      1.7700     78.3900
    271      0.7620      9.9840      0.7570      1.6800     78.3900
    272      0.6680     11.0720      0.0320      1.7700     78.3900
    273      0.5500     12.0820      0.4290      0.0100     78.3900
    274      1.2720      6.8680     -1.1810      1.6800     78.3900
    275      1.2250      7.5080     -2.3490      1.7700     78.3900
    276      1.3170      6.8690     -3.2250      0.0100     78.3900
    277      1.0140      8.8040     -2.6240      1.6800     78.3900
    278      0.8990      9.4910     -1.4730      1.7700     78.3900
    279      1.1200      7.5870     -0.0530      1.7700     78.3900
    280      1.1560      6.9480      1.1290      1.6800     78.3900
    281      1.0010      7.4080      2.0060      0.0100     78.3900
    282      1.2240      5.9520      1.1150      0.0100     78.3900
    283     -0.6490     11.9890     -3.0380      1.7700     78.3900
    284     -1.2670     11.0750     -2.9280      0.0100     78.3900
    285     -0.5230     12.3200     -4.4130      1.5900     78.3900
    286     -1.3980     12.5780     -4.7410      0.0100     78.3900
    287     -1.2280     13.1440     -2.2230      1.7700     78.3900
    288     -1.5120     12.7820     -1.2080      0.0100     78.3900
    289     -2.2930     13.8720     -2.8790      1.5900     78.3900
    290     -3.7910     13.4510     -2.6120      2.1000     78.3900
    291     -3.8250     12.3030     -1.6780      1.5900     78.3900
    292     -4.5450     14.6570     -2.2200      1.5900     78.3900
    293     -4.3080     12.9820     -4.0180      1.5900     78.3900
    294     -5.4560     12.1040     -4.1570      1.7700     78.3900
    295     -6.3790     12.6980     -4.3510      0.0100     78.3900
    296     -5.6470     11.5190     -3.2250      0.0100     78.3900
    297     -5.3090     11.0800     -5.3030      1.7700     78.3900
    298     -5.6610     11.5110     -6.2660      0.0100     78.3900
    299     -3.9110     10.7020     -5.4960      1.5900     78.3900
    300     -3.8200      9.3030     -5.6920      1.7700     78.3900
    301     -3.2060      9.1390     -6.6060      0.0100     78.3900
    302     -3.1790      8.6520     -4.5440      1.6800     78.3900
    303     -2.6620      7.3870     -4.5280      1.7700     78.3900
    304     -2.0560      4.3560     -6.1030      1.6800     78.3900
    305     -2.4470      4.4820     -7.0140      0.0100     78.3900
    306     -1.6570      3.4710     -5.8490      0.0100     78.3900
    307     -2.6510      6.5250     -5.5640      1.6800     78.3900
    308     -2.1210      5.3480     -5.2340      1.7700     78.3900
    309     -1.6560      5.0650     -3.9790      1.6800     78.3900
    310     -1.1940      4.1820     -3.8220      0.0100     78.3900
    311     -1.6620      5.9300     -2.8930      1.7700     78.3900
    312     -1.2510      5.5750     -1.7890      1.5900     78.3900
    313     -2.2040      7.1940     -3.2400      1.7700     78.3900
    314     -2.4110      8.3300     -2.4620      1.6800     78.3900
    315     -2.9920      9.1720     -3.2800      1.7700     78.3900
    316     -3.2980     10.1920     -3.0260      0.0100     78.3900
    317     -5.2260      8.7860     -5.9190      1.7700     78.3900
    318     -5.3520      7.7320     -5.5890      0.0100     78.3900
    319     -5.5770      8.9020     -7.2880      1.5900     78.3900
    320     -6.5210      8.7080     -7.3680      0.0100     78.3900
    321     -6.0310      9.7420     -5.0550      1.7700     78.3900
    322     -5.8750      9.4930     -3.9770      0.0100     78.3900
    323     -7.4240      9.8490     -5.4240      1.5900     78.3900
    324     -8.5340      9.2000     -4.5130      2.1000     78.3900
    325     -8.2100      9.4430     -3.0930      1.5900     78.3900
    326     -9.8690      9.6430     -4.9710      1.5900     78.3900
    327     -8.3700      7.6570     -4.8030      1.5900     78.3900
    328     -8.7020      7.1120     -6.1020      1.7700     78.3900
    329     -8.1340      7.6220     -6.9140      0.0100     78.3900
    330     -9.7900      7.2460     -6.3100      0.0100     78.3900
    331     -8.4000      5.6050     -6.1820      1.7700     78.3900
    332     -8.7690      5.1810     -7.1410      0.0100     78.3900
    333     -6.9580      5.3810     -6.1540      1.5900     78.3900
    334     -6.6740      4.2190     -5.3840      1.7700     78.3900
    335     -6.0720      3.5500     -6.0440      0.0100     78.3900
    336     -5.9050      4.5530     -4.1470      1.6800     78.3900
    337     -5.9030      5.8300     -3.6270      1.7700     78.3900
    338     -6.4550      6.5700     -4.2030      0.0100     78.3900
    339     -5.2040      3.5450     -3.5260      1.7700     78.3900
    340     -5.1930      2.3910     -3.9510      1.5900     78.3900
    341     -4.5300      3.9160     -2.3930      1.6800     78.3900
    342     -3.9990      3.1790     -1.9390      0.0100     78.3900
    343     -4.5300      5.1550     -1.7870      1.7700     78.3900
    344     -3.9440      5.3170     -0.7190      1.5900     78.3900
    345     -5.2490      6.1630     -2.5070      1.7700     78.3900
    346     -5.2500      7.1800     -2.1220      0.0100     78.3900
    347     -8.0060      3.5430     -5.0680      1.7700     78.3900
    348     -7.9830      3.0370     -4.0780      0.0100     78.3900
    349     -8.3400      2.5950     -6.0750      1.5900     78.3900
    350     -9.2700      2.3290     -5.9580      0.0100     78.3900
    351     -8.9530      4.7390     -5.0410      1.7700     78.3900
    352     -8.8330      5.3000     -4.0890      0.0100     78.3900
    353    -10.3350      4.4100     -5.2740      1.5900     78.3900
    354    -10.6860      3.8950     -4.5270      0.0100     78.3900

     ----------------------------
     INPUT FOR TESSERA DEFINITION
     ----------------------------
     NTSALL  =        60     MTHALL  =         4
     MTHAUT  =         0     AUTFRE  =    2.0000
     NTSFRZ  =        60     KEEPSM  =         0
     AREAKP  =   10.0000     BONDRY  =    1.0000
     AREATL  =    0.0100

     SPHERE     INITS       METHOD
          1        60       FIXPVA
          2        60       FIXPVA
          3        60       FIXPVA
          4        60       FIXPVA
          5        60       FIXPVA
          6        60       FIXPVA
          7        60       FIXPVA
          8        60       FIXPVA
          9        60       FIXPVA
         10        60       FIXPVA
         11        60       FIXPVA
         12        60       FIXPVA
         13        60       FIXPVA
         14        60       FIXPVA
         15        60       FIXPVA
         16        60       FIXPVA
         17        60       FIXPVA
         18        60       FIXPVA
         19        60       FIXPVA
         20        60       FIXPVA
         21        60       FIXPVA
         22        60       FIXPVA
         23        60       FIXPVA
         24        60       FIXPVA
         25        60       FIXPVA
         26        60       FIXPVA
         27        60       FIXPVA
         28        60       FIXPVA
         29        60       FIXPVA
         30        60       FIXPVA
         31        60       FIXPVA
         32        60       FIXPVA
         33        60       FIXPVA
         34        60       FIXPVA
         35        60       FIXPVA
         36        60       FIXPVA
         37        60       FIXPVA
         38        60       FIXPVA
         39        60       FIXPVA
         40        60       FIXPVA
         41        60       FIXPVA
         42        60       FIXPVA
         43        60       FIXPVA
         44        60       FIXPVA
         45        60       FIXPVA
         46        60       FIXPVA
         47        60       FIXPVA
         48        60       FIXPVA
         49        60       FIXPVA
         50        60       FIXPVA
         51        60       FIXPVA
         52        60       FIXPVA
         53        60       FIXPVA
         54        60       FIXPVA
         55        60       FIXPVA
         56        60       FIXPVA
         57        60       FIXPVA
         58        60       FIXPVA
         59        60       FIXPVA
         60        60       FIXPVA
         61        60       FIXPVA
         62        60       FIXPVA
         63        60       FIXPVA
         64        60       FIXPVA
         65        60       FIXPVA
         66        60       FIXPVA
         67        60       FIXPVA
         68        60       FIXPVA
         69        60       FIXPVA
         70        60       FIXPVA
         71        60       FIXPVA
         72        60       FIXPVA
         73        60       FIXPVA
         74        60       FIXPVA
         75        60       FIXPVA
         76        60       FIXPVA
         77        60       FIXPVA
         78        60       FIXPVA
         79        60       FIXPVA
         80        60       FIXPVA
         81        60       FIXPVA
         82        60       FIXPVA
         83        60       FIXPVA
         84        60       FIXPVA
         85        60       FIXPVA
         86        60       FIXPVA
         87        60       FIXPVA
         88        60       FIXPVA
         89        60       FIXPVA
         90        60       FIXPVA
         91        60       FIXPVA
         92        60       FIXPVA
         93        60       FIXPVA
         94        60       FIXPVA
         95        60       FIXPVA
         96        60       FIXPVA
         97        60       FIXPVA
         98        60       FIXPVA
         99        60       FIXPVA
        100        60       FIXPVA
        101        60       FIXPVA
        102        60       FIXPVA
        103        60       FIXPVA
        104        60       FIXPVA
        105        60       FIXPVA
        106        60       FIXPVA
        107        60       FIXPVA
        108        60       FIXPVA
        109        60       FIXPVA
        110        60       FIXPVA
        111        60       FIXPVA
        112        60       FIXPVA
        113        60       FIXPVA
        114        60       FIXPVA
        115        60       FIXPVA
        116        60       FIXPVA
        117        60       FIXPVA
        118        60       FIXPVA
        119        60       FIXPVA
        120        60       FIXPVA
        121        60       FIXPVA
        122        60       FIXPVA
        123        60       FIXPVA
        124        60       FIXPVA
        125        60       FIXPVA
        126        60       FIXPVA
        127        60       FIXPVA
        128        60       FIXPVA
        129        60       FIXPVA
        130        60       FIXPVA
        131        60       FIXPVA
        132        60       FIXPVA
        133        60       FIXPVA
        134        60       FIXPVA
        135        60       FIXPVA
        136        60       FIXPVA
        137        60       FIXPVA
        138        60       FIXPVA
        139        60       FIXPVA
        140        60       FIXPVA
        141        60       FIXPVA
        142        60       FIXPVA
        143        60       FIXPVA
        144        60       FIXPVA
        145        60       FIXPVA
        146        60       FIXPVA
        147        60       FIXPVA
        148        60       FIXPVA
        149        60       FIXPVA
        150        60       FIXPVA
        151        60       FIXPVA
        152        60       FIXPVA
        153        60       FIXPVA
        154        60       FIXPVA
        155        60       FIXPVA
        156        60       FIXPVA
        157        60       FIXPVA
        158        60       FIXPVA
        159        60       FIXPVA
        160        60       FIXPVA
        161        60       FIXPVA
        162        60       FIXPVA
        163        60       FIXPVA
        164        60       FIXPVA
        165        60       FIXPVA
        166        60       FIXPVA
        167        60       FIXPVA
        168        60       FIXPVA
        169        60       FIXPVA
        170        60       FIXPVA
        171        60       FIXPVA
        172        60       FIXPVA
        173        60       FIXPVA
        174        60       FIXPVA
        175        60       FIXPVA
        176        60       FIXPVA
        177        60       FIXPVA
        178        60       FIXPVA
        179        60       FIXPVA
        180        60       FIXPVA
        181        60       FIXPVA
        182        60       FIXPVA
        183        60       FIXPVA
        184        60       FIXPVA
        185        60       FIXPVA
        186        60       FIXPVA
        187        60       FIXPVA
        188        60       FIXPVA
        189        60       FIXPVA
        190        60       FIXPVA
        191        60       FIXPVA
        192        60       FIXPVA
        193        60       FIXPVA
        194        60       FIXPVA
        195        60       FIXPVA
        196        60       FIXPVA
        197        60       FIXPVA
        198        60       FIXPVA
        199        60       FIXPVA
        200        60       FIXPVA
        201        60       FIXPVA
        202        60       FIXPVA
        203        60       FIXPVA
        204        60       FIXPVA
        205        60       FIXPVA
        206        60       FIXPVA
        207        60       FIXPVA
        208        60       FIXPVA
        209        60       FIXPVA
        210        60       FIXPVA
        211        60       FIXPVA
        212        60       FIXPVA
        213        60       FIXPVA
        214        60       FIXPVA
        215        60       FIXPVA
        216        60       FIXPVA
        217        60       FIXPVA
        218        60       FIXPVA
        219        60       FIXPVA
        220        60       FIXPVA
        221        60       FIXPVA
        222        60       FIXPVA
        223        60       FIXPVA
        224        60       FIXPVA
        225        60       FIXPVA
        226        60       FIXPVA
        227        60       FIXPVA
        228        60       FIXPVA
        229        60       FIXPVA
        230        60       FIXPVA
        231        60       FIXPVA
        232        60       FIXPVA
        233        60       FIXPVA
        234        60       FIXPVA
        235        60       FIXPVA
        236        60       FIXPVA
        237        60       FIXPVA
        238        60       FIXPVA
        239        60       FIXPVA
        240        60       FIXPVA
        241        60       FIXPVA
        242        60       FIXPVA
        243        60       FIXPVA
        244        60       FIXPVA
        245        60       FIXPVA
        246        60       FIXPVA
        247        60       FIXPVA
        248        60       FIXPVA
        249        60       FIXPVA
        250        60       FIXPVA
        251        60       FIXPVA
        252        60       FIXPVA
        253        60       FIXPVA
        254        60       FIXPVA
        255        60       FIXPVA
        256        60       FIXPVA
        257        60       FIXPVA
        258        60       FIXPVA
        259        60       FIXPVA
        260        60       FIXPVA
        261        60       FIXPVA
        262        60       FIXPVA
        263        60       FIXPVA
        264        60       FIXPVA
        265        60       FIXPVA
        266        60       FIXPVA
        267        60       FIXPVA
        268        60       FIXPVA
        269        60       FIXPVA
        270        60       FIXPVA
        271        60       FIXPVA
        272        60       FIXPVA
        273        60       FIXPVA
        274        60       FIXPVA
        275        60       FIXPVA
        276        60       FIXPVA
        277        60       FIXPVA
        278        60       FIXPVA
        279        60       FIXPVA
        280        60       FIXPVA
        281        60       FIXPVA
        282        60       FIXPVA
        283        60       FIXPVA
        284        60       FIXPVA
        285        60       FIXPVA
        286        60       FIXPVA
        287        60       FIXPVA
        288        60       FIXPVA
        289        60       FIXPVA
        290        60       FIXPVA
        291        60       FIXPVA
        292        60       FIXPVA
        293        60       FIXPVA
        294        60       FIXPVA
        295        60       FIXPVA
        296        60       FIXPVA
        297        60       FIXPVA
        298        60       FIXPVA
        299        60       FIXPVA
        300        60       FIXPVA
        301        60       FIXPVA
        302        60       FIXPVA
        303        60       FIXPVA
        304        60       FIXPVA
        305        60       FIXPVA
        306        60       FIXPVA
        307        60       FIXPVA
        308        60       FIXPVA
        309        60       FIXPVA
        310        60       FIXPVA
        311        60       FIXPVA
        312        60       FIXPVA
        313        60       FIXPVA
        314        60       FIXPVA
        315        60       FIXPVA
        316        60       FIXPVA
        317        60       FIXPVA
        318        60       FIXPVA
        319        60       FIXPVA
        320        60       FIXPVA
        321        60       FIXPVA
        322        60       FIXPVA
        323        60       FIXPVA
        324        60       FIXPVA
        325        60       FIXPVA
        326        60       FIXPVA
        327        60       FIXPVA
        328        60       FIXPVA
        329        60       FIXPVA
        330        60       FIXPVA
        331        60       FIXPVA
        332        60       FIXPVA
        333        60       FIXPVA
        334        60       FIXPVA
        335        60       FIXPVA
        336        60       FIXPVA
        337        60       FIXPVA
        338        60       FIXPVA
        339        60       FIXPVA
        340        60       FIXPVA
        341        60       FIXPVA
        342        60       FIXPVA
        343        60       FIXPVA
        344        60       FIXPVA
        345        60       FIXPVA
        346        60       FIXPVA
        347        60       FIXPVA
        348        60       FIXPVA
        349        60       FIXPVA
        350        60       FIXPVA
        351        60       FIXPVA
        352        60       FIXPVA
        353        60       FIXPVA
        354        60       FIXPVA

     ------------------------------
      FIXPVA TESSELLATION FOR PCM
         PEIFENG SU AND HUI LI
     UNIVERSITY OF NEBRASKA-LINCOLN
     ------------------------------


 PCM DIMENSIONS: MXSP=   354, MXTS=     14160, MEMORY=        145497

     INPUT FOR CAVITY DEFINITION 
     ---------------------------
   ATOM               COORDINATES                RADIUS       EPS
      1      2.5320     -2.5690      3.6960      0.0100     78.3900
      2      2.0400     -2.5330      2.8560      1.5900     78.3900
      3      1.7420     -3.8880      2.4890      1.7700     78.3900
      4      1.2350     -4.3920      3.3420      0.0100     78.3900
      5      2.6910     -4.4320      2.2810      0.0100     78.3900
      6      0.8400     -3.9810      1.2550      1.7700     78.3900
      7      0.6480     -5.0410      0.9800      0.0100     78.3900
      8     -0.4490     -3.3590      1.5400      1.5900     78.3900
      9     -0.9070     -2.6790      0.3820      1.7700     78.3900
     10     -1.9180     -3.0920      0.1480      0.0100     78.3900
     11     -1.0400     -1.2390      0.6240      1.6800     78.3900
     12     -1.6660      0.8670      0.5200      1.7700     78.3900
     13     -0.8450      0.7620      1.6340      1.6800     78.3900
     14     -0.5010     -0.5050      1.6560      1.7700     78.3900
     15      0.1390     -0.9740      2.4080      0.0100     78.3900
     16     -3.1190      1.7160     -1.1460      1.6800     78.3900
     17     -3.1110      0.4860     -1.6690      1.7700     78.3900
     18     -3.7210      0.3620     -2.5710      0.0100     78.3900
     19     -2.4990     -0.6190     -1.2260      1.6800     78.3900
     20     -1.7890     -0.3560     -0.1160      1.7700     78.3900
     21     -2.3830      1.9500     -0.0300      1.7700     78.3900
     22     -2.3710      3.1840      0.5000      1.6800     78.3900
     23     -1.8650      3.3860      1.3420      0.0100     78.3900
     24     -2.7910      3.9530      0.0090      0.0100     78.3900
     25      0.0510     -3.0030     -0.7410      1.7700     78.3900
     26      0.1420     -2.1820     -1.4820      0.0100     78.3900
     27     -0.3920     -4.1820     -1.3780      1.5900     78.3900
     28      0.3240     -4.4740     -1.9560      0.0100     78.3900
     29      1.3610     -3.2380      0.0140      1.7700     78.3900
     30      1.7730     -2.2660      0.3750      0.0100     78.3900
     31      2.3530     -4.0500     -0.6750      1.5900     78.3900
     32      3.3760     -3.3020     -1.6320      2.1000     78.3900
     33      4.0400     -2.2230     -0.8680      1.5900     78.3900
     34      4.2710     -4.3130     -2.2360      1.5900     78.3900
     35      2.4820     -2.6760     -2.7620      1.5900     78.3900
     36      1.8500     -3.5210     -3.7570      1.7700     78.3900
     37      1.1630     -4.2560     -3.2870      0.0100     78.3900
     38      2.6050     -4.1110     -4.3300      0.0100     78.3900
     39      1.0280     -2.7000     -4.7620      1.7700     78.3900
     40      0.5040     -3.3720     -5.4770      0.0100     78.3900
     41      0.0010     -1.9300     -4.0740      1.5900     78.3900
     42     -0.1380     -0.6640     -4.7100      1.7700     78.3900
     43     -1.2090     -0.6030     -5.0220      0.0100     78.3900
     44      0.1640      0.4770     -3.8030      1.6800     78.3900
     45      0.9060      0.2840     -2.6610      1.7700     78.3900
     46      1.2610     -0.7320     -2.4890      0.0100     78.3900
     47      1.1550      1.2940     -1.8130      1.7700     78.3900
     48      1.7140      1.1590     -0.8910      0.0100     78.3900
     49     -0.2890      1.7520     -4.1230      1.7700     78.3900
     50     -0.9390      1.9240     -5.1670      1.5900     78.3900
     51     -0.0430      2.7790     -3.2840      1.6800     78.3900
     52      0.6460      2.5810     -2.1500      1.7700     78.3900
     53      0.8560      3.6060     -1.3300      1.6800     78.3900
     54      0.5260      4.5170     -1.6000      0.0100     78.3900
     55      1.4420      3.5400     -0.5270      0.0100     78.3900
     56      0.7360     -0.6700     -5.9520      1.7700     78.3900
     57      1.1820      0.3260     -6.1750      0.0100     78.3900
     58     -0.0170     -1.1220     -7.0650      1.5900     78.3900
     59      0.6130     -1.2950     -7.7820      0.0100     78.3900
     60      1.8220     -1.6670     -5.5670      1.7700     78.3900
     61      2.5390     -1.1950     -4.8560      0.0100     78.3900
     62      2.4740     -2.3110     -6.6840      1.5900     78.3900
     63      3.7770     -1.6650     -7.2960      2.1000     78.3900
     64      4.7900     -1.5660     -6.2120      1.5900     78.3900
     65      4.1530     -2.4680     -8.4790      1.5900     78.3900
     66      3.3250     -0.2430     -7.7760      1.5900     78.3900
     67      4.3210      0.7530     -8.1150      1.7700     78.3900
     68      5.0000      0.3810     -8.9200      0.0100     78.3900
     69      4.9530      0.9800     -7.2240      0.0100     78.3900
     70      3.6850      2.0740     -8.6030      1.7700     78.3900
     71      3.2980      1.9610     -9.6360      0.0100     78.3900
     72      2.5450      2.4450     -7.7660      1.5900     78.3900
     73      2.5670      3.8380     -7.4970      1.7700     78.3900
     74      1.5590      4.2030     -7.7950      0.0100     78.3900
     75      2.7970      4.1610     -6.0720      1.6800     78.3900
     76      3.3270      3.3850     -5.0580      1.7700     78.3900
     77      4.6280      0.3610     -4.0010      1.6800     78.3900
     78      5.0800     -0.0210     -3.1970      0.0100     78.3900
     79      4.6000     -0.1760     -4.8480      0.0100     78.3900
     80      3.7460      2.1120     -5.1630      1.6800     78.3900
     81      4.2060      1.6130     -4.0370      1.7700     78.3900
     82      4.2560      2.3320     -2.8710      1.6800     78.3900
     83      4.6660      1.9000     -2.0570      0.0100     78.3900
     84      3.8540      3.6600     -2.7230      1.7700     78.3900
     85      3.9400      4.2140     -1.6190      1.5900     78.3900
     86      3.3350      4.1900     -3.9410      1.7700     78.3900
     87      2.8160      5.4430     -4.2380      1.6800     78.3900
     88      2.5090      5.3810     -5.5060      1.7700     78.3900
     89      2.0670      6.1990     -6.0800      0.0100     78.3900
     90      3.6210      4.4580     -8.3870      1.7700     78.3900
     91      4.1240      5.3350     -7.9240      0.0100     78.3900
     92      3.0400      4.8420     -9.6200      1.5900     78.3900
     93      3.7620      4.9590    -10.2570      0.0100     78.3900
     94      4.6050      3.3080     -8.5480      1.7700     78.3900
     95      5.2000      3.2080     -7.6070      0.0100     78.3900
     96      5.4120      3.4000     -9.7440      1.5900     78.3900
     97      6.9770      3.5120     -9.6450      2.1000     78.3900
     98      7.4620      2.5890     -8.5990      1.5900     78.3900
     99      7.5390      3.3590    -11.0040      1.5900     78.3900
    100      7.2170      4.9900     -9.1560      1.5900     78.3900
    101      7.0110      6.0920    -10.0710      1.7700     78.3900
    102      5.9640      6.0950    -10.4510      0.0100     78.3900
    103      7.7030      6.0170    -10.9420      0.0100     78.3900
    104      7.2620      7.4430     -9.3900      1.7700     78.3900
    105      7.1240      8.2830    -10.1070      0.0100     78.3900
    106      6.2910      7.6260     -8.3220      1.5900     78.3900
    107      6.9250      8.2220     -7.2010      1.7700     78.3900
    108      6.3240      9.1220     -6.9300      0.0100     78.3900
    109      6.9560      7.2950     -6.0570      1.6800     78.3900
    110      7.2330      7.6210     -4.7570      1.7700     78.3900
    111      8.1370      9.9690     -2.3730      1.6800     78.3900
    112      8.1700     10.8190     -2.9020      0.0100     78.3900
    113      8.3010      9.9960     -1.3850      0.0100     78.3900
    114      7.5450      8.8510     -4.3000      1.6800     78.3900
    115      7.7830      8.8520     -2.9910      1.7700     78.3900
    116      7.6940      7.7290     -2.2100      1.6800     78.3900
    117      7.8370      7.8220     -1.2180      0.0100     78.3900
    118      7.3190      6.4610     -2.6460      1.7700     78.3900
    119      7.2500      5.5090     -1.8630      1.5900     78.3900
    120      7.1210      6.4360     -4.0500      1.7700     78.3900
    121      6.8020      5.3760     -4.8940      1.6800     78.3900
    122      6.7060      5.9390     -6.0750      1.7700     78.3900
    123      6.4400      5.4240     -6.9980      0.0100     78.3900
    124      8.3130      8.6510     -7.6400      1.7700     78.3900
    125      9.0540      8.6240     -6.8140      0.0100     78.3900
    126      8.2630      9.9560     -8.1890      1.5900     78.3900
    127      9.1300     10.1270     -8.5800      0.0100     78.3900
    128      8.6290      7.6050     -8.7040      1.7700     78.3900
    129      8.8590      6.6280     -8.2150      0.0100     78.3900
    130      9.6210      8.0090     -9.6760      1.5900     78.3900
    131     11.1000      7.4790     -9.5370      2.1000     78.3900
    132     11.0870      6.0400     -9.2060      1.5900     78.3900
    133     11.8610      7.8770    -10.7420      1.5900     78.3900
    134     11.6460      8.2730     -8.2910      1.5900     78.3900
    135     11.9380      9.6820     -8.4310      1.7700     78.3900
    136     11.0460     10.2460     -8.7870      0.0100     78.3900
    137     12.7560      9.8410     -9.1740      0.0100     78.3900
    138     12.3990     10.2840     -7.0990      1.7700     78.3900
    139     12.6360     11.3640     -7.2110      0.0100     78.3900
    140     11.3390     10.1740     -6.1060      1.5900     78.3900
    141     11.9200      9.8890     -4.8420      1.7700     78.3900
    142     11.5810     10.6930     -4.1500      0.0100     78.3900
    143     11.4530      8.5960     -4.3320      1.6800     78.3900
    144     10.9220      6.9140     -3.0190      1.7700     78.3900
    145     10.5240      6.5490     -4.2980      1.6800     78.3900
    146     10.8610      7.5760     -5.0390      1.7700     78.3900
    147     10.7110      7.6530     -6.1180      0.0100     78.3900
    148     11.3400      6.9010     -0.6900      1.6800     78.3900
    149     11.8560      8.1240     -0.8550      1.7700     78.3900
    150     12.2450      8.5960      0.0540      0.0100     78.3900
    151     11.9940      8.8390     -1.9780      1.6800     78.3900
    152     11.4930      8.1740     -3.0290      1.7700     78.3900
    153     10.8460      6.2520     -1.7740      1.7700     78.3900
    154     10.3110      5.0270     -1.6130      1.6800     78.3900
    155      9.8910      4.5320     -2.3760      0.0100     78.3900
    156     10.2190      4.6320     -0.6950      0.0100     78.3900
    157     13.4330      9.9560     -4.9930      1.7700     78.3900
    158     13.9540      9.2330     -4.3300      0.0100     78.3900
    159     13.8790     11.2740     -4.7170      1.5900     78.3900
    160     14.8050     11.3550     -5.0010      0.0100     78.3900
    161     13.6090      9.5850     -6.4620      1.7700     78.3900
    162     13.5000      8.4860     -6.6020      0.0100     78.3900
    163     14.8340     10.0570     -7.0530      1.5900     78.3900
    164     15.5890      9.5780     -6.6680      0.0100     78.3900
    165     10.3560      3.2280      8.1270      0.0100     78.3900
    166     10.4760      4.0370      7.5970      1.5900     78.3900
    167     11.4010      4.8670      8.3160      1.7700     78.3900
    168     12.3060      4.2720      8.5700      0.0100     78.3900
    169     10.9210      5.1930      9.2660      0.0100     78.3900
    170     11.8310      6.1200      7.5410      1.7700     78.3900
    171     12.4320      6.7920      8.1890      0.0100     78.3900
    172     12.6750      5.7520      6.4040      1.5900     78.3900
    173     12.3590      6.5910      5.3010      1.7700     78.3900
    174     13.3210      7.0600      4.9850      0.0100     78.3900
    175     11.7670      5.8270      4.1650      1.6800     78.3900
    176     11.2180      4.5760      4.3560      1.7700     78.3900
    177     11.2460      4.1990      5.3790      0.0100     78.3900
    178     11.7880      6.4000      2.9140      1.7700     78.3900
    179     12.2600      7.5150      2.7050      1.5900     78.3900
    180     11.2480      5.6340      1.9150      1.6800     78.3900
    181     11.2760      6.0460      0.9890      0.0100     78.3900
    182     10.7280      4.3600      2.0220      1.7700     78.3900
    183     10.3210      3.7730      1.0210      1.5900     78.3900
    184     10.7170      3.8400      3.3550      1.7700     78.3900
    185     10.3110      2.8470      3.5350      0.0100     78.3900
    186     11.4270      7.6710      5.8170      1.7700     78.3900
    187     10.7320      8.0320      5.0340      0.0100     78.3900
    188     12.1790      8.7600      6.3170      1.5900     78.3900
    189     11.5410      9.4000      6.6550      0.0100     78.3900
    190     10.6840      6.9380      6.9290      1.7700     78.3900
    191      9.9590      6.2120      6.4920      0.0100     78.3900
    192     10.0890      7.7800      7.9440      1.5900     78.3900
    193      8.6070      8.2920      7.7690      2.1000     78.3900
    194      7.7320      7.1470      7.4420      1.5900     78.3900
    195      8.2360      9.0990      8.9510      1.5900     78.3900
    196      8.6920      9.2360      6.5140      1.5900     78.3900
    197      9.3300     10.5370      6.6190      1.7700     78.3900
    198     10.3710     10.4570      7.0180      0.0100     78.3900
    199      8.7640     11.1890      7.3260      0.0100     78.3900
    200      9.3810     11.2650      5.2600      1.7700     78.3900
    201      9.9150     12.2390      5.3460      0.0100     78.3900
    202     10.1060     10.4670      4.2780      1.5900     78.3900
    203      9.4690     10.5970      3.0040      1.7700     78.3900
    204     10.2530     10.9850      2.3120      0.0100     78.3900
    205      8.9530      9.3080      2.4640      1.6800     78.3900
    206      8.7070      8.2590      3.3150      1.7700     78.3900
    207      8.9330      8.4390      4.3660      0.0100     78.3900
    208      8.2540      7.0820      2.8620      1.7700     78.3900
    209      8.1020      6.2290      3.5180      0.0100     78.3900
    210      8.6260      9.1880      1.1140      1.7700     78.3900
    211      8.7520     10.1680      0.3660      1.5900     78.3900
    212      8.1890      8.0040      0.6350      1.6800     78.3900
    213      8.0230      6.9600      1.4630      1.7700     78.3900
    214      7.6260      5.7930      0.9610      1.6800     78.3900
    215      7.4450      5.7320     -0.0250      0.0100     78.3900
    216      7.4360      4.9980      1.5370      0.0100     78.3900
    217      8.3780     11.6340      3.1390      1.7700     78.3900
    218      7.5010     11.4290      2.4890      0.0100     78.3900
    219      8.8870     12.9210      2.8550      1.5900     78.3900
    220      8.1780     13.5340      3.0830      0.0100     78.3900
    221      8.0110     11.5030      4.6080      1.7700     78.3900
    222      7.4260     10.5730      4.7700      0.0100     78.3900
    223      7.3860     12.6720      5.1770      1.5900     78.3900
    224      5.8190     12.7860      5.1810      2.1000     78.3900
    225      5.2510     11.4610      5.5110      1.5900     78.3900
    226      5.4390     13.9120      6.0610      1.5900     78.3900
    227      5.4510     13.1030      3.6870      1.5900     78.3900
    228      5.8260     14.3260      3.0190      1.7700     78.3900
    229      6.9150     14.5300      3.1230      0.0100     78.3900
    230      5.2870     15.1890      3.4720      0.0100     78.3900
    231      5.4660     14.2760      1.5220      1.7700     78.3900
    232      5.7750     15.2140      1.0060      0.0100     78.3900
    233      6.1650     13.1750      0.8770      1.5900     78.3900
    234      5.3150     12.5730     -0.0850      1.7700     78.3900
    235      5.8440     12.6530     -1.0650      0.0100     78.3900
    236      5.0840     11.1600      0.2310      1.6800     78.3900
    237      4.7330      8.9990      0.0460      1.7700     78.3900
    238      4.8830      9.2520      1.4040      1.6800     78.3900
    239      5.0820     10.5470      1.4630      1.7700     78.3900
    240      5.2590     11.1130      2.3790      0.0100     78.3900
    241      4.4550      7.9170     -2.0310      1.6800     78.3900
    242      4.4950      9.1240     -2.5840      1.7700     78.3900
    243      4.3910      9.1360     -3.6750      0.0100     78.3900
    244      4.7130     10.3120     -2.0120      1.6800     78.3900
    245      4.8370     10.1720     -0.6820      1.7700     78.3900
    246      4.5570      7.8090     -0.6870      1.7700     78.3900
    247      4.4880      6.5860     -0.1420      1.6800     78.3900
    248      4.4050      6.4420      0.8420      0.0100     78.3900
    249      4.2100      5.8450     -0.7660      0.0100     78.3900
    250      4.0230     13.3650     -0.1490      1.7700     78.3900
    251      3.1320     12.7180     -0.3050      0.0100     78.3900
    252      4.0750     14.3370     -1.1760      1.5900     78.3900
    253      3.2370     14.8230     -1.1260      0.0100     78.3900
    254      3.9800     14.0070      1.2350      1.7700     78.3900
    255      3.6440     13.2570      1.9870      0.0100     78.3900
    256      3.2270     15.2370      1.3290      1.5900     78.3900
    257      1.6550     15.1600      1.2710      2.1000     78.3900
    258      1.2180     13.8160      1.7290      1.5900     78.3900
    259      1.0790     16.3210      1.9690      1.5900     78.3900
    260      1.3170     15.2940     -0.2630      1.5900     78.3900
    261     -0.0220     14.9440     -0.7300      1.7700     78.3900
    262     -0.5860     15.8720     -0.9740      0.0100     78.3900
    263     -0.6300     14.4210      0.0530      0.0100     78.3900
    264      0.0040     14.0490     -1.9960      1.7700     78.3900
    265      0.1860     14.6710     -2.9000      0.0100     78.3900
    266      1.1140     13.1080     -1.9190      1.5900     78.3900
    267      0.7190     11.8400     -2.4050      1.7700     78.3900
    268      1.4640     11.5580     -3.1830      0.0100     78.3900
    269      0.7450     10.8450     -1.3260      1.6800     78.3900
    270      0.9180      8.9750     -0.1840      1.7700     78.3900
    271      0.7620      9.9840      0.7570      1.6800     78.3900
    272      0.6680     11.0720      0.0320      1.7700     78.3900
    273      0.5500     12.0820      0.4290      0.0100     78.3900
    274      1.2720      6.8680     -1.1810      1.6800     78.3900
    275      1.2250      7.5080     -2.3490      1.7700     78.3900
    276      1.3170      6.8690     -3.2250      0.0100     78.3900
    277      1.0140      8.8040     -2.6240      1.6800     78.3900
    278      0.8990      9.4910     -1.4730      1.7700     78.3900
    279      1.1200      7.5870     -0.0530      1.7700     78.3900
    280      1.1560      6.9480      1.1290      1.6800     78.3900
    281      1.0010      7.4080      2.0060      0.0100     78.3900
    282      1.2240      5.9520      1.1150      0.0100     78.3900
    283     -0.6490     11.9890     -3.0380      1.7700     78.3900
    284     -1.2670     11.0750     -2.9280      0.0100     78.3900
    285     -0.5230     12.3200     -4.4130      1.5900     78.3900
    286     -1.3980     12.5780     -4.7410      0.0100     78.3900
    287     -1.2280     13.1440     -2.2230      1.7700     78.3900
    288     -1.5120     12.7820     -1.2080      0.0100     78.3900
    289     -2.2930     13.8720     -2.8790      1.5900     78.3900
    290     -3.7910     13.4510     -2.6120      2.1000     78.3900
    291     -3.8250     12.3030     -1.6780      1.5900     78.3900
    292     -4.5450     14.6570     -2.2200      1.5900     78.3900
    293     -4.3080     12.9820     -4.0180      1.5900     78.3900
    294     -5.4560     12.1040     -4.1570      1.7700     78.3900
    295     -6.3790     12.6980     -4.3510      0.0100     78.3900
    296     -5.6470     11.5190     -3.2250      0.0100     78.3900
    297     -5.3090     11.0800     -5.3030      1.7700     78.3900
    298     -5.6610     11.5110     -6.2660      0.0100     78.3900
    299     -3.9110     10.7020     -5.4960      1.5900     78.3900
    300     -3.8200      9.3030     -5.6920      1.7700     78.3900
    301     -3.2060      9.1390     -6.6060      0.0100     78.3900
    302     -3.1790      8.6520     -4.5440      1.6800     78.3900
    303     -2.6620      7.3870     -4.5280      1.7700     78.3900
    304     -2.0560      4.3560     -6.1030      1.6800     78.3900
    305     -2.4470      4.4820     -7.0140      0.0100     78.3900
    306     -1.6570      3.4710     -5.8490      0.0100     78.3900
    307     -2.6510      6.5250     -5.5640      1.6800     78.3900
    308     -2.1210      5.3480     -5.2340      1.7700     78.3900
    309     -1.6560      5.0650     -3.9790      1.6800     78.3900
    310     -1.1940      4.1820     -3.8220      0.0100     78.3900
    311     -1.6620      5.9300     -2.8930      1.7700     78.3900
    312     -1.2510      5.5750     -1.7890      1.5900     78.3900
    313     -2.2040      7.1940     -3.2400      1.7700     78.3900
    314     -2.4110      8.3300     -2.4620      1.6800     78.3900
    315     -2.9920      9.1720     -3.2800      1.7700     78.3900
    316     -3.2980     10.1920     -3.0260      0.0100     78.3900
    317     -5.2260      8.7860     -5.9190      1.7700     78.3900
    318     -5.3520      7.7320     -5.5890      0.0100     78.3900
    319     -5.5770      8.9020     -7.2880      1.5900     78.3900
    320     -6.5210      8.7080     -7.3680      0.0100     78.3900
    321     -6.0310      9.7420     -5.0550      1.7700     78.3900
    322     -5.8750      9.4930     -3.9770      0.0100     78.3900
    323     -7.4240      9.8490     -5.4240      1.5900     78.3900
    324     -8.5340      9.2000     -4.5130      2.1000     78.3900
    325     -8.2100      9.4430     -3.0930      1.5900     78.3900
    326     -9.8690      9.6430     -4.9710      1.5900     78.3900
    327     -8.3700      7.6570     -4.8030      1.5900     78.3900
    328     -8.7020      7.1120     -6.1020      1.7700     78.3900
    329     -8.1340      7.6220     -6.9140      0.0100     78.3900
    330     -9.7900      7.2460     -6.3100      0.0100     78.3900
[...]
   302   10   7.0   1.51    3.0    0.005077   -0.794496   -0.803458
   303   10   6.0   1.87    3.3    0.008008    0.691252    0.696921
   304   10   7.0  13.29   26.0   -0.097457   -0.979395   -1.046064
   305   10   1.0   0.00    0.0    0.000000    0.442749    0.438614
   306   10   1.0   0.00    0.0    0.000000    0.478920    0.514196
   307   10   7.0   7.26   14.2    0.101136   -0.764825   -0.766017
   308   10   6.0   0.62    1.1    0.003757    0.964796    0.968409
   309   10   7.0   0.00    0.0    0.000200   -0.923717   -1.011886
   310   10   1.0   0.00    0.0    0.000000    0.489668    0.544662
   311   10   6.0   0.00    0.0    0.000005    0.829517    0.864338
   312   10   8.0   1.10    2.4    0.056146   -0.683705   -0.700161
   313   10   6.0   0.43    0.8    0.006923   -0.038864   -0.038268
   314   10   7.0   5.55   10.9    0.124903   -0.573875   -0.585636
   315   10   6.0   3.55    6.3    0.018207    0.235758    0.238560
   316   10   1.0   0.00    0.0    0.000000    0.286666    0.293101
   317   10   6.0   1.00    1.8    0.009150    0.141703    0.119489
   318   10   1.0   0.00    0.0    0.000000    0.193979    0.219716
   319   10   8.0  17.57   38.4    0.068915   -0.826785   -0.840453
   320   10   1.0   0.00    0.0    0.000000    0.493559    0.514420
   321   10   6.0   1.40    2.5   -0.036715    0.133981    0.094049
   322   10   1.0   0.00    0.0    0.000000    0.240065    0.242846
   323   10   8.0   3.99    8.7    0.052103   -0.798348   -0.801206
   324   10  15.0   8.21   10.3    0.122898    1.609824    1.657364
   325   10   8.0  15.38   33.6    0.324486   -0.895886   -0.892314
   326   10   8.0  17.62   38.5    0.351465   -0.890704   -0.884909
   327   10   8.0   1.42    3.1    0.026677   -0.977118   -0.789410
   328   11   6.0  10.79   19.0   -0.076523    0.195425   -0.011403
   329   11   1.0   0.00    0.0    0.000000    0.169347    0.170250
   330   11   1.0   0.00    0.0    0.000000    0.240244    0.222765
   331   11   6.0   6.69   11.8   -0.047231    0.092708    0.147163
   332   11   1.0   0.00    0.0    0.000000    0.251171    0.223231
   333   11   8.0   5.47   12.0    0.055915   -0.729363   -0.735249
   334   11   6.0   3.82    6.7   -0.046581    0.409437    0.410759
   335   11   1.0   0.00    0.0    0.000000    0.263566    0.255176
   336   11   7.0   0.00    0.0    0.000000   -0.830841   -0.837396
   337   11   6.0   1.98    3.5   -0.000444    0.190545    0.173722
   338   11   1.0   0.00    0.0    0.000000    0.303394    0.324644
   339   11   6.0   2.04    3.6   -0.011519    1.113466    1.114828
   340   11   8.0  13.21   28.9    0.176861   -0.691242   -0.702857
   341   11   7.0   2.56    5.0    0.009274   -0.930052   -1.012060
   342   11   1.0   0.00    0.0    0.000000    0.487245    0.545235
   343   11   6.0   2.74    4.8   -0.008292    0.872489    0.881965
   344   11   8.0  11.39   24.9    0.169183   -0.714924   -0.707959
   345   11   6.0   7.43   13.1   -0.018629   -0.439767   -0.438334
   346   11   1.0   0.00    0.0    0.000000    0.269839    0.272468
   347   11   6.0   5.84   10.3   -0.060130    0.125123    0.125312
   348   11   1.0   0.00    0.0    0.000000    0.226870    0.225508
   349   11   8.0  20.82   45.5    0.030632   -0.842585   -0.846209
   350   11   1.0   0.00    0.0    0.000000    0.508800    0.508842
   351   11   6.0   5.73   10.1   -0.050081    0.160328    0.142894
   352   11   1.0   0.00    0.0    0.000000    0.221596    0.224819
   353   11   8.0  21.75   47.5   -0.010069   -0.846097   -0.849181
   354   11   1.0   0.00    0.0    0.000000    0.506287    0.505667

 Done with FMO properties.
 CPU     0: STEP CPU TIME=     0.00 TOTAL CPU TIME=      19743.3 (    329.1 MIN)
 TOTAL WALL CLOCK TIME=      45608.3 SECONDS, CPU UTILIZATION IS    43.29%
 CPU     0: STEP CPU TIME=     0.00 TOTAL CPU TIME=      19743.3 (    329.1 MIN)
 TOTAL WALL CLOCK TIME=      45608.3 SECONDS, CPU UTILIZATION IS    43.29%

 Total timing statistics in pairs (CPU,wall) for each rank, sec

    Rank   total     SCF    corr     DFT    CPHF     EFP    solv     ESP    geom
 -------------------------------------------------------------------------------
       1   19743.3   5454.4   7598.5      0.0    0.0   0.0  164.4  6185.7    0.0
       1   45608.4  11290.3  20644.4      0.0    0.0   0.0  411.2 12436.8    0.0
       2   19709.2   5422.9   7610.7      0.0    0.0   0.0  165.9  6172.9    0.0
       2   45608.4  11265.3  20650.3      0.0    0.0   0.0  411.0 12435.8    0.0
       3   19571.2   5426.6   7466.7      0.0    0.0   0.0  166.5  6175.2    0.0
       3   45608.4  11264.9  20650.3      0.0    0.0   0.0  411.4 12435.8    0.0
       4   19677.8   5415.1   7595.4      0.0    0.0   0.0  164.3  6167.0    0.0
       4   45608.4  11265.0  20650.3      0.0    0.0   0.0  410.3 12435.6    0.0
       5   19765.8   5432.5   7640.0      0.0    0.0   0.0  164.6  6191.0    0.0
       5   45608.4  11266.0  20650.3      0.0    0.0   0.0  410.7 12436.2    0.0
       6   19666.9   5416.7   7572.9      0.0    0.0   0.0  163.6  6178.6    0.0
       6   45608.4  11266.2  20650.2      0.0    0.0   0.0  409.5 12436.3    0.0
       7   19679.5   5427.3   7583.4      0.0    0.0   0.0  164.4  6169.1    0.0
       7   45608.4  11266.4  20650.3      0.0    0.0   0.0  410.0 12436.2    0.0
       8   19594.5   5402.2   7533.1      0.0    0.0   0.0  162.7  6163.7    0.0
       8   45608.4  11266.1  20650.2      0.0    0.0   0.0  408.8 12436.2    0.0
       9   19702.3   5428.4   7582.5      0.0    0.0   0.0  163.8  6190.7    0.0
       9   45608.4  11265.4  20650.3      0.0    0.0   0.0  410.7 12436.5    0.0
      10   19733.0   5410.3   7650.4      0.0    0.0   0.0  164.5  6174.7    0.0
      10   45608.4  11265.7  20650.2      0.0    0.0   0.0  409.5 12436.5    0.0
      11   19619.7   5411.6   7538.6      0.0    0.0   0.0  163.5  6171.4    0.0
      11   45608.4  11266.3  20650.2      0.0    0.0   0.0  409.6 12436.5    0.0
      12   19598.9   5395.1   7540.7      0.0    0.0   0.0  162.6  6168.7    0.0
      12   45608.4  11265.8  20650.2      0.0    0.0   0.0  408.7 12436.5    0.0
      13   19650.1   5413.9   7576.4      0.0    0.0   0.0  162.2  6163.8    0.0
      13   45608.4  11266.2  20650.2      0.0    0.0   0.0  409.5 12436.5    0.0
      14   19647.5   5401.3   7592.1      0.0    0.0   0.0  162.5  6159.6    0.0
      14   45608.4  11265.7  20650.2      0.0    0.0   0.0  408.8 12436.5    0.0
      15   19672.9   5403.5   7619.8      0.0    0.0   0.0  161.8  6155.9    0.0
      15   45608.4  11265.7  20650.2      0.0    0.0   0.0  408.8 12436.5    0.0
      16   19576.0   5400.6   7529.5      0.0    0.0   0.0  162.4  6152.5    0.0
      16   45608.4  11265.9  20650.2      0.0    0.0   0.0  407.8 12436.4    0.0
averaged   19663.0   5416.4   7576.9      0.0    0.0   0.0  163.7  6171.3    0.0
averaged   45608.4  11267.3  20649.9      0.0    0.0   0.0  409.8 12436.3    0.0

  FMO  timing statistics in pairs (CPU,wall) for each rank, sec

    Rank  FMOini FMOscf1  FMOdm1 FMOsyn1 FMOscf2  FMOes2 FMOsyn2 FMOscf3 FMOsyn3
 -------------------------------------------------------------------------------
       1    2.2    7409.8    0.3    0.0   12092.2     238.9    0.0    0.0    0.0
       1    5.5   15129.0    5.1    0.0   29978.5     489.9    0.1    0.0    0.0
       2    1.6    7374.1    0.1    0.0   12095.1     238.3    0.0    0.0    0.0
       2    5.5   15129.0    5.1    0.0   29986.0     482.3    0.1    0.0    0.0
       3    1.8    7380.0    0.1    0.0   11951.1     238.1    0.0    0.0    0.0
       3    5.5   15129.0    5.1    0.0   29980.4     487.9    0.1    0.0    0.0
       4    1.6    7362.2    0.1    0.0   12076.1     237.7    0.0    0.0    0.0
       4    5.5   15129.0    5.1    0.0   29979.5     488.9    0.1    0.0    0.0
       5    1.9    7400.5    0.2    0.0   12124.3     238.8    0.0    0.0    0.0
       5    5.5   15129.0    5.1    0.0   29981.6     486.8    0.1    0.0    0.0
       6    1.7    7370.2    0.1    0.0   12057.1     237.8    0.0    0.0    0.0
       6    5.5   15129.0    5.1    0.0   29982.2     486.1    0.1    0.0    0.0
       7    1.8    7372.4    0.2    0.0   12067.0     238.1    0.0    0.0    0.0
       7    5.5   15129.0    5.1    0.0   29982.0     486.4    0.1    0.0    0.0
       8    1.5    7353.4    0.1    0.0   12000.9     238.5    0.0    0.0    0.0
       8    5.5   15129.0    5.1    0.0   29982.2     486.2    0.1    0.0    0.0
       9    1.9    7390.5    0.3    0.0   12070.2     239.4    0.0    0.0    0.0
       9    5.5   15129.0    5.1    0.0   29982.6     485.7    0.1    0.0    0.0
      10    1.5    7364.9    0.1    0.0   12129.1     237.3    0.0    0.0    0.0
      10    5.5   15129.0    5.1    0.0   29980.7     487.7    0.1    0.0    0.0
      11    1.7    7359.2    0.2    0.0   12021.2     237.5    0.0    0.0    0.0
      11    5.5   15129.0    5.1    0.0   29979.9     488.5    0.1    0.0    0.0
      12    1.5    7351.3    0.1    0.0   12008.5     237.6    0.0    0.0    0.0
      12    5.5   15129.0    5.1    0.0   29982.6     485.8    0.1    0.0    0.0
      13    1.8    7361.0    0.2    0.0   12049.9     237.2    0.0    0.0    0.0
      13    5.5   15129.0    5.1    0.0   29981.0     487.3    0.1    0.0    0.0
      14    1.5    7357.2    0.0    0.0   12051.5     237.2    0.0    0.0    0.0
      14    5.5   15129.0    5.1    0.0   29981.1     487.3    0.1    0.0    0.0
      15    1.6    7353.9    0.1    0.0   12079.5     237.7    0.0    0.0    0.0
      15    5.5   15129.0    5.1    0.0   29982.5     485.9    0.1    0.0    0.0
      16    1.5    7345.3    0.1    0.0   11991.5     237.6    0.0    0.0    0.0
      16    5.5   15129.0    5.1    0.0   29981.6     486.8    0.1    0.0    0.0
averaged    1.7    7369.1    0.1    0.0   12054.1     238.0    0.0    0.0    0.0
averaged    5.5   15129.0    5.1    0.0   29981.5     486.8    0.1    0.0    0.0
             62742373  WORDS OF DYNAMIC MEMORY USED
 EXECUTION OF GAMESS TERMINATED NORMALLY Sun Dec  8 08:31:03 2019
 DDI: 263640 bytes (0.3 MB / 0 MWords) used by master data server.

 ----------------------------------------
 CPU timing information for all processes
 ========================================
 0: 19298.454 + 444.902 = 19743.357
 1: 19297.852 + 411.407 = 19709.260
 2: 19161.985 + 409.220 = 19571.205
 3: 19270.973 + 406.804 = 19677.777
 4: 19343.880 + 421.926 = 19765.806
 5: 19250.34 + 416.911 = 19666.945
 6: 19256.723 + 422.751 = 19679.474
 7: 19193.144 + 401.317 = 19594.461
 8: 19264.944 + 437.338 = 19702.283
 9: 19326.125 + 406.892 = 19733.18
 10: 19213.532 + 406.194 = 19619.726
 11: 19200.560 + 398.392 = 19598.952
 12: 19218.85 + 432.56 = 19650.141
 13: 19257.273 + 390.245 = 19647.518
 14: 19262.979 + 409.917 = 19672.896
 15: 19166.330 + 409.647 = 19575.977
 ----------------------------------------
 ddikick.x: exited gracefully.
----- accounting info -----
Files used on the master node gollum090.lsa.umich.edu were:
-rw-r--r-- 1 hazwong frank    17617 Dec  7 19:50 /scratch/hazwong/826305/2LUB_4/usrc/2LUB_4_fmo_input.F05
-rw-r--r-- 1 hazwong frank      634 Dec  8 08:31 /scratch/hazwong/826305/2LUB_4/usrc/2LUB_4_fmo_input.F06.001
-rw-r--r-- 1 hazwong frank      634 Dec  8 08:31 /scratch/hazwong/826305/2LUB_4/usrc/2LUB_4_fmo_input.F06.002
-rw-r--r-- 1 hazwong frank      634 Dec  8 08:31 /scratch/hazwong/826305/2LUB_4/usrc/2LUB_4_fmo_input.F06.003
-rw-r--r-- 1 hazwong frank      634 Dec  8 08:31 /scratch/hazwong/826305/2LUB_4/usrc/2LUB_4_fmo_input.F06.004
-rw-r--r-- 1 hazwong frank      634 Dec  8 08:31 /scratch/hazwong/826305/2LUB_4/usrc/2LUB_4_fmo_input.F06.005
-rw-r--r-- 1 hazwong frank      634 Dec  8 08:31 /scratch/hazwong/826305/2LUB_4/usrc/2LUB_4_fmo_input.F06.006
-rw-r--r-- 1 hazwong frank      634 Dec  8 08:31 /scratch/hazwong/826305/2LUB_4/usrc/2LUB_4_fmo_input.F06.007
-rw-r--r-- 1 hazwong frank      634 Dec  8 08:31 /scratch/hazwong/826305/2LUB_4/usrc/2LUB_4_fmo_input.F06.008
-rw-r--r-- 1 hazwong frank      634 Dec  8 08:31 /scratch/hazwong/826305/2LUB_4/usrc/2LUB_4_fmo_input.F06.009
-rw-r--r-- 1 hazwong frank      634 Dec  8 08:31 /scratch/hazwong/826305/2LUB_4/usrc/2LUB_4_fmo_input.F06.010
-rw-r--r-- 1 hazwong frank      634 Dec  8 08:31 /scratch/hazwong/826305/2LUB_4/usrc/2LUB_4_fmo_input.F06.011
-rw-r--r-- 1 hazwong frank      634 Dec  8 08:31 /scratch/hazwong/826305/2LUB_4/usrc/2LUB_4_fmo_input.F06.012
-rw-r--r-- 1 hazwong frank      634 Dec  8 08:31 /scratch/hazwong/826305/2LUB_4/usrc/2LUB_4_fmo_input.F06.013
-rw-r--r-- 1 hazwong frank      634 Dec  8 08:31 /scratch/hazwong/826305/2LUB_4/usrc/2LUB_4_fmo_input.F06.014
-rw-r--r-- 1 hazwong frank      634 Dec  8 08:31 /scratch/hazwong/826305/2LUB_4/usrc/2LUB_4_fmo_input.F06.015
-rw-r--r-- 1 hazwong frank    10850 Dec  8 08:31 /scratch/hazwong/826305/2LUB_4/usrc/2LUB_4_fmo_input.F07
-rw-r--r-- 1 hazwong frank        0 Dec  7 19:50 /scratch/hazwong/826305/2LUB_4/usrc/2LUB_4_fmo_input.F07.001
-rw-r--r-- 1 hazwong frank        0 Dec  7 19:50 /scratch/hazwong/826305/2LUB_4/usrc/2LUB_4_fmo_input.F07.002
-rw-r--r-- 1 hazwong frank        0 Dec  7 19:50 /scratch/hazwong/826305/2LUB_4/usrc/2LUB_4_fmo_input.F07.003
-rw-r--r-- 1 hazwong frank        0 Dec  7 19:50 /scratch/hazwong/826305/2LUB_4/usrc/2LUB_4_fmo_input.F07.004
-rw-r--r-- 1 hazwong frank        0 Dec  7 19:50 /scratch/hazwong/826305/2LUB_4/usrc/2LUB_4_fmo_input.F07.005
-rw-r--r-- 1 hazwong frank        0 Dec  7 19:50 /scratch/hazwong/826305/2LUB_4/usrc/2LUB_4_fmo_input.F07.006
-rw-r--r-- 1 hazwong frank        0 Dec  7 19:50 /scratch/hazwong/826305/2LUB_4/usrc/2LUB_4_fmo_input.F07.007
-rw-r--r-- 1 hazwong frank        0 Dec  7 19:50 /scratch/hazwong/826305/2LUB_4/usrc/2LUB_4_fmo_input.F07.008
-rw-r--r-- 1 hazwong frank        0 Dec  7 19:50 /scratch/hazwong/826305/2LUB_4/usrc/2LUB_4_fmo_input.F07.009
-rw-r--r-- 1 hazwong frank        0 Dec  7 19:50 /scratch/hazwong/826305/2LUB_4/usrc/2LUB_4_fmo_input.F07.010
-rw-r--r-- 1 hazwong frank        0 Dec  7 19:50 /scratch/hazwong/826305/2LUB_4/usrc/2LUB_4_fmo_input.F07.011
-rw-r--r-- 1 hazwong frank        0 Dec  7 19:50 /scratch/hazwong/826305/2LUB_4/usrc/2LUB_4_fmo_input.F07.012
-rw-r--r-- 1 hazwong frank        0 Dec  7 19:50 /scratch/hazwong/826305/2LUB_4/usrc/2LUB_4_fmo_input.F07.013
-rw-r--r-- 1 hazwong frank        0 Dec  7 19:50 /scratch/hazwong/826305/2LUB_4/usrc/2LUB_4_fmo_input.F07.014
-rw-r--r-- 1 hazwong frank        0 Dec  7 19:50 /scratch/hazwong/826305/2LUB_4/usrc/2LUB_4_fmo_input.F07.015
-rw-r--r-- 1 hazwong frank    65440 Dec  8 08:31 /scratch/hazwong/826305/2LUB_4/usrc/2LUB_4_fmo_input.F10.000
-rw-r--r-- 1 hazwong frank        0 Dec  7 19:50 /scratch/hazwong/826305/2LUB_4/usrc/2LUB_4_fmo_input.F26.000
-rw-r--r-- 1 hazwong frank        0 Dec  7 19:50 /scratch/hazwong/826305/2LUB_4/usrc/2LUB_4_fmo_input.F26.001
-rw-r--r-- 1 hazwong frank        0 Dec  7 19:50 /scratch/hazwong/826305/2LUB_4/usrc/2LUB_4_fmo_input.F26.002
-rw-r--r-- 1 hazwong frank        0 Dec  7 19:50 /scratch/hazwong/826305/2LUB_4/usrc/2LUB_4_fmo_input.F26.003
-rw-r--r-- 1 hazwong frank        0 Dec  7 19:50 /scratch/hazwong/826305/2LUB_4/usrc/2LUB_4_fmo_input.F26.004
-rw-r--r-- 1 hazwong frank        0 Dec  7 19:50 /scratch/hazwong/826305/2LUB_4/usrc/2LUB_4_fmo_input.F26.005
-rw-r--r-- 1 hazwong frank        0 Dec  7 19:50 /scratch/hazwong/826305/2LUB_4/usrc/2LUB_4_fmo_input.F26.006
-rw-r--r-- 1 hazwong frank        0 Dec  7 19:50 /scratch/hazwong/826305/2LUB_4/usrc/2LUB_4_fmo_input.F26.007
-rw-r--r-- 1 hazwong frank        0 Dec  7 19:50 /scratch/hazwong/826305/2LUB_4/usrc/2LUB_4_fmo_input.F26.008
-rw-r--r-- 1 hazwong frank        0 Dec  7 19:50 /scratch/hazwong/826305/2LUB_4/usrc/2LUB_4_fmo_input.F26.009
-rw-r--r-- 1 hazwong frank        0 Dec  7 19:50 /scratch/hazwong/826305/2LUB_4/usrc/2LUB_4_fmo_input.F26.010
-rw-r--r-- 1 hazwong frank        0 Dec  7 19:50 /scratch/hazwong/826305/2LUB_4/usrc/2LUB_4_fmo_input.F26.011
-rw-r--r-- 1 hazwong frank        0 Dec  7 19:50 /scratch/hazwong/826305/2LUB_4/usrc/2LUB_4_fmo_input.F26.012
-rw-r--r-- 1 hazwong frank        0 Dec  7 19:50 /scratch/hazwong/826305/2LUB_4/usrc/2LUB_4_fmo_input.F26.013
-rw-r--r-- 1 hazwong frank        0 Dec  7 19:50 /scratch/hazwong/826305/2LUB_4/usrc/2LUB_4_fmo_input.F26.014
-rw-r--r-- 1 hazwong frank        0 Dec  7 19:50 /scratch/hazwong/826305/2LUB_4/usrc/2LUB_4_fmo_input.F26.015
-rw-r--r-- 1 hazwong frank        0 Dec  7 19:50 /scratch/hazwong/826305/2LUB_4/usrc/2LUB_4_fmo_input.F27.000
-rw-r--r-- 1 hazwong frank        0 Dec  7 19:50 /scratch/hazwong/826305/2LUB_4/usrc/2LUB_4_fmo_input.F27.001
-rw-r--r-- 1 hazwong frank        0 Dec  7 19:50 /scratch/hazwong/826305/2LUB_4/usrc/2LUB_4_fmo_input.F27.002
-rw-r--r-- 1 hazwong frank        0 Dec  7 19:50 /scratch/hazwong/826305/2LUB_4/usrc/2LUB_4_fmo_input.F27.003
-rw-r--r-- 1 hazwong frank        0 Dec  7 19:50 /scratch/hazwong/826305/2LUB_4/usrc/2LUB_4_fmo_input.F27.004
-rw-r--r-- 1 hazwong frank        0 Dec  7 19:50 /scratch/hazwong/826305/2LUB_4/usrc/2LUB_4_fmo_input.F27.005
-rw-r--r-- 1 hazwong frank        0 Dec  7 19:50 /scratch/hazwong/826305/2LUB_4/usrc/2LUB_4_fmo_input.F27.006
-rw-r--r-- 1 hazwong frank        0 Dec  7 19:50 /scratch/hazwong/826305/2LUB_4/usrc/2LUB_4_fmo_input.F27.007
-rw-r--r-- 1 hazwong frank        0 Dec  7 19:50 /scratch/hazwong/826305/2LUB_4/usrc/2LUB_4_fmo_input.F27.008
-rw-r--r-- 1 hazwong frank        0 Dec  7 19:50 /scratch/hazwong/826305/2LUB_4/usrc/2LUB_4_fmo_input.F27.009
-rw-r--r-- 1 hazwong frank        0 Dec  7 19:50 /scratch/hazwong/826305/2LUB_4/usrc/2LUB_4_fmo_input.F27.010
-rw-r--r-- 1 hazwong frank        0 Dec  7 19:50 /scratch/hazwong/826305/2LUB_4/usrc/2LUB_4_fmo_input.F27.011
-rw-r--r-- 1 hazwong frank        0 Dec  7 19:50 /scratch/hazwong/826305/2LUB_4/usrc/2LUB_4_fmo_input.F27.012
-rw-r--r-- 1 hazwong frank        0 Dec  7 19:50 /scratch/hazwong/826305/2LUB_4/usrc/2LUB_4_fmo_input.F27.013
-rw-r--r-- 1 hazwong frank        0 Dec  7 19:50 /scratch/hazwong/826305/2LUB_4/usrc/2LUB_4_fmo_input.F27.014
-rw-r--r-- 1 hazwong frank        0 Dec  7 19:50 /scratch/hazwong/826305/2LUB_4/usrc/2LUB_4_fmo_input.F27.015
-rw-r--r-- 1 hazwong frank 22495232 Dec  8 00:03 /scratch/hazwong/826305/2LUB_4/usrc/2LUB_4_fmo_input.F40.000
-rw-r--r-- 1 hazwong frank 22495232 Dec  8 00:03 /scratch/hazwong/826305/2LUB_4/usrc/2LUB_4_fmo_input.F40.001
-rw-r--r-- 1 hazwong frank 22495232 Dec  8 00:03 /scratch/hazwong/826305/2LUB_4/usrc/2LUB_4_fmo_input.F40.002
-rw-r--r-- 1 hazwong frank 22495232 Dec  8 00:03 /scratch/hazwong/826305/2LUB_4/usrc/2LUB_4_fmo_input.F40.003
-rw-r--r-- 1 hazwong frank 22495232 Dec  8 00:03 /scratch/hazwong/826305/2LUB_4/usrc/2LUB_4_fmo_input.F40.004
-rw-r--r-- 1 hazwong frank 22495232 Dec  8 00:03 /scratch/hazwong/826305/2LUB_4/usrc/2LUB_4_fmo_input.F40.005
-rw-r--r-- 1 hazwong frank 22495232 Dec  8 00:03 /scratch/hazwong/826305/2LUB_4/usrc/2LUB_4_fmo_input.F40.006
-rw-r--r-- 1 hazwong frank 22495232 Dec  8 00:03 /scratch/hazwong/826305/2LUB_4/usrc/2LUB_4_fmo_input.F40.007
-rw-r--r-- 1 hazwong frank 22495232 Dec  8 00:03 /scratch/hazwong/826305/2LUB_4/usrc/2LUB_4_fmo_input.F40.008
-rw-r--r-- 1 hazwong frank 22495232 Dec  8 00:03 /scratch/hazwong/826305/2LUB_4/usrc/2LUB_4_fmo_input.F40.009
-rw-r--r-- 1 hazwong frank 22495232 Dec  8 00:03 /scratch/hazwong/826305/2LUB_4/usrc/2LUB_4_fmo_input.F40.010
-rw-r--r-- 1 hazwong frank 22495232 Dec  8 00:03 /scratch/hazwong/826305/2LUB_4/usrc/2LUB_4_fmo_input.F40.011
-rw-r--r-- 1 hazwong frank 22495232 Dec  8 00:03 /scratch/hazwong/826305/2LUB_4/usrc/2LUB_4_fmo_input.F40.012
-rw-r--r-- 1 hazwong frank 22495232 Dec  8 00:03 /scratch/hazwong/826305/2LUB_4/usrc/2LUB_4_fmo_input.F40.013
-rw-r--r-- 1 hazwong frank 22495232 Dec  8 00:03 /scratch/hazwong/826305/2LUB_4/usrc/2LUB_4_fmo_input.F40.014
-rw-r--r-- 1 hazwong frank 22495232 Dec  8 00:03 /scratch/hazwong/826305/2LUB_4/usrc/2LUB_4_fmo_input.F40.015
Sun Dec  8 08:31:06 EST 2019
0.187u 0.078s 12:40:11.83 0.0%	0+0k 1200+144io 18pf+0w
