----- GAMESS execution script 'rungms' -----
This job is running on host gollum075.lsa.umich.edu
under operating system Linux at Sat Dec 7 20:53:54 EST 2019
Available scratch disk space (Kbyte units) at beginning of the job is
Filesystem     1K-blocks   Used Available Use% Mounted on
/dev/sda4      426933580 772732 426160848   1% /scratch
GAMESS temporary binary files will be written to /scratch/hazwong/824329/2LUB_6/usrc
GAMESS supplementary output files will be written to /scratch/hazwong/824329/2LUB_6/src
Copying input file 2LUB_6_fmo_input.inp to your run's scratch directory...
This is a GDDI run, keeping various output files on local disks
 
Assuming a single but multicore node.
 

 Distributed Data Interface kickoff program.
 Initiating 16 compute processes on 1 nodes to run the following command:
 /export/apps/CentOS7/gamess/src/build//gamess.R3.x 2LUB_6_fmo_input 

          ******************************************************
          *         GAMESS VERSION = 30 SEP 2018 (R3)         *
          *             FROM IOWA STATE UNIVERSITY             *
          * M.W.SCHMIDT, K.K.BALDRIDGE, J.A.BOATZ, S.T.ELBERT, *
          *   M.S.GORDON, J.H.JENSEN, S.KOSEKI, N.MATSUNAGA,   *
          *          K.A.NGUYEN, S.J.SU, T.L.WINDUS,           *
          *       TOGETHER WITH M.DUPUIS, J.A.MONTGOMERY       *
          *         J.COMPUT.CHEM.  14, 1347-1363(1993)        *
          **************** 64 BIT LINUX VERSION ****************

  SINCE 1993, STUDENTS AND POSTDOCS WORKING AT IOWA STATE UNIVERSITY
  AND ALSO IN THEIR VARIOUS JOBS AFTER LEAVING ISU HAVE MADE IMPORTANT
  CONTRIBUTIONS TO THE CODE:
     IVANA ADAMOVIC, CHRISTINE AIKENS, YURI ALEXEEV, POOJA ARORA,
     ANDREY ASADCHEV, ROB BELL, PRADIPTA BANDYOPADHYAY, JONATHAN BENTZ,
     BRETT BODE, KURT BRORSEN, CALEB CARLIN, GALINA CHABAN, WEI CHEN,
     CHEOL HO CHOI, PAUL DAY, ALBERT DEFUSCO, NUWAN DESILVA, TIM DUDLEY,
     DMITRI FEDOROV, ALEX FINDLATER, GRAHAM FLETCHER, MARK FREITAG,
     KURT GLAESEMANN, ANASTASIA GUNINA,
     DAN KEMP, GRANT MERRILL, NORIYUKI MINEZAWA, JONATHAN MULLIN,
     TAKESHI NAGATA, SEAN NEDD, HEATHER NETZLOFF, BOSILJKA NJEGIC, RYAN OLSON,
     MIKE PAK, BUU PHAM,
     SPENCER PRUITT, LUKE ROSKOP, JIM SHOEMAKER, LYUDMILA SLIPCHENKO,
     TONY SMITH, SAROM SOK LEANG, JIE SONG, TETSUYA TAKETSUGU, SIMON WEBB,
     PENG XU, SOOHAENG YOO, FEDERICO ZAHARIEV

  ADDITIONAL CODE HAS BEEN PROVIDED BY COLLABORATORS IN OTHER GROUPS:
     IOWA STATE UNIVERSITY:
          JOE IVANIC, AARON WEST, LAIMUTIS BYTAUTAS, KLAUS RUEDENBERG
     UNIVERSITY OF TOKYO: KIMIHIKO HIRAO, TAKAHITO NAKAJIMA,
          TAKAO TSUNEDA, MUNEAKI KAMIYA, SUSUMU YANAGISAWA,
          KIYOSHI YAGI, MAHITO CHIBA, SEIKEN TOKURA, NAOAKI KAWAKAMI
     UNIVERSITY OF AARHUS: FRANK JENSEN
     UNIVERSITY OF IOWA: VISVALDAS KAIRYS, HUI LI
     NATIONAL INST. OF STANDARDS AND TECHNOLOGY: WALT STEVENS, DAVID GARMER
     UNIVERSITY OF PISA: BENEDETTA MENNUCCI, JACOPO TOMASI
     UNIVERSITY OF MEMPHIS: HENRY KURTZ, PRAKASHAN KORAMBATH
     UNIVERSITY OF ALBERTA: TOBY ZENG, MARIUSZ KLOBUKOWSKI
     UNIVERSITY OF NEW ENGLAND: MARK SPACKMAN
     MIE UNIVERSITY: HIROAKI UMEDA
     NAT. INST. OF ADVANCED INDUSTRIAL SCIENCE AND TECHNOLOGY: KAZUO KITAURA
     MICHIGAN STATE UNIVERSITY:
          KAROL KOWALSKI, MARTA WLOCH, JEFFREY GOUR, JESSE LUTZ,
          WEI LI, JUN SHEN, J. EMILIANO DEUSTUA, PIOTR PIECUCH
     UNIVERSITY OF MINNESOTA:
          YINAN SHU
     UNIVERSITY OF SILESIA: MONIKA MUSIAL, STANISLAW KUCHARSKI
     FACULTES UNIVERSITAIRES NOTRE-DAME DE LA PAIX:
          OLIVIER QUINET, BENOIT CHAMPAGNE
     UNIVERSITY OF CALIFORNIA - SANTA BARBARA: BERNARD KIRTMAN
     INSTITUTE FOR MOLECULAR SCIENCE:
          KAZUYA ISHIMURA, MICHIO KATOUDA, AND SHIGERU NAGASE
     UNIVERSITY OF NOTRE DAME: ANNA POMOGAEVA, DAN CHIPMAN
     KYUSHU UNIVERSITY:
          HARUYUKI NAKANO,
          FENG LONG GU, JACEK KORCHOWIEC, MARCIN MAKOWSKI, AND YURIKO AOKI,
          HIROTOSHI MORI AND EISAKU MIYOSHI
     PENNSYLVANIA STATE UNIVERSITY:
          TZVETELIN IORDANOV, CHET SWALINA, JONATHAN SKONE,
          SHARON HAMMES-SCHIFFER
     WASEDA UNIVERSITY:
          MASATO KOBAYASHI, TOMOKO AKAMA, TSUGUKI TOUMA,
          TAKESHI YOSHIKAWA, YASUHIRO IKABATA, JUNJI SEINO,
          YUYA NAKAJIMA, HIROMI NAKAI
     NANJING UNIVERSITY: SHUHUA LI
     UNIVERSITY OF NEBRASKA:
          PEIFENG SU, DEJUN SI, NANDUN THELLAMUREGE, YALI WANG, HUI LI
     UNIVERSITY OF ZURICH: ROBERTO PEVERATI, KIM BALDRIDGE
     N. COPERNICUS UNIVERSITY AND JACKSON STATE UNIVERSITY:
          MARIA BARYSZ
     UNIVERSITY OF COPENHAGEN: Jimmy Kromann, CASPER STEINMANN
     TOKYO INSTITUTE OF TECHNOLOGY: HIROYA NAKATA
     NAGOYA UNIVERSITY: YOSHIO NISHIMOTO, STEPHAN IRLE
     MOSCOW STATE UNIVERSITY: VLADIMIR MIRONOV


 PARALLEL VERSION RUNNING ON       16 PROCESSORS IN        1 NODES.

 EXECUTION OF GAMESS BEGUN Sat Dec  7 20:53:55 2019

            ECHO OF THE FIRST FEW INPUT CARDS -
 INPUT CARD>!*** FMO 5.3 (Gamess) INPUT generated by Facio 22.1.1.32 ***                    
 INPUT CARD> $CONTRL RUNTYP=ENERGY NPRINT=-5 ISPHER=1 MAXIT=200 $END                        
 INPUT CARD> $SYSTEM MWORDS=63 MEMDDI=63 $END                                               
 INPUT CARD> $GDDI NGROUP=1 $END                                                            
 INPUT CARD> $SCF DIRSCF=.TRUE. NPUNCH=0 $END                                               
 INPUT CARD>!*** NumCPU : 2  MemPerNode : 512MB                                             
 INPUT CARD> $PCM SOLVNT=WATER IEF=-10 ICOMP=2 ICAV=1 IDISP=1 IFMO=-1 $END                  
 INPUT CARD> $PCMCAV RADII=SUAHF $END                                                       
 INPUT CARD> $TESCAV NTSALL=60 $END                                                         
 INPUT CARD> $FMOPRP                                                                        
 INPUT CARD>    NAODIR=200                                                                  
 INPUT CARD>    NGRFMO(1)=1, 1, 0, 0, 0,   0, 0, 0, 0, 0                                    
 INPUT CARD>    IPIEDA=1                                                                    
 INPUT CARD>    NPRINT=9                                                                    
 INPUT CARD> $END                                                                           
 INPUT CARD> $FMO                                                                           
 INPUT CARD>      SCFTYP(1)=RHF                                                             
 INPUT CARD>      MODGRD=10                                                                 
 INPUT CARD>      MODMUL=0                                                                  
 INPUT CARD>      MAXCAO=5                                                                  
 INPUT CARD>      MAXBND=13                                                                 
 INPUT CARD>      NLAYER=1                                                                  
 INPUT CARD>      MPLEVL(1)=2                                                               
 INPUT CARD>      NFRAG=11                                                                  
 INPUT CARD>      ICHARG(1)=-1, -1, -1, -1, 0, -1, -1, -1, -1, -1, 0                        
 INPUT CARD>      FRGNAM(1)=F1, F2, F3, F4, F5, F6, F7, F8, F9, F10, F11                    
 INPUT CARD>      indat(1)=0                                                                
 INPUT CARD>               1   -35   0                                                      
 INPUT CARD>               36   -66   0                                                     
 INPUT CARD>               67   -100   0                                                    
 INPUT CARD>               101   -134   0                                                   
 INPUT CARD>               135   -166   0                                                   
 INPUT CARD>               167   -196   0                                                   
 INPUT CARD>               197   -227   0                                                   
 INPUT CARD>               228   -260   0                                                   
 INPUT CARD>               261   -293   0                                                   
 INPUT CARD>               294   -327   0                                                   
 INPUT CARD>               328   -354   0                                                   
 INPUT CARD> $END                                                                           
 INPUT CARD>                                                                                
 INPUT CARD> $FMOBND                                                                        
 INPUT CARD>   -36   35       6-31G*    MINI                                                
 INPUT CARD>   -67   66       6-31G*    MINI                                                
 INPUT CARD>   -101   100       6-31G*    MINI                                              
 INPUT CARD>   -135   134       6-31G*    MINI                                              
 INPUT CARD>   -167   166       6-31G*    MINI                                              
 INPUT CARD>   -197   196       6-31G*    MINI                                              
 INPUT CARD>   -228   227       6-31G*    MINI                                              
 INPUT CARD>   -261   260       6-31G*    MINI                                              
 INPUT CARD>   -294   293       6-31G*    MINI                                              


 -------------------------------------------------------------
 GROUP DDI, PROGRAMMED BY: RYAN M. OLSON AND DMITRI G. FEDOROV
        FEDOROV ET AL., J. COMPUT. CHEM., 25 (2004) 872.
 -------------------------------------------------------------

 -------------------------------------------------------
 GDDI: INITIALIZATION COMPLETED FOR GROUP     1 OF     1
 WITH    16 PROCESSES BALTYP=DLB   global rank=        0
 -------------------------------------------------------

   63000000 WORDS OF MEMORY AVAILABLE


     RUN TITLE
     ---------
  FMO calculation                                                                

 THE POINT GROUP OF THE MOLECULE IS C1      
 THE ORDER OF THE PRINCIPAL AXIS IS     0

 ATOM   ATOMIC CHARGE
 H.1-1       1.0
 O.1-1       8.0
 C.1-1       6.0
 N.1-1       7.0
 P.1-1      15.0

     ATOMIC BASIS SET LIBRARY
     ----------------
 THE CONTRACTED PRIMITIVE FUNCTIONS HAVE BEEN UNNORMALIZED
 THE CONTRACTED BASIS FUNCTIONS ARE NOW NORMALIZED TO UNITY

  SHELL TYPE  PRIMITIVE        EXPONENT          CONTRACTION COEFFICIENT(S)

 H.1-1     

      1   S       1            18.7311370    0.033494604338
      1   S       2             2.8253944    0.234726953484
      1   S       3             0.6401217    0.813757326146

      2   S       4             0.1612778    1.000000000000

 O.1-1     

      3   S       5          5484.6716600    0.001831074430
      3   S       6           825.2349460    0.013950172200
      3   S       7           188.0469580    0.068445078098
      3   S       8            52.9645000    0.232714335992
      3   S       9            16.8975704    0.470192897984
      3   S      10             5.7996353    0.358520852987

      4   L      11            15.5396162   -0.110777549525    0.070874268231
      4   L      12             3.5999336   -0.148026262701    0.339752839147
      4   L      13             1.0137618    1.130767015354    0.727158577316

      5   L      14             0.2700058    1.000000000000    1.000000000000

      6   D      15             0.8000000    1.000000000000

 C.1-1     

      7   S      16          3047.5248800    0.001834737132
      7   S      17           457.3695180    0.014037322813
      7   S      18           103.9486850    0.068842622264
      7   S      19            29.2101553    0.232184443216
      7   S      20             9.2866630    0.467941348435
      7   S      21             3.1639270    0.362311985337

      8   L      22             7.8682723   -0.119332419775    0.068999066591
      8   L      23             1.8812885   -0.160854151696    0.316423960957
      8   L      24             0.5442493    1.143456437840    0.744308290898

      9   L      25             0.1687145    1.000000000000    1.000000000000

     10   D      26             0.8000000    1.000000000000

 N.1-1     

     11   S      27          4173.5114600    0.001834772160
     11   S      28           627.4579110    0.013994627002
     11   S      29           142.9020930    0.068586551812
     11   S      30            40.2343293    0.232240873040
     11   S      31            12.8202129    0.469069948082
     11   S      32             4.3904370    0.360455199063

     12   L      33            11.6263619   -0.114961181702    0.067579743878
     12   L      34             2.7162798   -0.169117478561    0.323907295893
     12   L      35             0.7722184    1.145851947027    0.740895139755

     13   L      36             0.2120315    1.000000000000    1.000000000000

     14   D      37             0.8000000    1.000000000000

 P.1-1     

     15   S      38         19413.3000000    0.001851598923
     15   S      39          2909.4200000    0.014206191735
     15   S      40           661.3640000    0.069999459277
     15   S      41           185.7590000    0.240078860331
     15   S      42            59.1943000    0.484761717984
     15   S      43            20.0310000    0.335199804993

     16   L      44           339.4780000   -0.002782170105    0.004564616191
     16   L      45            81.0101000   -0.036049901354    0.033693571881
     16   L      46            25.8780000   -0.116631004382    0.139754883368
     16   L      47             9.4522100    0.096832803638    0.339361716786
     16   L      48             3.6656600    0.614418023082    0.450920623685
     16   L      49             1.4674600    0.403798015170    0.238585800889

     17   L      50             2.1562300   -0.252924113863   -0.017765312733
     17   L      51             0.7489970    0.032851844678    0.274058196433
     17   L      52             0.2831450    1.081254761783    0.785421562957

     18   L      53             0.0998317    1.000000000000    1.000000000000

     19   D      54             0.5500000    1.000000000000

 TOTAL NUMBER OF BASIS SET SHELLS             =   19
 NUMBER OF CARTESIAN GAUSSIAN BASIS FUNCTIONS =   66

     $CONTRL OPTIONS
     ---------------
 SCFTYP=RHF          RUNTYP=ENERGY       EXETYP=RUN     
 MPLEVL=       0     CITYP =NONE         CCTYP =NONE         VBTYP =NONE    
 DFTTYP=NONE         TDDFT =NONE    
 MULT  =       1     ICHARG=       0     NZVAR =       0     COORD =UNIQUE  
 PP    =NONE         RELWFN=NONE         LOCAL =NONE         NUMGRD=       F
 ISPHER=       1     NOSYM =       0     MAXIT =     200     UNITS =ANGS    
 PLTORB=       F     MOLPLT=       F     AIMPAC=       F     FRIEND=        
 NPRINT=      -5     IREST =       0     GEOM  =INPUT   
 NORMF =       0     NORMP =       0     ITOL  =      24     ICUT  =      12
 INTTYP=BEST         GRDTYP=BEST         QMTTOL= 1.0E-06

     $SYSTEM OPTIONS
     ---------------
  REPLICATED MEMORY=    63000000 WORDS (ON EVERY NODE).
 DISTRIBUTED MEMDDI=          63 MILLION WORDS IN AGGREGATE,
 MEMDDI DISTRIBUTED OVER  16 PROCESSORS IS     3937500 WORDS/PROCESSOR.
 TOTAL MEMORY REQUESTED ON EACH PROCESSOR=    66937500 WORDS.
 TIMLIM=      525600.00 MINUTES, OR     365.0 DAYS.
 PARALL= T  BALTYP=  DLB     KDIAG=    0  COREFL= F
 MXSEQ2=     300 MXSEQ3=     150  mem10=         0

 ** LOOKING UP INTERNALLY STORED DATA FOR SOLVENT=WATER    **
 OPTICAL AND PHYSICAL CONSTANTS:
 EPS= 78.390; EPSINF=  1.776; RSOLV=  1.385 A; VMOL=  18.070 ML/MOL;
 TCE= .25700E-03 1/K; STEN= 71.810 DYN/CM;  DSTEN=  0.6500; CMF=  1.2770


     -----------------------------------
     INPUT FOR PCM SOLVATION CALCULATION 
     -----------------------------------
     IEF   =     -10
     ICOMP =       2     IFIELD=       0     ICAV  =       1
     IDISP =       1     IREP  =       0     IDP   =       0

     SOLVNT=WATER        EPS   = 78.3900     EPSINF=  1.7760
     VMOL  = 18.0700     TCE   =  0.00025700 STEN  = 71.8100
     DSTEN =  0.6500     CMF   =  1.2770     RSOLV =  1.3850

     NESFP =       0
     OMEGA = 40.0000     RET   =100.0000     FRO   =  0.7000

     TABS  =298.0000     IPRINT=       0

     --------------------------------
     INPUT FOR ITERATIVE C-PCM METHOD 
     --------------------------------
     IPCMIT  =         1     MXDIIS  =        50
     MXITR1  =       200     MXITR2  =       200
     THRES   = 0.100E-09     IMUL    =         3
     RCUT(1) =   20.0000     RCUT(2) =   50.0000

     IDIRCT  =         1
     IMGABI  =         0     RABI    =    4.0000
     IMGASC  =         0     RASC    =   20.0000
     THRSLS  = 0.500E-03     DENSLS  =    0.0100
     IEFPOL  =         1     REFPOL  =    0.0000

     INPUT FOR ISOTROPIC DIELECTRICS
     -------------------------------
     EPS=    78.39

          ----------------
          PROPERTIES INPUT
          ----------------

     MOMENTS            FIELD           POTENTIAL          DENSITY
 IEMOM =       1   IEFLD =       0   IEPOT =       0   IEDEN =       0
 WHERE =COMASS     WHERE =NUCLEI     WHERE =NUCLEI     WHERE =NUCLEI  
 OUTPUT=BOTH       OUTPUT=BOTH       OUTPUT=NONE       OUTPUT=BOTH    
 IEMINT=       0   IEFINT=       0                     IEDINT=       0
                                                       MORB  =       0
          EXTRAPOLATION IN EFFECT
          SOSCF IN EFFECT
 ORBITAL PRINTING OPTION: NPREO=     1 32767     2     1

     -------------------------------
     INTEGRAL TRANSFORMATION OPTIONS
     -------------------------------
     NWORD  =            0
     CUTOFF = 1.0E-10     MPTRAN =       0
     DIRTRF =       T     AOINTS =DUP     

          ----------------------
          INTEGRAL INPUT OPTIONS
          ----------------------
 NOPK  =       1 NORDER=       0 SCHWRZ=       T

 ..... DONE SETTING UP THE RUN .....
 CPU     0: STEP CPU TIME=     0.04 TOTAL CPU TIME=          0.0 (      0.0 MIN)
 TOTAL WALL CLOCK TIME=          0.1 SECONDS, CPU UTILIZATION IS    57.14%
 CPU     0: STEP CPU TIME=     0.00 TOTAL CPU TIME=          0.0 (      0.0 MIN)
 TOTAL WALL CLOCK TIME=          0.1 SECONDS, CPU UTILIZATION IS    57.14%

                    ----------------------
                    AO INTEGRAL TECHNOLOGY
                    ----------------------
     S,P,L SHELL ROTATED AXIS INTEGRALS, REPROGRAMMED BY
        KAZUYA ISHIMURA (IMS) AND JOSE SIERRA (SYNSTAR).
     S,P,D,L SHELL ROTATED AXIS INTEGRALS PROGRAMMED BY
        KAZUYA ISHIMURA (INSTITUTE FOR MOLECULAR SCIENCE).
     S,P,D,F,G SHELL TO TOTAL QUARTET ANGULAR MOMENTUM SUM 5,
        ERIC PROGRAM BY GRAHAM FLETCHER (ELORET AND NASA ADVANCED
        SUPERCOMPUTING DIVISION, AMES RESEARCH CENTER).
     S,P,D,F,G,L SHELL GENERAL RYS QUADRATURE PROGRAMMED BY
        MICHEL DUPUIS (PACIFIC NORTHWEST NATIONAL LABORATORY).
 Setting modorb=1 flag...
 Setting modorb=1 flag...

          -----------------------
          MP2 CONTROL INFORMATION
          -----------------------
          NACORE =        8  NBCORE =        8
          LMOMP2 =        F  AOINTS = DUP     
          METHOD =        2  NWORD  =               0
          MP2PRP =        F  OSPT   = NONE    
          CUTOFF = 1.00E-12  CPHFBS = BASISAO 
          CODE   = IMS     

          NUMBER OF CORE -A-  ORBITALS =     8
          NUMBER OF CORE -B-  ORBITALS =     8
          NUMBER OF OCC. -A-  ORBITALS =    18
          NUMBER OF OCC. -B-  ORBITALS =    18
          NUMBER OF MOLECULAR ORBITALS =    66
          NUMBER OF   BASIS  FUNCTIONS =    66

 CPU     0: STEP CPU TIME=     0.03 TOTAL CPU TIME=          0.1 (      0.0 MIN)
 TOTAL WALL CLOCK TIME=          0.1 SECONDS, CPU UTILIZATION IS    63.64%
 CPU     0: STEP CPU TIME=     0.00 TOTAL CPU TIME=          0.1 (      0.0 MIN)
 TOTAL WALL CLOCK TIME=          0.1 SECONDS, CPU UTILIZATION IS    63.64%

     INPUT FOR CAVITY DEFINITION 
     ---------------------------
   ATOM               COORDINATES                RADIUS       EPS
      1     -2.2320     -7.1800      0.4900      0.0100     78.3900
      2     -2.5930     -6.7100     -0.2820      1.5900     78.3900
      3     -2.3460     -7.5420     -1.4280      1.7700     78.3900
      4     -2.7510     -8.5590     -1.2260      0.0100     78.3900
      5     -1.2450     -7.6410     -1.5630      0.0100     78.3900
      6     -2.9610     -7.0330     -2.7480      1.7700     78.3900
      7     -3.2100     -7.8850     -3.4170      0.0100     78.3900
      8     -4.1950     -6.2970     -2.5140      1.5900     78.3900
      9     -4.2680     -5.1910     -3.3930      1.7700     78.3900
     10     -5.1900     -5.3490     -3.9970      0.0100     78.3900
     11     -4.4140     -3.9290     -2.6570      1.6800     78.3900
     12     -4.8080     -1.8310     -2.1210      1.7700     78.3900
     13     -4.6760     -2.5160     -0.9200      1.6800     78.3900
     14     -4.4530     -3.7560     -1.2910      1.7700     78.3900
     15     -4.3000     -4.5980     -0.6100      0.0100     78.3900
     16     -5.1480     -0.1280     -3.7200      1.6800     78.3900
     17     -4.9370     -1.0600     -4.6550      1.7700     78.3900
     18     -4.9760     -0.7110     -5.6940      0.0100     78.3900
     19     -4.6990     -2.3650     -4.5010      1.6800     78.3900
     20     -4.6510     -2.6900     -3.1980      1.7700     78.3900
     21     -5.0920     -0.4820     -2.4140      1.7700     78.3900
     22     -5.3040      0.4590     -1.4720      1.6800     78.3900
     23     -5.3140      0.2300     -0.4960      0.0100     78.3900
     24     -5.5180      1.4060     -1.7220      0.0100     78.3900
     25     -3.0580     -5.2280     -4.3180      1.7700     78.3900
     26     -2.6390     -4.2190     -4.5120      0.0100     78.3900
     27     -3.4090     -5.8260     -5.5510      1.5900     78.3900
     28     -2.5860     -5.9390     -6.0460      0.0100     78.3900
     29     -2.0580     -6.0790     -3.5390      1.7700     78.3900
     30     -1.5410     -5.4500     -2.7760      0.0100     78.3900
     31     -1.1450     -6.8400     -4.3680      1.5900     78.3900
     32      0.3440     -6.3900     -4.5710      2.1000     78.3900
     33      1.0360     -7.3980     -5.4080      1.5900     78.3900
     34      0.9270     -6.1540     -3.2330      1.5900     78.3900
     35      0.2510     -5.0260     -5.3480      1.5900     78.3900
     36      0.2030     -5.0190     -6.7990      1.7700     78.3900
     37     -0.3870     -5.8780     -7.2000      0.0100     78.3900
     38      1.2350     -5.1230     -7.2060      0.0100     78.3900
     39     -0.3870     -3.7160     -7.3880      1.7700     78.3900
     40     -0.9190     -3.9230     -8.3440      0.0100     78.3900
     41     -1.3530     -3.1210     -6.4930      1.5900     78.3900
     42     -1.3520     -1.7110     -6.6460      1.7700     78.3900
     43     -2.2940     -1.5060     -7.2030      0.0100     78.3900
     44     -1.4270     -0.9670     -5.3570      1.6800     78.3900
     45     -1.3540     -1.6600     -4.1660      1.7700     78.3900
     46     -1.1660     -2.7340     -4.2440      0.0100     78.3900
     47     -1.4920     -1.0410     -2.9880      1.7700     78.3900
     48     -1.4510     -1.5740     -2.0390      0.0100     78.3900
     49     -1.6610      0.4120     -5.3410      1.7700     78.3900
     50     -1.7770      1.0340     -6.4100      1.5900     78.3900
     51     -1.7540      1.0520     -4.1550      1.6800     78.3900
     52     -1.7150      0.3620     -3.0030      1.7700     78.3900
     53     -1.9040      1.0090     -1.8570      1.6800     78.3900
     54     -2.0990      1.9940     -1.8740      0.0100     78.3900
     55     -1.8880      0.5420     -0.9710      0.0100     78.3900
     56     -0.1690     -1.3180     -7.5250      1.7700     78.3900
     57      0.4570     -0.5250     -7.0610      0.0100     78.3900
     58     -0.6370     -0.8750     -8.7860      1.5900     78.3900
     59      0.1430     -0.6720     -9.3210      0.0100     78.3900
     60      0.6410     -2.6180     -7.6490      1.7700     78.3900
     61      1.3750     -2.6880     -6.8150      0.0100     78.3900
     62      1.2640     -2.8420     -8.9300      1.5900     78.3900
     63      2.6230     -2.1910     -9.3570      2.1000     78.3900
     64      2.5300     -1.7850    -10.7830      1.5900     78.3900
     65      3.7020     -3.1450     -9.0030      1.5900     78.3900
     66      2.7560     -0.9140     -8.4500      1.5900     78.3900
     67      3.9440     -0.0950     -8.4520      1.7700     78.3900
     68      4.6720     -0.3710     -9.2540      0.0100     78.3900
     69      4.4660     -0.2330     -7.4800      0.0100     78.3900
     70      3.6160      1.3940     -8.5940      1.7700     78.3900
     71      3.1990      1.6000     -9.6020      0.0100     78.3900
     72      2.6090      1.8000     -7.6300      1.5900     78.3900
     73      2.8790      3.1190     -7.1880      1.7700     78.3900
     74      1.9760      3.7250     -7.4220      0.0100     78.3900
     75      3.1150      3.1480     -5.7350      1.6800     78.3900
     76      3.4050      4.2470     -4.9680      1.7700     78.3900
     77      4.0430      7.6340     -4.7010      1.6800     78.3900
     78      4.3050      8.2960     -4.0100      0.0100     78.3900
     79      3.9200      7.9380     -5.6490      0.0100     78.3900
     80      3.5370      5.5080     -5.4110      1.6800     78.3900
     81      3.8350      6.3560     -4.4360      1.7700     78.3900
     82      3.9780      5.9820     -3.1260      1.6800     78.3900
     83      4.1650      6.6920     -2.4340      0.0100     78.3900
     84      3.8280      4.6970     -2.6330      1.7700     78.3900
     85      3.9740      4.4500     -1.4320      1.5900     78.3900
     86      3.5330      3.7750     -3.6750      1.7700     78.3900
     87      3.3150      2.4050     -3.6240      1.6800     78.3900
     88      3.0620      2.0750     -4.8690      1.7700     78.3900
     89      2.8380      1.0650     -5.2240      0.0100     78.3900
     90      4.0650      3.6410     -7.9840      1.7700     78.3900
     91      4.7340      4.2940     -7.3800      0.0100     78.3900
     92      3.6310      4.3500     -9.1330      1.5900     78.3900
     93      4.4410      4.5940     -9.6270      0.0100     78.3900
     94      4.7920      2.3440     -8.3500      1.7700     78.3900
     95      5.3430      1.9500     -7.4670      0.0100     78.3900
     96      5.6430      2.3850     -9.5190      1.5900     78.3900
     97      6.7740      3.4730     -9.6390      2.1000     78.3900
     98      6.1310      4.7020    -10.1550      1.5900     78.3900
     99      7.8720      2.9000    -10.4500      1.5900     78.3900
    100      7.2500      3.6970     -8.1550      1.5900     78.3900
    101      8.3900      4.5360     -7.8710      1.7700     78.3900
    102      9.2430      4.3210     -8.5580      0.0100     78.3900
    103      8.7480      4.2860     -6.8470      0.0100     78.3900
    104      8.0720      6.0410     -7.9130      1.7700     78.3900
    105      7.7380      6.3600     -8.9200      0.0100     78.3900
    106      6.9860      6.3400     -6.9920      1.5900     78.3900
    107      7.3930      7.3270     -6.0560      1.7700     78.3900
    108      6.5700      8.0730     -6.0260      0.0100     78.3900
    109      7.5360      6.7580     -4.7080      1.6800     78.3900
    110      7.8970      7.4140     -3.5610      1.7700     78.3900
    111      8.9510     10.2980     -1.9560      1.6800     78.3900
    112      8.9630     10.9730     -2.6950      0.0100     78.3900
    113      9.1920     10.5950     -1.0270      0.0100     78.3900
    114      8.2160      8.7170     -3.4610      1.6800     78.3900
    115      8.5520      9.0670     -2.2250      1.7700     78.3900
    116      8.5240      8.1950     -1.1690      1.6800     78.3900
    117      8.7800      8.5480     -0.2590      0.0100     78.3900
    118      8.1650      6.8520     -1.2340      1.7700     78.3900
    119      8.1680      6.1240     -0.2390      1.5900     78.3900
    120      7.8420      6.4640     -2.5600      1.7700     78.3900
    121      7.4460      5.2290     -3.0640      1.6800     78.3900
    122      7.2640      5.4590     -4.3420      1.7700     78.3900
    123      6.9430      4.7180     -5.0800      0.0100     78.3900
    124      8.6500      7.9950     -6.5780      1.7700     78.3900
    125      9.3600      8.2740     -5.7700      0.0100     78.3900
    126      8.3140      9.1500     -7.3240      1.5900     78.3900
    127      9.1080      9.4070     -7.8160      0.0100     78.3900
    128      9.2640      6.9070     -7.4550      1.7700     78.3900
    129      9.8840      6.2450     -6.8020      0.0100     78.3900
    130      9.9900      7.4130     -8.6020      1.5900     78.3900
    131     11.5140      7.1140     -8.8080      2.1000     78.3900
    132     11.9080      7.5800    -10.1590      1.5900     78.3900
    133     11.7880      5.6990     -8.4740      1.5900     78.3900
    134     12.1970      8.0120     -7.7090      1.5900     78.3900
    135     12.5070      9.3900     -8.0020      1.7700     78.3900
    136     11.6110      9.9380     -8.3810      0.0100     78.3900
    137     13.3040      9.4450     -8.7790      0.0100     78.3900
    138     13.0320     10.1220     -6.7660      1.7700     78.3900
    139     13.2900     11.1750     -7.0190      0.0100     78.3900
    140     12.0030     10.1660     -5.7300      1.5900     78.3900
    141     12.6230     10.0280     -4.4600      1.7700     78.3900
    142     12.3070     10.9040     -3.8480      0.0100     78.3900
    143     12.2030      8.7890     -3.8020      1.6800     78.3900
    144     11.7580      7.2480     -2.2990      1.7700     78.3900
    145     11.4610      6.6830     -3.5350      1.6800     78.3900
    146     11.7400      7.6360     -4.3900      1.7700     78.3900
    147     11.6230      7.5640     -5.4730      0.0100     78.3900
    148     12.0400      7.5860      0.0320      1.6800     78.3900
    149     12.4420      8.8220     -0.2780      1.7700     78.3900
    150     12.7210      9.4490      0.5750      0.0100     78.3900
    151     12.5830      9.3940     -1.4790      1.6800     78.3900
    152     12.2150      8.5460     -2.4530      1.7700     78.3900
    153     11.6840      6.7500     -0.9790      1.7700     78.3900
    154     11.2860      5.5020     -0.6740      1.6800     78.3900
    155     10.9960      4.8430     -1.3710      0.0100     78.3900
    156     11.1840      5.2550      0.2930      0.0100     78.3900
    157     14.1270     10.0700     -4.6750      1.7700     78.3900
    158     14.6750      9.4520     -3.9320      0.0100     78.3900
    159     14.5870     11.4110     -4.6230      1.5900     78.3900
    160     15.5070     11.4390     -4.9360      0.0100     78.3900
    161     14.2440      9.4790     -6.0760      1.7700     78.3900
    162     14.1010      8.3730     -6.0620      0.0100     78.3900
    163     15.4680      9.8230     -6.7480      1.5900     78.3900
    164     16.2180      9.3840     -6.3070      0.0100     78.3900
    165     12.1030      6.5220     11.2350      0.0100     78.3900
    166     12.5330      6.7750     10.3970      1.5900     78.3900
    167     12.1060      8.1090     10.0780      1.7700     78.3900
    168     12.3140      8.7850     10.9380      0.0100     78.3900
    169     11.0030      8.0820      9.9390      0.0100     78.3900
    170     12.7370      8.7110      8.8010      1.7700     78.3900
    171     13.7170      9.1770      9.0450      0.0100     78.3900
    172     12.9990      7.7020      7.7870      1.5900     78.3900
    173     13.1030      8.3270      6.5160      1.7700     78.3900
    174     14.2000      8.4370      6.3470      0.0100     78.3900
    175     12.5110      7.5080      5.4040      1.6800     78.3900
    176     11.8690      6.3140      5.6600      1.7700     78.3900
    177     11.7760      6.0390      6.7090      0.0100     78.3900
    178     12.7220      7.9170      4.0970      1.7700     78.3900
    179     13.3530      8.9240      3.8070      1.5900     78.3900
    180     12.1870      7.0940      3.1320      1.6800     78.3900
    181     12.3430      7.3610      2.1730      0.0100     78.3900
    182     11.6090      5.8590      3.3190      1.7700     78.3900
    183     11.2970      5.1700      2.3490      1.5900     78.3900
    184     11.4270      5.4970      4.6920      1.7700     78.3900
    185     10.9740      4.5360      4.9240      0.0100     78.3900
    186     12.4790      9.7190      6.6380      1.7700     78.3900
    187     11.6750      9.8750      5.8890      0.0100     78.3900
    188     13.4610     10.7280      6.4890      1.5900     78.3900
    189     12.9950     11.5700      6.5860      0.0100     78.3900
    190     11.8710      9.7250      8.0520      1.7700     78.3900
    191     10.8540      9.2730      8.0240      0.0100     78.3900
    192     11.8790     11.0020      8.7320      1.5900     78.3900
    193     10.7210     12.0470      8.4950      2.1000     78.3900
    194     11.0900     13.2920      9.2130      1.5900     78.3900
    195      9.4380     11.4170      8.8790      1.5900     78.3900
    196     10.7370     12.2830      6.9270      1.5900     78.3900
    197     11.3020     13.4880      6.3560      1.7700     78.3900
    198     12.4130     13.4360      6.3620      0.0100     78.3900
    199     11.0100     14.3960      6.9360      0.0100     78.3900
    200     10.8530     13.7250      4.9070      1.7700     78.3900
    201     11.3100     14.6590      4.5120      0.0100     78.3900
    202     11.3070     12.6490      4.0450      1.5900     78.3900
    203     10.3890     12.5020      2.9680      1.7700     78.3900
    204     10.9680     12.8090      2.0650      0.0100     78.3900
    205      9.9190     11.1040      2.7930      1.6800     78.3900
    206      9.8020     10.2870      3.8920      1.7700     78.3900
    207     10.0970     10.7320      4.8460      0.0100     78.3900
    208      9.3910      9.0160      3.7730      1.7700     78.3900
    209      9.3400      8.3370      4.6220      0.0100     78.3900
    210      9.5300     10.6410      1.5370      1.7700     78.3900
    211      9.5880     11.4070      0.5600      1.5900     78.3900
    212      9.1170      9.3620      1.3980      1.6800     78.3900
    213      9.0570      8.5480      2.4680      1.7700     78.3900
    214      8.7020      7.2760      2.2950      1.6800     78.3900
    215      8.4950      6.9340      1.3740      0.0100     78.3900
    216      8.5970      6.6460      3.0600      0.0100     78.3900
    217      9.2400     13.4820      3.1720      1.7700     78.3900
    218      8.2550     13.0120      2.9640      0.0100     78.3900
    219      9.3870     14.6300      2.3570      1.5900     78.3900
    220      8.6790     15.2360      2.6530      0.0100     78.3900
    221      9.3450     13.8140      4.6690      1.7700     78.3900
    222      8.8810     13.0030      5.2730      0.0100     78.3900
    223      8.8640     15.1070      5.0960      1.5900     78.3900
    224      7.4120     15.6110      4.7760      2.1000     78.3900
    225      7.4630     16.2310      3.4290      1.5900     78.3900
    226      6.9310     16.4590      5.8870      1.5900     78.3900
    227      6.5620     14.2890      4.7390      1.5900     78.3900
    228      5.1730     14.3370      4.3400      1.7700     78.3900
    229      4.6620     15.2690      4.6740      0.0100     78.3900
    230      4.6580     13.5010      4.8660      0.0100     78.3900
    231      4.9290     14.1470      2.8290      1.7700     78.3900
    232      5.0710     15.1050      2.2850      0.0100     78.3900
    233      5.8770     13.2040      2.2630      1.5900     78.3900
    234      5.2910     12.5570      1.1550      1.7700     78.3900
    235      5.8690     12.8820      0.2600      0.0100     78.3900
    236      5.3720     11.1020      1.2830      1.6800     78.3900
    237      5.2310      8.9490      0.8610      1.7700     78.3900
    238      5.7070      9.0590      2.1630      1.6800     78.3900
    239      5.7780     10.3550      2.3630      1.7700     78.3900
    240      6.1260     10.8380      3.2800      0.0100     78.3900
    241      4.4390      8.0930     -1.2030      1.6800     78.3900
    242      4.2710      9.3630     -1.5720      1.7700     78.3900
    243      3.8690      9.5150     -2.5780      0.0100     78.3900
    244      4.5650     10.4820     -0.9160      1.6800     78.3900
    245      5.0250     10.2030      0.3130      1.7700     78.3900
    246      4.9220      7.8380      0.0440      1.7700     78.3900
    247      5.0700      6.5580      0.4380      1.6800     78.3900
    248      5.3830      6.3210      1.3620      0.0100     78.3900
    249      4.7690      5.8150     -0.1640      0.0100     78.3900
    250      3.8510     13.0310      1.0390      1.7700     78.3900
    251      3.1450     12.2140      0.7760      0.0100     78.3900
    252      3.7390     14.0500      0.0680      1.5900     78.3900
    253      2.7900     14.2840      0.0410      0.0100     78.3900
    254      3.5640     13.5480      2.4520      1.7700     78.3900
    255      3.3890     12.6950      3.1470      0.0100     78.3900
    256      2.5270     14.5460      2.5700      1.5900     78.3900
    257      1.0310     14.1870      2.2220      2.1000     78.3900
    258      0.1500     15.2080      2.8260      1.5900     78.3900
    259      0.7640     12.7730      2.5750      1.5900     78.3900
    260      1.0150     14.3710      0.6560      1.5900     78.3900
    261     -0.2200     14.5390     -0.0860      1.7700     78.3900
    262     -0.4530     15.6250     -0.1530      0.0100     78.3900
    263     -1.0890     14.0680      0.4330      0.0100     78.3900
    264     -0.1760     13.9700     -1.5330      1.7700     78.3900
    265      0.0410     14.7860     -2.2570      0.0100     78.3900
    266      0.8980     12.9920     -1.6970      1.5900     78.3900
    267      0.4940     11.9580     -2.5740      1.7700     78.3900
    268      1.2290     11.9370     -3.4110      0.0100     78.3900
    269      0.5010     10.6570     -1.8990      1.6800     78.3900
    270      0.5250      8.4980     -1.4750      1.7700     78.3900
    271      0.4660      9.1380     -0.2390      1.6800     78.3900
    272      0.4630     10.4140     -0.5460      1.7700     78.3900
    273      0.4330     11.2370      0.1750      0.0100     78.3900
    274      0.6330      6.8400     -3.1630      1.6800     78.3900
    275      0.6270      7.8470     -4.0380      1.7700     78.3900
    276      0.6810      7.5510     -5.0920      0.0100     78.3900
    277      0.6220      9.1680     -3.8230      1.6800     78.3900
    278      0.5460      9.4250     -2.5040      1.7700     78.3900
    279      0.5740      7.1340     -1.8410      1.7700     78.3900
    280      0.5760      6.1260     -0.9530      1.6800     78.3900
    281      0.5160      6.2790      0.0340      0.0100     78.3900
    282      0.5910      5.1860     -1.2830      0.0100     78.3900
    283     -0.8760     12.3150     -3.1090      1.7700     78.3900
    284     -1.5160     11.4190     -3.2370      0.0100     78.3900
    285     -0.7600     12.9960     -4.3410      1.5900     78.3900
    286     -1.6670     13.2710     -4.5820      0.0100     78.3900
    287     -1.4410     13.2180     -2.0020      1.7700     78.3900
    288     -1.7810     12.5940     -1.1460      0.0100     78.3900
    289     -2.4710     14.1610     -2.3880      1.5900     78.3900
    290     -3.7530     13.7150     -3.1940      2.1000     78.3900
    291     -3.3880     13.6690     -4.6310      1.5900     78.3900
    292     -4.9100     14.5720     -2.8310      1.5900     78.3900
    293     -4.0320     12.2580     -2.6420      1.5900     78.3900
    294     -5.0040     11.3940     -3.2780      1.7700     78.3900
    295     -5.9540     11.9240     -3.5100      0.0100     78.3900
    296     -5.2800     10.6000     -2.5480      0.0100     78.3900
    297     -4.4870     10.6790     -4.5430      1.7700     78.3900
    298     -4.3550     11.3870     -5.3860      0.0100     78.3900
    299     -3.1890     10.0860     -4.2800      1.5900     78.3900
    300     -3.0980      8.8240     -4.9070      1.7700     78.3900
    301     -2.1820      8.8380     -5.5380      0.0100     78.3900
    302     -2.9800      7.7520     -3.9160      1.6800     78.3900
    303     -2.6620      6.4450     -4.1650      1.7700     78.3900
    304     -1.8810      3.8870     -6.3780      1.6800     78.3900
    305     -1.8500      4.3510     -7.2610      0.0100     78.3900
    306     -1.8220      2.8830     -6.3510      0.0100     78.3900
    307     -2.3950      5.9080     -5.3720      1.6800     78.3900
    308     -2.1590      4.5990     -5.3000      1.7700     78.3900
    309     -2.1900      3.9000     -4.1250      1.6800     78.3900
    310     -2.0430      2.9030     -4.1680      0.0100     78.3900
    311     -2.4410      4.4330     -2.8670      1.7700     78.3900
    312     -2.4340      3.7370     -1.8470      1.5900     78.3900
    313     -2.6940      5.8230     -2.9320      1.7700     78.3900
    314     -3.0090      6.7240     -1.9220      1.6800     78.3900
    315     -3.1650      7.8590     -2.5540      1.7700     78.3900
    316     -3.4040      8.8170     -2.0840      0.0100     78.3900
    317     -4.3280      8.6570     -5.7710      1.7700     78.3900
    318     -4.6510      7.5970     -5.8430      0.0100     78.3900
    319     -4.1050      9.1630     -7.0730      1.5900     78.3900
    320     -4.9250      9.0080     -7.5650      0.0100     78.3900
    321     -5.3550      9.4980     -5.0120      1.7700     78.3900
    322     -5.6920      8.9600     -4.0950      0.0100     78.3900
    323     -6.4720      9.9900     -5.7900      1.5900     78.3900
    324     -7.5810      8.9750     -6.2660      2.1000     78.3900
    325     -8.7340      9.7140     -6.8250      1.5900     78.3900
    326     -7.8880      8.0510     -5.1520      1.5900     78.3900
    327     -6.8890      8.1570     -7.4250      1.5900     78.3900
    328     -7.5460      6.9670     -7.9420      1.7700     78.3900
    329     -8.2680      7.2530     -8.7410      0.0100     78.3900
    330     -8.1270      6.4280     -7.1510      0.0100     78.3900
    331     -6.5540      5.9500     -8.5440      1.7700     78.3900
    332     -6.1750      6.2990     -9.5280      0.0100     78.3900
    333     -5.3890      5.7970     -7.6780      1.5900     78.3900
    334     -5.1900      4.4300     -7.3740      1.7700     78.3900
    335     -4.1000      4.2550     -7.5010      0.0100     78.3900
    336     -5.5720      4.1050     -5.9600      1.6800     78.3900
    337     -5.9170      5.1070     -5.0670      1.7700     78.3900
    338     -6.0600      6.1030     -5.4940      0.0100     78.3900
    339     -5.3560      2.8180     -5.5070      1.7700     78.3900
    340     -4.9190      1.9210     -6.2130      1.5900     78.3900
    341     -5.6430      2.6180     -4.1870      1.6800     78.3900
    342     -5.4790      1.6620     -3.8840      0.0100     78.3900
    343     -5.9280      3.5650     -3.2320      1.7700     78.3900
    344     -6.0340      3.2360     -2.0520      1.5900     78.3900
    345     -6.0720      4.8910     -3.7510      1.7700     78.3900
    346     -6.3000      5.6990     -3.0600      0.0100     78.3900
    347     -5.9330      3.6390     -8.4370      1.7700     78.3900
    348     -6.2530      2.6360     -8.0870      0.0100     78.3900
    349     -5.1160      3.5010     -9.5900      1.5900     78.3900
    350     -4.8830      4.3840     -9.9170      0.0100     78.3900
    351     -7.1400      4.5310     -8.6780      1.7700     78.3900
    352     -7.8790      4.3730     -7.8600      0.0100     78.3900
    353     -7.7660      4.3570     -9.9620      1.5900     78.3900
    354     -7.9820      3.4170    -10.0880      0.0100     78.3900

     ----------------------------
     INPUT FOR TESSERA DEFINITION
     ----------------------------
     NTSALL  =        60     MTHALL  =         4
     MTHAUT  =         0     AUTFRE  =    2.0000
     NTSFRZ  =        60     KEEPSM  =         0
     AREAKP  =   10.0000     BONDRY  =    1.0000
     AREATL  =    0.0100

     SPHERE     INITS       METHOD
          1        60       FIXPVA
          2        60       FIXPVA
          3        60       FIXPVA
          4        60       FIXPVA
          5        60       FIXPVA
          6        60       FIXPVA
          7        60       FIXPVA
          8        60       FIXPVA
          9        60       FIXPVA
         10        60       FIXPVA
         11        60       FIXPVA
         12        60       FIXPVA
         13        60       FIXPVA
         14        60       FIXPVA
         15        60       FIXPVA
         16        60       FIXPVA
         17        60       FIXPVA
         18        60       FIXPVA
         19        60       FIXPVA
         20        60       FIXPVA
         21        60       FIXPVA
         22        60       FIXPVA
         23        60       FIXPVA
         24        60       FIXPVA
         25        60       FIXPVA
         26        60       FIXPVA
         27        60       FIXPVA
         28        60       FIXPVA
         29        60       FIXPVA
         30        60       FIXPVA
         31        60       FIXPVA
         32        60       FIXPVA
         33        60       FIXPVA
         34        60       FIXPVA
         35        60       FIXPVA
         36        60       FIXPVA
         37        60       FIXPVA
         38        60       FIXPVA
         39        60       FIXPVA
         40        60       FIXPVA
         41        60       FIXPVA
         42        60       FIXPVA
         43        60       FIXPVA
         44        60       FIXPVA
         45        60       FIXPVA
         46        60       FIXPVA
         47        60       FIXPVA
         48        60       FIXPVA
         49        60       FIXPVA
         50        60       FIXPVA
         51        60       FIXPVA
         52        60       FIXPVA
         53        60       FIXPVA
         54        60       FIXPVA
         55        60       FIXPVA
         56        60       FIXPVA
         57        60       FIXPVA
         58        60       FIXPVA
         59        60       FIXPVA
         60        60       FIXPVA
         61        60       FIXPVA
         62        60       FIXPVA
         63        60       FIXPVA
         64        60       FIXPVA
         65        60       FIXPVA
         66        60       FIXPVA
         67        60       FIXPVA
         68        60       FIXPVA
         69        60       FIXPVA
         70        60       FIXPVA
         71        60       FIXPVA
         72        60       FIXPVA
         73        60       FIXPVA
         74        60       FIXPVA
         75        60       FIXPVA
         76        60       FIXPVA
         77        60       FIXPVA
         78        60       FIXPVA
         79        60       FIXPVA
         80        60       FIXPVA
         81        60       FIXPVA
         82        60       FIXPVA
         83        60       FIXPVA
         84        60       FIXPVA
         85        60       FIXPVA
         86        60       FIXPVA
         87        60       FIXPVA
         88        60       FIXPVA
         89        60       FIXPVA
         90        60       FIXPVA
         91        60       FIXPVA
         92        60       FIXPVA
         93        60       FIXPVA
         94        60       FIXPVA
         95        60       FIXPVA
         96        60       FIXPVA
         97        60       FIXPVA
         98        60       FIXPVA
         99        60       FIXPVA
        100        60       FIXPVA
        101        60       FIXPVA
        102        60       FIXPVA
        103        60       FIXPVA
        104        60       FIXPVA
        105        60       FIXPVA
        106        60       FIXPVA
        107        60       FIXPVA
        108        60       FIXPVA
        109        60       FIXPVA
        110        60       FIXPVA
        111        60       FIXPVA
        112        60       FIXPVA
        113        60       FIXPVA
        114        60       FIXPVA
        115        60       FIXPVA
        116        60       FIXPVA
        117        60       FIXPVA
        118        60       FIXPVA
        119        60       FIXPVA
        120        60       FIXPVA
        121        60       FIXPVA
        122        60       FIXPVA
        123        60       FIXPVA
        124        60       FIXPVA
        125        60       FIXPVA
        126        60       FIXPVA
        127        60       FIXPVA
        128        60       FIXPVA
        129        60       FIXPVA
        130        60       FIXPVA
        131        60       FIXPVA
        132        60       FIXPVA
        133        60       FIXPVA
        134        60       FIXPVA
        135        60       FIXPVA
        136        60       FIXPVA
        137        60       FIXPVA
        138        60       FIXPVA
        139        60       FIXPVA
        140        60       FIXPVA
        141        60       FIXPVA
        142        60       FIXPVA
        143        60       FIXPVA
        144        60       FIXPVA
        145        60       FIXPVA
        146        60       FIXPVA
        147        60       FIXPVA
        148        60       FIXPVA
        149        60       FIXPVA
        150        60       FIXPVA
        151        60       FIXPVA
        152        60       FIXPVA
        153        60       FIXPVA
        154        60       FIXPVA
        155        60       FIXPVA
        156        60       FIXPVA
        157        60       FIXPVA
        158        60       FIXPVA
        159        60       FIXPVA
        160        60       FIXPVA
        161        60       FIXPVA
        162        60       FIXPVA
        163        60       FIXPVA
        164        60       FIXPVA
        165        60       FIXPVA
        166        60       FIXPVA
        167        60       FIXPVA
        168        60       FIXPVA
        169        60       FIXPVA
        170        60       FIXPVA
        171        60       FIXPVA
        172        60       FIXPVA
        173        60       FIXPVA
        174        60       FIXPVA
        175        60       FIXPVA
        176        60       FIXPVA
        177        60       FIXPVA
        178        60       FIXPVA
        179        60       FIXPVA
        180        60       FIXPVA
        181        60       FIXPVA
        182        60       FIXPVA
        183        60       FIXPVA
        184        60       FIXPVA
        185        60       FIXPVA
        186        60       FIXPVA
        187        60       FIXPVA
        188        60       FIXPVA
        189        60       FIXPVA
        190        60       FIXPVA
        191        60       FIXPVA
        192        60       FIXPVA
        193        60       FIXPVA
        194        60       FIXPVA
        195        60       FIXPVA
        196        60       FIXPVA
        197        60       FIXPVA
        198        60       FIXPVA
        199        60       FIXPVA
        200        60       FIXPVA
        201        60       FIXPVA
        202        60       FIXPVA
        203        60       FIXPVA
        204        60       FIXPVA
        205        60       FIXPVA
        206        60       FIXPVA
        207        60       FIXPVA
        208        60       FIXPVA
        209        60       FIXPVA
        210        60       FIXPVA
        211        60       FIXPVA
        212        60       FIXPVA
        213        60       FIXPVA
        214        60       FIXPVA
        215        60       FIXPVA
        216        60       FIXPVA
        217        60       FIXPVA
        218        60       FIXPVA
        219        60       FIXPVA
        220        60       FIXPVA
        221        60       FIXPVA
        222        60       FIXPVA
        223        60       FIXPVA
        224        60       FIXPVA
        225        60       FIXPVA
        226        60       FIXPVA
        227        60       FIXPVA
        228        60       FIXPVA
        229        60       FIXPVA
        230        60       FIXPVA
        231        60       FIXPVA
        232        60       FIXPVA
        233        60       FIXPVA
        234        60       FIXPVA
        235        60       FIXPVA
        236        60       FIXPVA
        237        60       FIXPVA
        238        60       FIXPVA
        239        60       FIXPVA
        240        60       FIXPVA
        241        60       FIXPVA
        242        60       FIXPVA
        243        60       FIXPVA
        244        60       FIXPVA
        245        60       FIXPVA
        246        60       FIXPVA
        247        60       FIXPVA
        248        60       FIXPVA
        249        60       FIXPVA
        250        60       FIXPVA
        251        60       FIXPVA
        252        60       FIXPVA
        253        60       FIXPVA
        254        60       FIXPVA
        255        60       FIXPVA
        256        60       FIXPVA
        257        60       FIXPVA
        258        60       FIXPVA
        259        60       FIXPVA
        260        60       FIXPVA
        261        60       FIXPVA
        262        60       FIXPVA
        263        60       FIXPVA
        264        60       FIXPVA
        265        60       FIXPVA
        266        60       FIXPVA
        267        60       FIXPVA
        268        60       FIXPVA
        269        60       FIXPVA
        270        60       FIXPVA
        271        60       FIXPVA
        272        60       FIXPVA
        273        60       FIXPVA
        274        60       FIXPVA
        275        60       FIXPVA
        276        60       FIXPVA
        277        60       FIXPVA
        278        60       FIXPVA
        279        60       FIXPVA
        280        60       FIXPVA
        281        60       FIXPVA
        282        60       FIXPVA
        283        60       FIXPVA
        284        60       FIXPVA
        285        60       FIXPVA
        286        60       FIXPVA
        287        60       FIXPVA
        288        60       FIXPVA
        289        60       FIXPVA
        290        60       FIXPVA
        291        60       FIXPVA
        292        60       FIXPVA
        293        60       FIXPVA
        294        60       FIXPVA
        295        60       FIXPVA
        296        60       FIXPVA
        297        60       FIXPVA
        298        60       FIXPVA
        299        60       FIXPVA
        300        60       FIXPVA
        301        60       FIXPVA
        302        60       FIXPVA
        303        60       FIXPVA
        304        60       FIXPVA
        305        60       FIXPVA
        306        60       FIXPVA
        307        60       FIXPVA
        308        60       FIXPVA
        309        60       FIXPVA
        310        60       FIXPVA
        311        60       FIXPVA
        312        60       FIXPVA
        313        60       FIXPVA
        314        60       FIXPVA
        315        60       FIXPVA
        316        60       FIXPVA
        317        60       FIXPVA
        318        60       FIXPVA
        319        60       FIXPVA
        320        60       FIXPVA
        321        60       FIXPVA
        322        60       FIXPVA
        323        60       FIXPVA
        324        60       FIXPVA
        325        60       FIXPVA
        326        60       FIXPVA
        327        60       FIXPVA
        328        60       FIXPVA
        329        60       FIXPVA
        330        60       FIXPVA
        331        60       FIXPVA
        332        60       FIXPVA
        333        60       FIXPVA
        334        60       FIXPVA
        335        60       FIXPVA
        336        60       FIXPVA
        337        60       FIXPVA
        338        60       FIXPVA
        339        60       FIXPVA
        340        60       FIXPVA
        341        60       FIXPVA
        342        60       FIXPVA
        343        60       FIXPVA
        344        60       FIXPVA
        345        60       FIXPVA
        346        60       FIXPVA
        347        60       FIXPVA
        348        60       FIXPVA
        349        60       FIXPVA
        350        60       FIXPVA
        351        60       FIXPVA
        352        60       FIXPVA
        353        60       FIXPVA
        354        60       FIXPVA

     ------------------------------
      FIXPVA TESSELLATION FOR PCM
         PEIFENG SU AND HUI LI
     UNIVERSITY OF NEBRASKA-LINCOLN
     ------------------------------


 PCM DIMENSIONS: MXSP=   354, MXTS=     14160, MEMORY=        145497

     INPUT FOR CAVITY DEFINITION 
     ---------------------------
   ATOM               COORDINATES                RADIUS       EPS
      1     -2.2320     -7.1800      0.4900      0.0100     78.3900
      2     -2.5930     -6.7100     -0.2820      1.5900     78.3900
      3     -2.3460     -7.5420     -1.4280      1.7700     78.3900
      4     -2.7510     -8.5590     -1.2260      0.0100     78.3900
      5     -1.2450     -7.6410     -1.5630      0.0100     78.3900
      6     -2.9610     -7.0330     -2.7480      1.7700     78.3900
      7     -3.2100     -7.8850     -3.4170      0.0100     78.3900
      8     -4.1950     -6.2970     -2.5140      1.5900     78.3900
      9     -4.2680     -5.1910     -3.3930      1.7700     78.3900
     10     -5.1900     -5.3490     -3.9970      0.0100     78.3900
     11     -4.4140     -3.9290     -2.6570      1.6800     78.3900
     12     -4.8080     -1.8310     -2.1210      1.7700     78.3900
     13     -4.6760     -2.5160     -0.9200      1.6800     78.3900
     14     -4.4530     -3.7560     -1.2910      1.7700     78.3900
     15     -4.3000     -4.5980     -0.6100      0.0100     78.3900
     16     -5.1480     -0.1280     -3.7200      1.6800     78.3900
     17     -4.9370     -1.0600     -4.6550      1.7700     78.3900
     18     -4.9760     -0.7110     -5.6940      0.0100     78.3900
     19     -4.6990     -2.3650     -4.5010      1.6800     78.3900
     20     -4.6510     -2.6900     -3.1980      1.7700     78.3900
     21     -5.0920     -0.4820     -2.4140      1.7700     78.3900
     22     -5.3040      0.4590     -1.4720      1.6800     78.3900
     23     -5.3140      0.2300     -0.4960      0.0100     78.3900
     24     -5.5180      1.4060     -1.7220      0.0100     78.3900
     25     -3.0580     -5.2280     -4.3180      1.7700     78.3900
     26     -2.6390     -4.2190     -4.5120      0.0100     78.3900
     27     -3.4090     -5.8260     -5.5510      1.5900     78.3900
     28     -2.5860     -5.9390     -6.0460      0.0100     78.3900
     29     -2.0580     -6.0790     -3.5390      1.7700     78.3900
     30     -1.5410     -5.4500     -2.7760      0.0100     78.3900
     31     -1.1450     -6.8400     -4.3680      1.5900     78.3900
     32      0.3440     -6.3900     -4.5710      2.1000     78.3900
     33      1.0360     -7.3980     -5.4080      1.5900     78.3900
     34      0.9270     -6.1540     -3.2330      1.5900     78.3900
     35      0.2510     -5.0260     -5.3480      1.5900     78.3900
     36      0.2030     -5.0190     -6.7990      1.7700     78.3900
     37     -0.3870     -5.8780     -7.2000      0.0100     78.3900
     38      1.2350     -5.1230     -7.2060      0.0100     78.3900
     39     -0.3870     -3.7160     -7.3880      1.7700     78.3900
     40     -0.9190     -3.9230     -8.3440      0.0100     78.3900
     41     -1.3530     -3.1210     -6.4930      1.5900     78.3900
     42     -1.3520     -1.7110     -6.6460      1.7700     78.3900
     43     -2.2940     -1.5060     -7.2030      0.0100     78.3900
     44     -1.4270     -0.9670     -5.3570      1.6800     78.3900
     45     -1.3540     -1.6600     -4.1660      1.7700     78.3900
     46     -1.1660     -2.7340     -4.2440      0.0100     78.3900
     47     -1.4920     -1.0410     -2.9880      1.7700     78.3900
     48     -1.4510     -1.5740     -2.0390      0.0100     78.3900
     49     -1.6610      0.4120     -5.3410      1.7700     78.3900
     50     -1.7770      1.0340     -6.4100      1.5900     78.3900
     51     -1.7540      1.0520     -4.1550      1.6800     78.3900
     52     -1.7150      0.3620     -3.0030      1.7700     78.3900
     53     -1.9040      1.0090     -1.8570      1.6800     78.3900
     54     -2.0990      1.9940     -1.8740      0.0100     78.3900
     55     -1.8880      0.5420     -0.9710      0.0100     78.3900
     56     -0.1690     -1.3180     -7.5250      1.7700     78.3900
     57      0.4570     -0.5250     -7.0610      0.0100     78.3900
     58     -0.6370     -0.8750     -8.7860      1.5900     78.3900
     59      0.1430     -0.6720     -9.3210      0.0100     78.3900
     60      0.6410     -2.6180     -7.6490      1.7700     78.3900
     61      1.3750     -2.6880     -6.8150      0.0100     78.3900
     62      1.2640     -2.8420     -8.9300      1.5900     78.3900
     63      2.6230     -2.1910     -9.3570      2.1000     78.3900
     64      2.5300     -1.7850    -10.7830      1.5900     78.3900
     65      3.7020     -3.1450     -9.0030      1.5900     78.3900
     66      2.7560     -0.9140     -8.4500      1.5900     78.3900
     67      3.9440     -0.0950     -8.4520      1.7700     78.3900
     68      4.6720     -0.3710     -9.2540      0.0100     78.3900
     69      4.4660     -0.2330     -7.4800      0.0100     78.3900
     70      3.6160      1.3940     -8.5940      1.7700     78.3900
     71      3.1990      1.6000     -9.6020      0.0100     78.3900
     72      2.6090      1.8000     -7.6300      1.5900     78.3900
     73      2.8790      3.1190     -7.1880      1.7700     78.3900
     74      1.9760      3.7250     -7.4220      0.0100     78.3900
     75      3.1150      3.1480     -5.7350      1.6800     78.3900
     76      3.4050      4.2470     -4.9680      1.7700     78.3900
     77      4.0430      7.6340     -4.7010      1.6800     78.3900
     78      4.3050      8.2960     -4.0100      0.0100     78.3900
     79      3.9200      7.9380     -5.6490      0.0100     78.3900
     80      3.5370      5.5080     -5.4110      1.6800     78.3900
     81      3.8350      6.3560     -4.4360      1.7700     78.3900
     82      3.9780      5.9820     -3.1260      1.6800     78.3900
     83      4.1650      6.6920     -2.4340      0.0100     78.3900
     84      3.8280      4.6970     -2.6330      1.7700     78.3900
     85      3.9740      4.4500     -1.4320      1.5900     78.3900
     86      3.5330      3.7750     -3.6750      1.7700     78.3900
     87      3.3150      2.4050     -3.6240      1.6800     78.3900
     88      3.0620      2.0750     -4.8690      1.7700     78.3900
     89      2.8380      1.0650     -5.2240      0.0100     78.3900
     90      4.0650      3.6410     -7.9840      1.7700     78.3900
     91      4.7340      4.2940     -7.3800      0.0100     78.3900
     92      3.6310      4.3500     -9.1330      1.5900     78.3900
     93      4.4410      4.5940     -9.6270      0.0100     78.3900
     94      4.7920      2.3440     -8.3500      1.7700     78.3900
     95      5.3430      1.9500     -7.4670      0.0100     78.3900
     96      5.6430      2.3850     -9.5190      1.5900     78.3900
     97      6.7740      3.4730     -9.6390      2.1000     78.3900
     98      6.1310      4.7020    -10.1550      1.5900     78.3900
     99      7.8720      2.9000    -10.4500      1.5900     78.3900
    100      7.2500      3.6970     -8.1550      1.5900     78.3900
    101      8.3900      4.5360     -7.8710      1.7700     78.3900
    102      9.2430      4.3210     -8.5580      0.0100     78.3900
    103      8.7480      4.2860     -6.8470      0.0100     78.3900
    104      8.0720      6.0410     -7.9130      1.7700     78.3900
    105      7.7380      6.3600     -8.9200      0.0100     78.3900
    106      6.9860      6.3400     -6.9920      1.5900     78.3900
    107      7.3930      7.3270     -6.0560      1.7700     78.3900
    108      6.5700      8.0730     -6.0260      0.0100     78.3900
    109      7.5360      6.7580     -4.7080      1.6800     78.3900
    110      7.8970      7.4140     -3.5610      1.7700     78.3900
    111      8.9510     10.2980     -1.9560      1.6800     78.3900
    112      8.9630     10.9730     -2.6950      0.0100     78.3900
    113      9.1920     10.5950     -1.0270      0.0100     78.3900
    114      8.2160      8.7170     -3.4610      1.6800     78.3900
    115      8.5520      9.0670     -2.2250      1.7700     78.3900
    116      8.5240      8.1950     -1.1690      1.6800     78.3900
    117      8.7800      8.5480     -0.2590      0.0100     78.3900
    118      8.1650      6.8520     -1.2340      1.7700     78.3900
    119      8.1680      6.1240     -0.2390      1.5900     78.3900
    120      7.8420      6.4640     -2.5600      1.7700     78.3900
    121      7.4460      5.2290     -3.0640      1.6800     78.3900
    122      7.2640      5.4590     -4.3420      1.7700     78.3900
    123      6.9430      4.7180     -5.0800      0.0100     78.3900
    124      8.6500      7.9950     -6.5780      1.7700     78.3900
    125      9.3600      8.2740     -5.7700      0.0100     78.3900
    126      8.3140      9.1500     -7.3240      1.5900     78.3900
    127      9.1080      9.4070     -7.8160      0.0100     78.3900
    128      9.2640      6.9070     -7.4550      1.7700     78.3900
    129      9.8840      6.2450     -6.8020      0.0100     78.3900
    130      9.9900      7.4130     -8.6020      1.5900     78.3900
    131     11.5140      7.1140     -8.8080      2.1000     78.3900
    132     11.9080      7.5800    -10.1590      1.5900     78.3900
    133     11.7880      5.6990     -8.4740      1.5900     78.3900
    134     12.1970      8.0120     -7.7090      1.5900     78.3900
    135     12.5070      9.3900     -8.0020      1.7700     78.3900
    136     11.6110      9.9380     -8.3810      0.0100     78.3900
    137     13.3040      9.4450     -8.7790      0.0100     78.3900
    138     13.0320     10.1220     -6.7660      1.7700     78.3900
    139     13.2900     11.1750     -7.0190      0.0100     78.3900
    140     12.0030     10.1660     -5.7300      1.5900     78.3900
    141     12.6230     10.0280     -4.4600      1.7700     78.3900
    142     12.3070     10.9040     -3.8480      0.0100     78.3900
    143     12.2030      8.7890     -3.8020      1.6800     78.3900
    144     11.7580      7.2480     -2.2990      1.7700     78.3900
    145     11.4610      6.6830     -3.5350      1.6800     78.3900
    146     11.7400      7.6360     -4.3900      1.7700     78.3900
    147     11.6230      7.5640     -5.4730      0.0100     78.3900
    148     12.0400      7.5860      0.0320      1.6800     78.3900
    149     12.4420      8.8220     -0.2780      1.7700     78.3900
    150     12.7210      9.4490      0.5750      0.0100     78.3900
    151     12.5830      9.3940     -1.4790      1.6800     78.3900
    152     12.2150      8.5460     -2.4530      1.7700     78.3900
    153     11.6840      6.7500     -0.9790      1.7700     78.3900
    154     11.2860      5.5020     -0.6740      1.6800     78.3900
    155     10.9960      4.8430     -1.3710      0.0100     78.3900
    156     11.1840      5.2550      0.2930      0.0100     78.3900
    157     14.1270     10.0700     -4.6750      1.7700     78.3900
    158     14.6750      9.4520     -3.9320      0.0100     78.3900
    159     14.5870     11.4110     -4.6230      1.5900     78.3900
    160     15.5070     11.4390     -4.9360      0.0100     78.3900
    161     14.2440      9.4790     -6.0760      1.7700     78.3900
    162     14.1010      8.3730     -6.0620      0.0100     78.3900
    163     15.4680      9.8230     -6.7480      1.5900     78.3900
    164     16.2180      9.3840     -6.3070      0.0100     78.3900
    165     12.1030      6.5220     11.2350      0.0100     78.3900
    166     12.5330      6.7750     10.3970      1.5900     78.3900
    167     12.1060      8.1090     10.0780      1.7700     78.3900
    168     12.3140      8.7850     10.9380      0.0100     78.3900
    169     11.0030      8.0820      9.9390      0.0100     78.3900
    170     12.7370      8.7110      8.8010      1.7700     78.3900
    171     13.7170      9.1770      9.0450      0.0100     78.3900
    172     12.9990      7.7020      7.7870      1.5900     78.3900
    173     13.1030      8.3270      6.5160      1.7700     78.3900
    174     14.2000      8.4370      6.3470      0.0100     78.3900
    175     12.5110      7.5080      5.4040      1.6800     78.3900
    176     11.8690      6.3140      5.6600      1.7700     78.3900
    177     11.7760      6.0390      6.7090      0.0100     78.3900
    178     12.7220      7.9170      4.0970      1.7700     78.3900
    179     13.3530      8.9240      3.8070      1.5900     78.3900
    180     12.1870      7.0940      3.1320      1.6800     78.3900
    181     12.3430      7.3610      2.1730      0.0100     78.3900
    182     11.6090      5.8590      3.3190      1.7700     78.3900
    183     11.2970      5.1700      2.3490      1.5900     78.3900
    184     11.4270      5.4970      4.6920      1.7700     78.3900
    185     10.9740      4.5360      4.9240      0.0100     78.3900
    186     12.4790      9.7190      6.6380      1.7700     78.3900
    187     11.6750      9.8750      5.8890      0.0100     78.3900
    188     13.4610     10.7280      6.4890      1.5900     78.3900
    189     12.9950     11.5700      6.5860      0.0100     78.3900
    190     11.8710      9.7250      8.0520      1.7700     78.3900
    191     10.8540      9.2730      8.0240      0.0100     78.3900
    192     11.8790     11.0020      8.7320      1.5900     78.3900
    193     10.7210     12.0470      8.4950      2.1000     78.3900
    194     11.0900     13.2920      9.2130      1.5900     78.3900
    195      9.4380     11.4170      8.8790      1.5900     78.3900
    196     10.7370     12.2830      6.9270      1.5900     78.3900
    197     11.3020     13.4880      6.3560      1.7700     78.3900
    198     12.4130     13.4360      6.3620      0.0100     78.3900
    199     11.0100     14.3960      6.9360      0.0100     78.3900
    200     10.8530     13.7250      4.9070      1.7700     78.3900
    201     11.3100     14.6590      4.5120      0.0100     78.3900
    202     11.3070     12.6490      4.0450      1.5900     78.3900
    203     10.3890     12.5020      2.9680      1.7700     78.3900
    204     10.9680     12.8090      2.0650      0.0100     78.3900
    205      9.9190     11.1040      2.7930      1.6800     78.3900
    206      9.8020     10.2870      3.8920      1.7700     78.3900
    207     10.0970     10.7320      4.8460      0.0100     78.3900
    208      9.3910      9.0160      3.7730      1.7700     78.3900
    209      9.3400      8.3370      4.6220      0.0100     78.3900
    210      9.5300     10.6410      1.5370      1.7700     78.3900
    211      9.5880     11.4070      0.5600      1.5900     78.3900
    212      9.1170      9.3620      1.3980      1.6800     78.3900
    213      9.0570      8.5480      2.4680      1.7700     78.3900
    214      8.7020      7.2760      2.2950      1.6800     78.3900
    215      8.4950      6.9340      1.3740      0.0100     78.3900
    216      8.5970      6.6460      3.0600      0.0100     78.3900
    217      9.2400     13.4820      3.1720      1.7700     78.3900
    218      8.2550     13.0120      2.9640      0.0100     78.3900
    219      9.3870     14.6300      2.3570      1.5900     78.3900
    220      8.6790     15.2360      2.6530      0.0100     78.3900
    221      9.3450     13.8140      4.6690      1.7700     78.3900
    222      8.8810     13.0030      5.2730      0.0100     78.3900
    223      8.8640     15.1070      5.0960      1.5900     78.3900
    224      7.4120     15.6110      4.7760      2.1000     78.3900
    225      7.4630     16.2310      3.4290      1.5900     78.3900
    226      6.9310     16.4590      5.8870      1.5900     78.3900
    227      6.5620     14.2890      4.7390      1.5900     78.3900
    228      5.1730     14.3370      4.3400      1.7700     78.3900
    229      4.6620     15.2690      4.6740      0.0100     78.3900
    230      4.6580     13.5010      4.8660      0.0100     78.3900
    231      4.9290     14.1470      2.8290      1.7700     78.3900
    232      5.0710     15.1050      2.2850      0.0100     78.3900
    233      5.8770     13.2040      2.2630      1.5900     78.3900
    234      5.2910     12.5570      1.1550      1.7700     78.3900
    235      5.8690     12.8820      0.2600      0.0100     78.3900
    236      5.3720     11.1020      1.2830      1.6800     78.3900
    237      5.2310      8.9490      0.8610      1.7700     78.3900
    238      5.7070      9.0590      2.1630      1.6800     78.3900
    239      5.7780     10.3550      2.3630      1.7700     78.3900
    240      6.1260     10.8380      3.2800      0.0100     78.3900
    241      4.4390      8.0930     -1.2030      1.6800     78.3900
    242      4.2710      9.3630     -1.5720      1.7700     78.3900
    243      3.8690      9.5150     -2.5780      0.0100     78.3900
    244      4.5650     10.4820     -0.9160      1.6800     78.3900
    245      5.0250     10.2030      0.3130      1.7700     78.3900
    246      4.9220      7.8380      0.0440      1.7700     78.3900
    247      5.0700      6.5580      0.4380      1.6800     78.3900
    248      5.3830      6.3210      1.3620      0.0100     78.3900
    249      4.7690      5.8150     -0.1640      0.0100     78.3900
    250      3.8510     13.0310      1.0390      1.7700     78.3900
    251      3.1450     12.2140      0.7760      0.0100     78.3900
    252      3.7390     14.0500      0.0680      1.5900     78.3900
    253      2.7900     14.2840      0.0410      0.0100     78.3900
    254      3.5640     13.5480      2.4520      1.7700     78.3900
    255      3.3890     12.6950      3.1470      0.0100     78.3900
    256      2.5270     14.5460      2.5700      1.5900     78.3900
    257      1.0310     14.1870      2.2220      2.1000     78.3900
    258      0.1500     15.2080      2.8260      1.5900     78.3900
    259      0.7640     12.7730      2.5750      1.5900     78.3900
    260      1.0150     14.3710      0.6560      1.5900     78.3900
    261     -0.2200     14.5390     -0.0860      1.7700     78.3900
    262     -0.4530     15.6250     -0.1530      0.0100     78.3900
    263     -1.0890     14.0680      0.4330      0.0100     78.3900
    264     -0.1760     13.9700     -1.5330      1.7700     78.3900
    265      0.0410     14.7860     -2.2570      0.0100     78.3900
    266      0.8980     12.9920     -1.6970      1.5900     78.3900
    267      0.4940     11.9580     -2.5740      1.7700     78.3900
    268      1.2290     11.9370     -3.4110      0.0100     78.3900
    269      0.5010     10.6570     -1.8990      1.6800     78.3900
    270      0.5250      8.4980     -1.4750      1.7700     78.3900
    271      0.4660      9.1380     -0.2390      1.6800     78.3900
    272      0.4630     10.4140     -0.5460      1.7700     78.3900
    273      0.4330     11.2370      0.1750      0.0100     78.3900
    274      0.6330      6.8400     -3.1630      1.6800     78.3900
    275      0.6270      7.8470     -4.0380      1.7700     78.3900
    276      0.6810      7.5510     -5.0920      0.0100     78.3900
    277      0.6220      9.1680     -3.8230      1.6800     78.3900
    278      0.5460      9.4250     -2.5040      1.7700     78.3900
    279      0.5740      7.1340     -1.8410      1.7700     78.3900
    280      0.5760      6.1260     -0.9530      1.6800     78.3900
    281      0.5160      6.2790      0.0340      0.0100     78.3900
    282      0.5910      5.1860     -1.2830      0.0100     78.3900
    283     -0.8760     12.3150     -3.1090      1.7700     78.3900
    284     -1.5160     11.4190     -3.2370      0.0100     78.3900
    285     -0.7600     12.9960     -4.3410      1.5900     78.3900
    286     -1.6670     13.2710     -4.5820      0.0100     78.3900
    287     -1.4410     13.2180     -2.0020      1.7700     78.3900
    288     -1.7810     12.5940     -1.1460      0.0100     78.3900
    289     -2.4710     14.1610     -2.3880      1.5900     78.3900
    290     -3.7530     13.7150     -3.1940      2.1000     78.3900
    291     -3.3880     13.6690     -4.6310      1.5900     78.3900
    292     -4.9100     14.5720     -2.8310      1.5900     78.3900
    293     -4.0320     12.2580     -2.6420      1.5900     78.3900
    294     -5.0040     11.3940     -3.2780      1.7700     78.3900
    295     -5.9540     11.9240     -3.5100      0.0100     78.3900
    296     -5.2800     10.6000     -2.5480      0.0100     78.3900
    297     -4.4870     10.6790     -4.5430      1.7700     78.3900
    298     -4.3550     11.3870     -5.3860      0.0100     78.3900
    299     -3.1890     10.0860     -4.2800      1.5900     78.3900
    300     -3.0980      8.8240     -4.9070      1.7700     78.3900
    301     -2.1820      8.8380     -5.5380      0.0100     78.3900
    302     -2.9800      7.7520     -3.9160      1.6800     78.3900
    303     -2.6620      6.4450     -4.1650      1.7700     78.3900
    304     -1.8810      3.8870     -6.3780      1.6800     78.3900
    305     -1.8500      4.3510     -7.2610      0.0100     78.3900
    306     -1.8220      2.8830     -6.3510      0.0100     78.3900
    307     -2.3950      5.9080     -5.3720      1.6800     78.3900
    308     -2.1590      4.5990     -5.3000      1.7700     78.3900
    309     -2.1900      3.9000     -4.1250      1.6800     78.3900
    310     -2.0430      2.9030     -4.1680      0.0100     78.3900
    311     -2.4410      4.4330     -2.8670      1.7700     78.3900
    312     -2.4340      3.7370     -1.8470      1.5900     78.3900
    313     -2.6940      5.8230     -2.9320      1.7700     78.3900
    314     -3.0090      6.7240     -1.9220      1.6800     78.3900
    315     -3.1650      7.8590     -2.5540      1.7700     78.3900
    316     -3.4040      8.8170     -2.0840      0.0100     78.3900
    317     -4.3280      8.6570     -5.7710      1.7700     78.3900
    318     -4.6510      7.5970     -5.8430      0.0100     78.3900
    319     -4.1050      9.1630     -7.0730      1.5900     78.3900
    320     -4.9250      9.0080     -7.5650      0.0100     78.3900
    321     -5.3550      9.4980     -5.0120      1.7700     78.3900
    322     -5.6920      8.9600     -4.0950      0.0100     78.3900
    323     -6.4720      9.9900     -5.7900      1.5900     78.3900
    324     -7.5810      8.9750     -6.2660      2.1000     78.3900
    325     -8.7340      9.7140     -6.8250      1.5900     78.3900
    326     -7.8880      8.0510     -5.1520      1.5900     78.3900
    327     -6.8890      8.1570     -7.4250      1.5900     78.3900
    328     -7.5460      6.9670     -7.9420      1.7700     78.3900
    329     -8.2680      7.2530     -8.7410      0.0100     78.3900
    330     -8.1270      6.4280     -7.1510      0.0100     78.3900
[...]
   302   10   7.0   0.00    0.0    0.000000   -0.803866   -0.809593
   303   10   6.0   0.00    0.0    0.000000    0.712170    0.714966
   304   10   7.0  12.13   23.7   -0.091973   -0.981593   -1.052524
   305   10   1.0   0.00    0.0    0.000000    0.446062    0.444382
   306   10   1.0   0.00    0.0    0.000000    0.486318    0.523439
   307   10   7.0   4.29    8.4    0.070621   -0.744280   -0.751394
   308   10   6.0   2.00    3.5    0.005846    0.957663    0.966359
   309   10   7.0   2.02    3.9    0.008505   -0.936491   -1.030594
   310   10   1.0   0.00    0.0    0.000000    0.486327    0.547959
   311   10   6.0   0.94    1.7    0.002225    0.871949    0.874307
   312   10   8.0   9.46   20.7    0.152326   -0.771679   -0.753885
   313   10   6.0   0.00    0.0    0.000000   -0.034296   -0.020699
   314   10   7.0   9.61   18.8    0.165420   -0.600585   -0.603585
   315   10   6.0   8.73   15.4   -0.050773    0.276445    0.272363
   316   10   1.0   0.00    0.0    0.000000    0.273999    0.282966
   317   10   6.0   0.06    0.1    0.003771    0.127615    0.095248
   318   10   1.0   0.00    0.0    0.000000    0.200735    0.235132
   319   10   8.0  16.69   36.5    0.117972   -0.849990   -0.850120
   320   10   1.0   0.00    0.0    0.000000    0.519041    0.515259
   321   10   6.0   1.90    3.3   -0.023522    0.166833    0.126501
   322   10   1.0   0.00    0.0    0.000000    0.222316    0.223345
   323   10   8.0   4.13    9.0    0.069437   -0.781701   -0.781343
   324   10  15.0   8.13   10.2    0.124812    1.604112    1.667857
   325   10   8.0  18.89   41.3    0.374875   -0.881646   -0.877613
   326   10   8.0  10.82   23.6    0.242523   -0.919710   -0.923133
   327   10   8.0   2.87    6.3    0.020399   -0.979428   -0.817066
   328   11   6.0  12.41   21.9   -0.098332    0.174805   -0.006703
   329   11   1.0   0.00    0.0    0.000000    0.228617    0.214983
   330   11   1.0   0.00    0.0    0.000000    0.233852    0.208375
   331   11   6.0   6.40   11.3   -0.077099    0.073964    0.124486
   332   11   1.0   0.00    0.0    0.000000    0.233314    0.230666
   333   11   8.0   2.77    6.1    0.034939   -0.718337   -0.722901
   334   11   6.0   2.38    4.2   -0.016668    0.444048    0.421030
   335   11   1.0   0.00    0.0    0.000000    0.226712    0.243941
   336   11   7.0   0.85    1.7   -0.001814   -0.854130   -0.860115
   337   11   6.0   2.06    3.6    0.003755    0.198656    0.182802
   338   11   1.0   0.00    0.0    0.000000    0.303783    0.323404
   339   11   6.0   1.89    3.3   -0.008515    1.099657    1.105478
   340   11   8.0   6.91   15.1    0.104101   -0.657020   -0.669242
   341   11   7.0   2.07    4.1    0.005215   -0.914583   -1.014901
   342   11   1.0   0.00    0.0    0.000000    0.470637    0.550463
   343   11   6.0   1.86    3.3   -0.003620    0.873540    0.881168
   344   11   8.0  14.40   31.5    0.187718   -0.732894   -0.723761
   345   11   6.0   9.49   16.7   -0.028559   -0.448010   -0.446920
   346   11   1.0   0.00    0.0    0.000000    0.272058    0.270427
   347   11   6.0   4.90    8.6   -0.049393    0.113918    0.118206
   348   11   1.0   0.00    0.0    0.000000    0.252588    0.251612
   349   11   8.0  20.43   44.7    0.052290   -0.829708   -0.834139
   350   11   1.0   0.00    0.0    0.000000    0.503460    0.505456
   351   11   6.0   6.80   12.0   -0.068739    0.171103    0.139303
   352   11   1.0   0.00    0.0    0.000000    0.215678    0.216063
   353   11   8.0  22.42   49.0    0.034723   -0.846410   -0.845654
   354   11   1.0   0.00    0.0    0.000000    0.505105    0.504813

 Done with FMO properties.
 CPU     0: STEP CPU TIME=     0.01 TOTAL CPU TIME=      16955.8 (    282.6 MIN)
 TOTAL WALL CLOCK TIME=      39003.3 SECONDS, CPU UTILIZATION IS    43.47%
 CPU     0: STEP CPU TIME=     0.00 TOTAL CPU TIME=      16955.8 (    282.6 MIN)
 TOTAL WALL CLOCK TIME=      39003.3 SECONDS, CPU UTILIZATION IS    43.47%

 Total timing statistics in pairs (CPU,wall) for each rank, sec

    Rank   total     SCF    corr     DFT    CPHF     EFP    solv     ESP    geom
 -------------------------------------------------------------------------------
       1   16955.8   4887.9   6651.7      0.0    0.0   0.0  172.0  4885.0    0.0
       1   39003.5  10786.6  17254.0      0.0    0.0   0.0  465.1  9662.3    0.0
       2   16564.3   4836.1   6407.1      0.0    0.0   0.0  173.6  4793.0    0.0
       2   39003.5  10746.3  17253.9      0.0    0.0   0.0  465.2  9661.6    0.0
       3   16512.4   4868.0   6275.6      0.0    0.0   0.0  173.2  4842.8    0.0
       3   39003.5  10746.7  17253.8      0.0    0.0   0.0  465.1  9661.6    0.0
       4   16401.7   4831.7   6277.0      0.0    0.0   0.0  172.4  4770.4    0.0
       4   39003.5  10747.1  17253.8      0.0    0.0   0.0  464.3  9661.5    0.0
       5   17173.7   4923.0   6852.6      0.0    0.0   0.0  171.4  4888.7    0.0
       5   39003.5  10747.3  17253.8      0.0    0.0   0.0  464.8  9661.6    0.0
       6   16153.4   4857.2   5881.8      0.0    0.0   0.0  171.6  4900.0    0.0
       6   39003.5  10747.7  17253.8      0.0    0.0   0.0  464.0  9661.5    0.0
       7   16152.8   4838.7   6121.7      0.0    0.0   0.0  171.7  4677.5    0.0
       7   39003.5  10747.7  17253.8      0.0    0.0   0.0  464.2  9661.4    0.0
       8   16182.8   4810.3   6238.0      0.0    0.0   0.0  171.7  4643.6    0.0
       8   39003.5  10748.3  17253.8      0.0    0.0   0.0  463.2  9661.3    0.0
       9   16586.5   4884.7   6357.1      0.0    0.0   0.0  167.8  4830.1    0.0
       9   39003.5  10748.2  17253.8      0.0    0.0   0.0  463.3  9661.8    0.0
      10   16166.2   4877.1   6037.2      0.0    0.0   0.0  169.1  4750.3    0.0
      10   39003.5  10747.6  17253.8      0.0    0.0   0.0  463.6  9661.7    0.0
      11   16908.4   4894.6   6673.0      0.0    0.0   0.0  168.9  4830.8    0.0
      11   39003.5  10748.6  17253.8      0.0    0.0   0.0  462.8  9661.8    0.0
      12   16571.8   4850.2   6447.2      0.0    0.0   0.0  169.6  4783.2    0.0
      12   39003.5  10748.4  17253.8      0.0    0.0   0.0  462.2  9661.8    0.0
      13   15658.4   4848.8   5632.1      0.0    0.0   0.0  166.6  4676.5    0.0
      13   39003.5  10749.5  17253.7      0.0    0.0   0.0  462.3  9661.8    0.0
      14   16300.9   4859.4   6236.9      0.0    0.0   0.0  169.1  4704.2    0.0
      14   39003.5  10748.9  17253.8      0.0    0.0   0.0  462.4  9661.6    0.0
      15   16801.1   4850.8   6728.3      0.0    0.0   0.0  168.5  4722.5    0.0
      15   39003.5  10749.3  17253.7      0.0    0.0   0.0  462.0  9661.7    0.0
      16   15952.6   4798.9   6031.4      0.0    0.0   0.0  169.7  4634.6    0.0
      16   39003.5  10749.0  17253.7      0.0    0.0   0.0  461.3  9661.7    0.0
averaged   16440.2   4857.3   6303.1      0.0    0.0   0.0  170.4  4770.8    0.0
averaged   39003.5  10750.5  17253.8      0.0    0.0   0.0  463.5  9661.7    0.0

  FMO  timing statistics in pairs (CPU,wall) for each rank, sec

    Rank  FMOini FMOscf1  FMOdm1 FMOsyn1 FMOscf2  FMOes2 FMOsyn2 FMOscf3 FMOsyn3
 -------------------------------------------------------------------------------
       1    2.3    6517.1    0.3    0.0   10183.7     252.4    0.0    0.0    0.0
       1    6.2   13900.0    6.9    0.0   24597.4     484.2    0.0    0.0    0.0
       2    1.7    6385.1    0.1    0.0    9925.2     252.3    0.0    0.0    0.0
       2    6.2   13900.0    6.9    0.0   24599.2     482.5    0.0    0.0    0.0
       3    1.9    6508.4    0.2    0.0    9752.3     249.7    0.0    0.0    0.0
       3    6.2   13900.0    6.9    0.0   24599.6     482.0    0.0    0.0    0.0
       4    1.7    6402.2    0.1    0.0    9749.5     248.1    0.0    0.0    0.0
       4    6.2   13900.0    6.9    0.0   24599.4     482.3    0.0    0.0    0.0
       5    2.0    6532.9    0.2    0.0   10403.6     234.9    0.0    0.0    0.0
       5    6.2   13900.0    6.9    0.0   24598.9     482.7    0.0    0.0    0.0
       6    1.7    6600.4    0.1    0.0    9309.4     241.7    0.0    0.0    0.0
       6    6.2   13900.0    6.9    0.0   24599.3     482.3    0.0    0.0    0.0
       7    1.8    6418.3    0.1    0.0    9491.2     241.3    0.0    0.0    0.0
       7    6.2   13900.0    6.9    0.0   24599.7     481.9    0.0    0.0    0.0
       8    1.6    6381.0    0.1    0.0    9582.2     217.9    0.0    0.0    0.0
       8    6.2   13900.0    6.9    0.0   24598.5     483.1    0.0    0.0    0.0
       9    2.0    6494.5    0.2    0.0    9844.2     245.6    0.0    0.0    0.0
       9    6.2   13900.0    6.9    0.0   24598.8     482.9    0.0    0.0    0.0
      10    1.6    6404.6    0.1    0.0    9527.3     232.6    0.0    0.0    0.0
      10    6.2   13900.0    6.9    0.0   24600.0     481.7    0.0    0.0    0.0
      11    1.7    6463.2    0.2    0.0   10203.1     240.3    0.0    0.0    0.0
      11    6.2   13900.0    6.9    0.0   24598.9     482.7    0.0    0.0    0.0
      12    1.5    6442.5    0.1    0.0    9905.3     222.4    0.0    0.0    0.0
      12    6.2   13900.0    6.9    0.0   24599.4     482.2    0.0    0.0    0.0
      13    1.8    6422.4    0.2    0.0    8999.0     235.0    0.0    0.0    0.0
      13    6.2   13900.0    6.9    0.0   24598.2     483.4    0.0    0.0    0.0
      14    1.5    6426.4    0.0    0.0    9641.2     231.7    0.0    0.0    0.0
      14    6.2   13900.0    6.9    0.0   24598.8     482.9    0.0    0.0    0.0
      15    1.7    6375.2    0.1    0.0   10191.9     232.3    0.0    0.0    0.0
      15    6.2   13900.0    6.9    0.0   24598.8     482.8    0.0    0.0    0.0
      16    1.5    6336.4    0.1    0.0    9395.1     219.5    0.0    0.0    0.0
      16    6.2   13900.0    6.9    0.0   24599.3     482.4    0.0    0.0    0.0
averaged    1.7    6444.4    0.1    0.0    9756.5     237.4    0.0    0.0    0.0
averaged    6.2   13900.0    6.9    0.0   24599.0     482.6    0.0    0.0    0.0
             62765284  WORDS OF DYNAMIC MEMORY USED
 EXECUTION OF GAMESS TERMINATED NORMALLY Sun Dec  8 07:43:58 2019
 DDI: 263640 bytes (0.3 MB / 0 MWords) used by master data server.

 ----------------------------------------
 CPU timing information for all processes
 ========================================
 0: 16552.453 + 403.349 = 16955.803
 1: 16207.427 + 356.944 = 16564.371
 2: 16148.246 + 364.198 = 16512.444
 3: 16048.792 + 352.926 = 16401.719
 4: 16767.183 + 406.524 = 17173.707
 5: 15813.759 + 339.661 = 16153.420
 6: 15785.681 + 367.149 = 16152.831
 7: 15829.73 + 353.745 = 16182.818
 8: 16211.254 + 375.265 = 16586.519
 9: 15837.584 + 328.614 = 16166.198
 10: 16525.714 + 382.723 = 16908.437
 11: 16210.114 + 361.756 = 16571.870
 12: 15315.361 + 343.87 = 15658.448
 13: 15953.199 + 347.681 = 16300.880
 14: 16422.133 + 379.07 = 16801.140
 15: 15619.101 + 333.480 = 15952.582
 ----------------------------------------
 ddikick.x: exited gracefully.
----- accounting info -----
Files used on the master node gollum075.lsa.umich.edu were:
-rw-r--r-- 1 hazwong frank    17690 Dec  7 20:53 /scratch/hazwong/824329/2LUB_6/usrc/2LUB_6_fmo_input.F05
-rw-r--r-- 1 hazwong frank      634 Dec  8 07:44 /scratch/hazwong/824329/2LUB_6/usrc/2LUB_6_fmo_input.F06.001
-rw-r--r-- 1 hazwong frank      634 Dec  8 07:44 /scratch/hazwong/824329/2LUB_6/usrc/2LUB_6_fmo_input.F06.002
-rw-r--r-- 1 hazwong frank      634 Dec  8 07:44 /scratch/hazwong/824329/2LUB_6/usrc/2LUB_6_fmo_input.F06.003
-rw-r--r-- 1 hazwong frank      634 Dec  8 07:44 /scratch/hazwong/824329/2LUB_6/usrc/2LUB_6_fmo_input.F06.004
-rw-r--r-- 1 hazwong frank      634 Dec  8 07:44 /scratch/hazwong/824329/2LUB_6/usrc/2LUB_6_fmo_input.F06.005
-rw-r--r-- 1 hazwong frank      634 Dec  8 07:44 /scratch/hazwong/824329/2LUB_6/usrc/2LUB_6_fmo_input.F06.006
-rw-r--r-- 1 hazwong frank      634 Dec  8 07:44 /scratch/hazwong/824329/2LUB_6/usrc/2LUB_6_fmo_input.F06.007
-rw-r--r-- 1 hazwong frank      634 Dec  8 07:44 /scratch/hazwong/824329/2LUB_6/usrc/2LUB_6_fmo_input.F06.008
-rw-r--r-- 1 hazwong frank      634 Dec  8 07:44 /scratch/hazwong/824329/2LUB_6/usrc/2LUB_6_fmo_input.F06.009
-rw-r--r-- 1 hazwong frank      634 Dec  8 07:44 /scratch/hazwong/824329/2LUB_6/usrc/2LUB_6_fmo_input.F06.010
-rw-r--r-- 1 hazwong frank      634 Dec  8 07:44 /scratch/hazwong/824329/2LUB_6/usrc/2LUB_6_fmo_input.F06.011
-rw-r--r-- 1 hazwong frank      634 Dec  8 07:44 /scratch/hazwong/824329/2LUB_6/usrc/2LUB_6_fmo_input.F06.012
-rw-r--r-- 1 hazwong frank      634 Dec  8 07:44 /scratch/hazwong/824329/2LUB_6/usrc/2LUB_6_fmo_input.F06.013
-rw-r--r-- 1 hazwong frank      634 Dec  8 07:44 /scratch/hazwong/824329/2LUB_6/usrc/2LUB_6_fmo_input.F06.014
-rw-r--r-- 1 hazwong frank      634 Dec  8 07:44 /scratch/hazwong/824329/2LUB_6/usrc/2LUB_6_fmo_input.F06.015
-rw-r--r-- 1 hazwong frank    10850 Dec  8 07:43 /scratch/hazwong/824329/2LUB_6/usrc/2LUB_6_fmo_input.F07
-rw-r--r-- 1 hazwong frank        0 Dec  7 20:53 /scratch/hazwong/824329/2LUB_6/usrc/2LUB_6_fmo_input.F07.001
-rw-r--r-- 1 hazwong frank        0 Dec  7 20:53 /scratch/hazwong/824329/2LUB_6/usrc/2LUB_6_fmo_input.F07.002
-rw-r--r-- 1 hazwong frank        0 Dec  7 20:53 /scratch/hazwong/824329/2LUB_6/usrc/2LUB_6_fmo_input.F07.003
-rw-r--r-- 1 hazwong frank        0 Dec  7 20:53 /scratch/hazwong/824329/2LUB_6/usrc/2LUB_6_fmo_input.F07.004
-rw-r--r-- 1 hazwong frank        0 Dec  7 20:53 /scratch/hazwong/824329/2LUB_6/usrc/2LUB_6_fmo_input.F07.005
-rw-r--r-- 1 hazwong frank        0 Dec  7 20:53 /scratch/hazwong/824329/2LUB_6/usrc/2LUB_6_fmo_input.F07.006
-rw-r--r-- 1 hazwong frank        0 Dec  7 20:53 /scratch/hazwong/824329/2LUB_6/usrc/2LUB_6_fmo_input.F07.007
-rw-r--r-- 1 hazwong frank        0 Dec  7 20:53 /scratch/hazwong/824329/2LUB_6/usrc/2LUB_6_fmo_input.F07.008
-rw-r--r-- 1 hazwong frank        0 Dec  7 20:53 /scratch/hazwong/824329/2LUB_6/usrc/2LUB_6_fmo_input.F07.009
-rw-r--r-- 1 hazwong frank        0 Dec  7 20:53 /scratch/hazwong/824329/2LUB_6/usrc/2LUB_6_fmo_input.F07.010
-rw-r--r-- 1 hazwong frank        0 Dec  7 20:53 /scratch/hazwong/824329/2LUB_6/usrc/2LUB_6_fmo_input.F07.011
-rw-r--r-- 1 hazwong frank        0 Dec  7 20:53 /scratch/hazwong/824329/2LUB_6/usrc/2LUB_6_fmo_input.F07.012
-rw-r--r-- 1 hazwong frank        0 Dec  7 20:53 /scratch/hazwong/824329/2LUB_6/usrc/2LUB_6_fmo_input.F07.013
-rw-r--r-- 1 hazwong frank        0 Dec  7 20:53 /scratch/hazwong/824329/2LUB_6/usrc/2LUB_6_fmo_input.F07.014
-rw-r--r-- 1 hazwong frank        0 Dec  7 20:53 /scratch/hazwong/824329/2LUB_6/usrc/2LUB_6_fmo_input.F07.015
-rw-r--r-- 1 hazwong frank    65440 Dec  8 07:44 /scratch/hazwong/824329/2LUB_6/usrc/2LUB_6_fmo_input.F10.000
-rw-r--r-- 1 hazwong frank        0 Dec  7 20:53 /scratch/hazwong/824329/2LUB_6/usrc/2LUB_6_fmo_input.F26.000
-rw-r--r-- 1 hazwong frank        0 Dec  7 20:53 /scratch/hazwong/824329/2LUB_6/usrc/2LUB_6_fmo_input.F26.001
-rw-r--r-- 1 hazwong frank        0 Dec  7 20:53 /scratch/hazwong/824329/2LUB_6/usrc/2LUB_6_fmo_input.F26.002
-rw-r--r-- 1 hazwong frank        0 Dec  7 20:53 /scratch/hazwong/824329/2LUB_6/usrc/2LUB_6_fmo_input.F26.003
-rw-r--r-- 1 hazwong frank        0 Dec  7 20:53 /scratch/hazwong/824329/2LUB_6/usrc/2LUB_6_fmo_input.F26.004
-rw-r--r-- 1 hazwong frank        0 Dec  7 20:53 /scratch/hazwong/824329/2LUB_6/usrc/2LUB_6_fmo_input.F26.005
-rw-r--r-- 1 hazwong frank        0 Dec  7 20:53 /scratch/hazwong/824329/2LUB_6/usrc/2LUB_6_fmo_input.F26.006
-rw-r--r-- 1 hazwong frank        0 Dec  7 20:53 /scratch/hazwong/824329/2LUB_6/usrc/2LUB_6_fmo_input.F26.007
-rw-r--r-- 1 hazwong frank        0 Dec  7 20:53 /scratch/hazwong/824329/2LUB_6/usrc/2LUB_6_fmo_input.F26.008
-rw-r--r-- 1 hazwong frank        0 Dec  7 20:53 /scratch/hazwong/824329/2LUB_6/usrc/2LUB_6_fmo_input.F26.009
-rw-r--r-- 1 hazwong frank        0 Dec  7 20:53 /scratch/hazwong/824329/2LUB_6/usrc/2LUB_6_fmo_input.F26.010
-rw-r--r-- 1 hazwong frank        0 Dec  7 20:53 /scratch/hazwong/824329/2LUB_6/usrc/2LUB_6_fmo_input.F26.011
-rw-r--r-- 1 hazwong frank        0 Dec  7 20:53 /scratch/hazwong/824329/2LUB_6/usrc/2LUB_6_fmo_input.F26.012
-rw-r--r-- 1 hazwong frank        0 Dec  7 20:53 /scratch/hazwong/824329/2LUB_6/usrc/2LUB_6_fmo_input.F26.013
-rw-r--r-- 1 hazwong frank        0 Dec  7 20:53 /scratch/hazwong/824329/2LUB_6/usrc/2LUB_6_fmo_input.F26.014
-rw-r--r-- 1 hazwong frank        0 Dec  7 20:53 /scratch/hazwong/824329/2LUB_6/usrc/2LUB_6_fmo_input.F26.015
-rw-r--r-- 1 hazwong frank        0 Dec  7 20:53 /scratch/hazwong/824329/2LUB_6/usrc/2LUB_6_fmo_input.F27.000
-rw-r--r-- 1 hazwong frank        0 Dec  7 20:53 /scratch/hazwong/824329/2LUB_6/usrc/2LUB_6_fmo_input.F27.001
-rw-r--r-- 1 hazwong frank        0 Dec  7 20:53 /scratch/hazwong/824329/2LUB_6/usrc/2LUB_6_fmo_input.F27.002
-rw-r--r-- 1 hazwong frank        0 Dec  7 20:53 /scratch/hazwong/824329/2LUB_6/usrc/2LUB_6_fmo_input.F27.003
-rw-r--r-- 1 hazwong frank        0 Dec  7 20:53 /scratch/hazwong/824329/2LUB_6/usrc/2LUB_6_fmo_input.F27.004
-rw-r--r-- 1 hazwong frank        0 Dec  7 20:53 /scratch/hazwong/824329/2LUB_6/usrc/2LUB_6_fmo_input.F27.005
-rw-r--r-- 1 hazwong frank        0 Dec  7 20:53 /scratch/hazwong/824329/2LUB_6/usrc/2LUB_6_fmo_input.F27.006
-rw-r--r-- 1 hazwong frank        0 Dec  7 20:53 /scratch/hazwong/824329/2LUB_6/usrc/2LUB_6_fmo_input.F27.007
-rw-r--r-- 1 hazwong frank        0 Dec  7 20:53 /scratch/hazwong/824329/2LUB_6/usrc/2LUB_6_fmo_input.F27.008
-rw-r--r-- 1 hazwong frank        0 Dec  7 20:53 /scratch/hazwong/824329/2LUB_6/usrc/2LUB_6_fmo_input.F27.009
-rw-r--r-- 1 hazwong frank        0 Dec  7 20:53 /scratch/hazwong/824329/2LUB_6/usrc/2LUB_6_fmo_input.F27.010
-rw-r--r-- 1 hazwong frank        0 Dec  7 20:53 /scratch/hazwong/824329/2LUB_6/usrc/2LUB_6_fmo_input.F27.011
-rw-r--r-- 1 hazwong frank        0 Dec  7 20:53 /scratch/hazwong/824329/2LUB_6/usrc/2LUB_6_fmo_input.F27.012
-rw-r--r-- 1 hazwong frank        0 Dec  7 20:53 /scratch/hazwong/824329/2LUB_6/usrc/2LUB_6_fmo_input.F27.013
-rw-r--r-- 1 hazwong frank        0 Dec  7 20:53 /scratch/hazwong/824329/2LUB_6/usrc/2LUB_6_fmo_input.F27.014
-rw-r--r-- 1 hazwong frank        0 Dec  7 20:53 /scratch/hazwong/824329/2LUB_6/usrc/2LUB_6_fmo_input.F27.015
-rw-r--r-- 1 hazwong frank 22495232 Dec  8 00:45 /scratch/hazwong/824329/2LUB_6/usrc/2LUB_6_fmo_input.F40.000
-rw-r--r-- 1 hazwong frank 22495232 Dec  8 00:45 /scratch/hazwong/824329/2LUB_6/usrc/2LUB_6_fmo_input.F40.001
-rw-r--r-- 1 hazwong frank 22495232 Dec  8 00:45 /scratch/hazwong/824329/2LUB_6/usrc/2LUB_6_fmo_input.F40.002
-rw-r--r-- 1 hazwong frank 22495232 Dec  8 00:45 /scratch/hazwong/824329/2LUB_6/usrc/2LUB_6_fmo_input.F40.003
-rw-r--r-- 1 hazwong frank 22495232 Dec  8 00:45 /scratch/hazwong/824329/2LUB_6/usrc/2LUB_6_fmo_input.F40.004
-rw-r--r-- 1 hazwong frank 22495232 Dec  8 00:45 /scratch/hazwong/824329/2LUB_6/usrc/2LUB_6_fmo_input.F40.005
-rw-r--r-- 1 hazwong frank 22495232 Dec  8 00:45 /scratch/hazwong/824329/2LUB_6/usrc/2LUB_6_fmo_input.F40.006
-rw-r--r-- 1 hazwong frank 22495232 Dec  8 00:45 /scratch/hazwong/824329/2LUB_6/usrc/2LUB_6_fmo_input.F40.007
-rw-r--r-- 1 hazwong frank 22495232 Dec  8 00:45 /scratch/hazwong/824329/2LUB_6/usrc/2LUB_6_fmo_input.F40.008
-rw-r--r-- 1 hazwong frank 22495232 Dec  8 00:45 /scratch/hazwong/824329/2LUB_6/usrc/2LUB_6_fmo_input.F40.009
-rw-r--r-- 1 hazwong frank 22495232 Dec  8 00:45 /scratch/hazwong/824329/2LUB_6/usrc/2LUB_6_fmo_input.F40.010
-rw-r--r-- 1 hazwong frank 22495232 Dec  8 00:45 /scratch/hazwong/824329/2LUB_6/usrc/2LUB_6_fmo_input.F40.011
-rw-r--r-- 1 hazwong frank 22495232 Dec  8 00:45 /scratch/hazwong/824329/2LUB_6/usrc/2LUB_6_fmo_input.F40.012
-rw-r--r-- 1 hazwong frank 22495232 Dec  8 00:45 /scratch/hazwong/824329/2LUB_6/usrc/2LUB_6_fmo_input.F40.013
-rw-r--r-- 1 hazwong frank 22495232 Dec  8 00:45 /scratch/hazwong/824329/2LUB_6/usrc/2LUB_6_fmo_input.F40.014
-rw-r--r-- 1 hazwong frank 22495232 Dec  8 00:45 /scratch/hazwong/824329/2LUB_6/usrc/2LUB_6_fmo_input.F40.015
Sun Dec  8 07:44:01 EST 2019
0.187u 0.087s 10:50:07.02 0.0%	0+0k 1128+136io 22pf+0w
