----- GAMESS execution script 'rungms' -----
This job is running on host gollum076.lsa.umich.edu
under operating system Linux at Fri Aug 2 13:06:47 EDT 2019
Available scratch disk space (Kbyte units) at beginning of the job is
Filesystem     1K-blocks  Used Available Use% Mounted on
/dev/sda4      426933580 33272 426900308   1% /scratch
GAMESS temporary binary files will be written to /scratch/afrankz/840478/2LX1_5/usrc
GAMESS supplementary output files will be written to /scratch/afrankz/840478/2LX1_5/src
Copying input file 2LX1_5_minimized_charmm.inp to your run's scratch directory...
This is a GDDI run, keeping various output files on local disks
 
Assuming a single but multicore node.
 

 Distributed Data Interface kickoff program.
 Initiating 16 compute processes on 1 nodes to run the following command:
 /export/apps/CentOS7/gamess/src/build//gamess.R3.x 2LX1_5_minimized_charmm 

          ******************************************************
          *         GAMESS VERSION = 30 SEP 2018 (R3)         *
          *             FROM IOWA STATE UNIVERSITY             *
          * M.W.SCHMIDT, K.K.BALDRIDGE, J.A.BOATZ, S.T.ELBERT, *
          *   M.S.GORDON, J.H.JENSEN, S.KOSEKI, N.MATSUNAGA,   *
          *          K.A.NGUYEN, S.J.SU, T.L.WINDUS,           *
          *       TOGETHER WITH M.DUPUIS, J.A.MONTGOMERY       *
          *         J.COMPUT.CHEM.  14, 1347-1363(1993)        *
          **************** 64 BIT LINUX VERSION ****************

  SINCE 1993, STUDENTS AND POSTDOCS WORKING AT IOWA STATE UNIVERSITY
  AND ALSO IN THEIR VARIOUS JOBS AFTER LEAVING ISU HAVE MADE IMPORTANT
  CONTRIBUTIONS TO THE CODE:
     IVANA ADAMOVIC, CHRISTINE AIKENS, YURI ALEXEEV, POOJA ARORA,
     ANDREY ASADCHEV, ROB BELL, PRADIPTA BANDYOPADHYAY, JONATHAN BENTZ,
     BRETT BODE, KURT BRORSEN, CALEB CARLIN, GALINA CHABAN, WEI CHEN,
     CHEOL HO CHOI, PAUL DAY, ALBERT DEFUSCO, NUWAN DESILVA, TIM DUDLEY,
     DMITRI FEDOROV, ALEX FINDLATER, GRAHAM FLETCHER, MARK FREITAG,
     KURT GLAESEMANN, ANASTASIA GUNINA,
     DAN KEMP, GRANT MERRILL, NORIYUKI MINEZAWA, JONATHAN MULLIN,
     TAKESHI NAGATA, SEAN NEDD, HEATHER NETZLOFF, BOSILJKA NJEGIC, RYAN OLSON,
     MIKE PAK, BUU PHAM,
     SPENCER PRUITT, LUKE ROSKOP, JIM SHOEMAKER, LYUDMILA SLIPCHENKO,
     TONY SMITH, SAROM SOK LEANG, JIE SONG, TETSUYA TAKETSUGU, SIMON WEBB,
     PENG XU, SOOHAENG YOO, FEDERICO ZAHARIEV

  ADDITIONAL CODE HAS BEEN PROVIDED BY COLLABORATORS IN OTHER GROUPS:
     IOWA STATE UNIVERSITY:
          JOE IVANIC, AARON WEST, LAIMUTIS BYTAUTAS, KLAUS RUEDENBERG
     UNIVERSITY OF TOKYO: KIMIHIKO HIRAO, TAKAHITO NAKAJIMA,
          TAKAO TSUNEDA, MUNEAKI KAMIYA, SUSUMU YANAGISAWA,
          KIYOSHI YAGI, MAHITO CHIBA, SEIKEN TOKURA, NAOAKI KAWAKAMI
     UNIVERSITY OF AARHUS: FRANK JENSEN
     UNIVERSITY OF IOWA: VISVALDAS KAIRYS, HUI LI
     NATIONAL INST. OF STANDARDS AND TECHNOLOGY: WALT STEVENS, DAVID GARMER
     UNIVERSITY OF PISA: BENEDETTA MENNUCCI, JACOPO TOMASI
     UNIVERSITY OF MEMPHIS: HENRY KURTZ, PRAKASHAN KORAMBATH
     UNIVERSITY OF ALBERTA: TOBY ZENG, MARIUSZ KLOBUKOWSKI
     UNIVERSITY OF NEW ENGLAND: MARK SPACKMAN
     MIE UNIVERSITY: HIROAKI UMEDA
     NAT. INST. OF ADVANCED INDUSTRIAL SCIENCE AND TECHNOLOGY: KAZUO KITAURA
     MICHIGAN STATE UNIVERSITY:
          KAROL KOWALSKI, MARTA WLOCH, JEFFREY GOUR, JESSE LUTZ,
          WEI LI, JUN SHEN, J. EMILIANO DEUSTUA, PIOTR PIECUCH
     UNIVERSITY OF MINNESOTA:
          YINAN SHU
     UNIVERSITY OF SILESIA: MONIKA MUSIAL, STANISLAW KUCHARSKI
     FACULTES UNIVERSITAIRES NOTRE-DAME DE LA PAIX:
          OLIVIER QUINET, BENOIT CHAMPAGNE
     UNIVERSITY OF CALIFORNIA - SANTA BARBARA: BERNARD KIRTMAN
     INSTITUTE FOR MOLECULAR SCIENCE:
          KAZUYA ISHIMURA, MICHIO KATOUDA, AND SHIGERU NAGASE
     UNIVERSITY OF NOTRE DAME: ANNA POMOGAEVA, DAN CHIPMAN
     KYUSHU UNIVERSITY:
          HARUYUKI NAKANO,
          FENG LONG GU, JACEK KORCHOWIEC, MARCIN MAKOWSKI, AND YURIKO AOKI,
          HIROTOSHI MORI AND EISAKU MIYOSHI
     PENNSYLVANIA STATE UNIVERSITY:
          TZVETELIN IORDANOV, CHET SWALINA, JONATHAN SKONE,
          SHARON HAMMES-SCHIFFER
     WASEDA UNIVERSITY:
          MASATO KOBAYASHI, TOMOKO AKAMA, TSUGUKI TOUMA,
          TAKESHI YOSHIKAWA, YASUHIRO IKABATA, JUNJI SEINO,
          YUYA NAKAJIMA, HIROMI NAKAI
     NANJING UNIVERSITY: SHUHUA LI
     UNIVERSITY OF NEBRASKA:
          PEIFENG SU, DEJUN SI, NANDUN THELLAMUREGE, YALI WANG, HUI LI
     UNIVERSITY OF ZURICH: ROBERTO PEVERATI, KIM BALDRIDGE
     N. COPERNICUS UNIVERSITY AND JACKSON STATE UNIVERSITY:
          MARIA BARYSZ
     UNIVERSITY OF COPENHAGEN: Jimmy Kromann, CASPER STEINMANN
     TOKYO INSTITUTE OF TECHNOLOGY: HIROYA NAKATA
     NAGOYA UNIVERSITY: YOSHIO NISHIMOTO, STEPHAN IRLE
     MOSCOW STATE UNIVERSITY: VLADIMIR MIRONOV


 PARALLEL VERSION RUNNING ON       16 PROCESSORS IN        1 NODES.

 EXECUTION OF GAMESS BEGUN Fri Aug  2 13:06:51 2019

            ECHO OF THE FIRST FEW INPUT CARDS -
 INPUT CARD>!*** FMO 5.3 (Gamess) INPUT generated by Facio 22.1.1.32 ***                    
 INPUT CARD> $CONTRL RUNTYP=ENERGY NPRINT=-5 ISPHER=1 MAXIT=200 $END                        
 INPUT CARD> $SYSTEM MWORDS=63 MEMDDI=63 $END                                               
 INPUT CARD> $GDDI NGROUP=1 $END                                                            
 INPUT CARD> $SCF DIRSCF=.TRUE. NPUNCH=0 $END                                               
 INPUT CARD>!*** NumCPU : 2  MemPerNode : 512MB                                             
 INPUT CARD> $PCM SOLVNT=WATER IEF=-10 ICOMP=2 ICAV=1 IDISP=1 IFMO=-1 $END                  
 INPUT CARD> $PCMCAV RADII=SUAHF $END                                                       
 INPUT CARD> $TESCAV NTSALL=60 $END                                                         
 INPUT CARD> $FMOPRP                                                                        
 INPUT CARD>    NAODIR=200                                                                  
 INPUT CARD>    NGRFMO(1)=1, 1, 0, 0, 0,   0, 0, 0, 0, 0                                    
 INPUT CARD>    IPIEDA=1                                                                    
 INPUT CARD>    NPRINT=9                                                                    
 INPUT CARD> $END                                                                           
 INPUT CARD> $FMO                                                                           
 INPUT CARD>      SCFTYP(1)=RHF                                                             
 INPUT CARD>      MODGRD=10                                                                 
 INPUT CARD>      MODMUL=0                                                                  
 INPUT CARD>      MAXCAO=5                                                                  
 INPUT CARD>      MAXBND=18                                                                 
 INPUT CARD>      NLAYER=1                                                                  
 INPUT CARD>      MPLEVL(1)=2                                                               
 INPUT CARD>      NFRAG=16                                                                  
 INPUT CARD>      ICHARG(1)=-1, -1, -1, -1, -1, -1, -1, 0, -1, -1, -1, -1, -1, -1,          
 INPUT CARD>-1, 0                                                                           
 INPUT CARD>      FRGNAM(1)=F1, F2, F3, F4, F5, F6, F7, F8, F9, F10, F11, F12, F13,         
 INPUT CARD>F14, F15, F16                                                                   
 INPUT CARD>      indat(1)=0                                                                
 INPUT CARD>               1   -35   0                                                      
 INPUT CARD>               36   -66   0                                                     
 INPUT CARD>               67   -100   0                                                    
 INPUT CARD>               101   -133   0                                                   
 INPUT CARD>               134   -167   0                                                   
 INPUT CARD>               168   -197   0                                                   
 INPUT CARD>               198   -231   0                                                   
 INPUT CARD>               232   -260   0                                                   
 INPUT CARD>               261   -293   0                                                   
 INPUT CARD>               294   -324   0                                                   
 INPUT CARD>               325   -358   0                                                   
 INPUT CARD>               359   -391   0                                                   
 INPUT CARD>               392   -425   0                                                   
 INPUT CARD>               426   -455   0                                                   
 INPUT CARD>               456   -489   0                                                   
 INPUT CARD>               490   -516   0                                                   
 INPUT CARD> $END                                                                           
 INPUT CARD>                                                                                
 INPUT CARD> $FMOBND                                                                        
 INPUT CARD>   -36   35       6-31G*    MINI                                                
 INPUT CARD>   -67   66       6-31G*    MINI                                                


 -------------------------------------------------------------
 GROUP DDI, PROGRAMMED BY: RYAN M. OLSON AND DMITRI G. FEDOROV
        FEDOROV ET AL., J. COMPUT. CHEM., 25 (2004) 872.
 -------------------------------------------------------------

 -------------------------------------------------------
 GDDI: INITIALIZATION COMPLETED FOR GROUP     1 OF     1
 WITH    16 PROCESSES BALTYP=DLB   global rank=        0
 -------------------------------------------------------

   63000000 WORDS OF MEMORY AVAILABLE


     RUN TITLE
     ---------
  FMO calculation                                                                

 THE POINT GROUP OF THE MOLECULE IS C1      
 THE ORDER OF THE PRINCIPAL AXIS IS     0

 ATOM   ATOMIC CHARGE
 H.1-1       1.0
 O.1-1       8.0
 C.1-1       6.0
 N.1-1       7.0
 P.1-1      15.0

     ATOMIC BASIS SET LIBRARY
     ----------------
 THE CONTRACTED PRIMITIVE FUNCTIONS HAVE BEEN UNNORMALIZED
 THE CONTRACTED BASIS FUNCTIONS ARE NOW NORMALIZED TO UNITY

  SHELL TYPE  PRIMITIVE        EXPONENT          CONTRACTION COEFFICIENT(S)

 H.1-1     

      1   S       1            18.7311370    0.033494604338
      1   S       2             2.8253944    0.234726953484
      1   S       3             0.6401217    0.813757326146

      2   S       4             0.1612778    1.000000000000

 O.1-1     

      3   S       5          5484.6716600    0.001831074430
      3   S       6           825.2349460    0.013950172200
      3   S       7           188.0469580    0.068445078098
      3   S       8            52.9645000    0.232714335992
      3   S       9            16.8975704    0.470192897984
      3   S      10             5.7996353    0.358520852987

      4   L      11            15.5396162   -0.110777549525    0.070874268231
      4   L      12             3.5999336   -0.148026262701    0.339752839147
      4   L      13             1.0137618    1.130767015354    0.727158577316

      5   L      14             0.2700058    1.000000000000    1.000000000000

      6   D      15             0.8000000    1.000000000000

 C.1-1     

      7   S      16          3047.5248800    0.001834737132
      7   S      17           457.3695180    0.014037322813
      7   S      18           103.9486850    0.068842622264
      7   S      19            29.2101553    0.232184443216
      7   S      20             9.2866630    0.467941348435
      7   S      21             3.1639270    0.362311985337

      8   L      22             7.8682723   -0.119332419775    0.068999066591
      8   L      23             1.8812885   -0.160854151696    0.316423960957
      8   L      24             0.5442493    1.143456437840    0.744308290898

      9   L      25             0.1687145    1.000000000000    1.000000000000

     10   D      26             0.8000000    1.000000000000

 N.1-1     

     11   S      27          4173.5114600    0.001834772160
     11   S      28           627.4579110    0.013994627002
     11   S      29           142.9020930    0.068586551812
     11   S      30            40.2343293    0.232240873040
     11   S      31            12.8202129    0.469069948082
     11   S      32             4.3904370    0.360455199063

     12   L      33            11.6263619   -0.114961181702    0.067579743878
     12   L      34             2.7162798   -0.169117478561    0.323907295893
     12   L      35             0.7722184    1.145851947027    0.740895139755

     13   L      36             0.2120315    1.000000000000    1.000000000000

     14   D      37             0.8000000    1.000000000000

 P.1-1     

     15   S      38         19413.3000000    0.001851598923
     15   S      39          2909.4200000    0.014206191735
     15   S      40           661.3640000    0.069999459277
     15   S      41           185.7590000    0.240078860331
     15   S      42            59.1943000    0.484761717984
     15   S      43            20.0310000    0.335199804993

     16   L      44           339.4780000   -0.002782170105    0.004564616191
     16   L      45            81.0101000   -0.036049901354    0.033693571881
     16   L      46            25.8780000   -0.116631004382    0.139754883368
     16   L      47             9.4522100    0.096832803638    0.339361716786
     16   L      48             3.6656600    0.614418023082    0.450920623685
     16   L      49             1.4674600    0.403798015170    0.238585800889

     17   L      50             2.1562300   -0.252924113863   -0.017765312733
     17   L      51             0.7489970    0.032851844678    0.274058196433
     17   L      52             0.2831450    1.081254761783    0.785421562957

     18   L      53             0.0998317    1.000000000000    1.000000000000

     19   D      54             0.5500000    1.000000000000

 TOTAL NUMBER OF BASIS SET SHELLS             =   19
 NUMBER OF CARTESIAN GAUSSIAN BASIS FUNCTIONS =   66

     $CONTRL OPTIONS
     ---------------
 SCFTYP=RHF          RUNTYP=ENERGY       EXETYP=RUN     
 MPLEVL=       0     CITYP =NONE         CCTYP =NONE         VBTYP =NONE    
 DFTTYP=NONE         TDDFT =NONE    
 MULT  =       1     ICHARG=       0     NZVAR =       0     COORD =UNIQUE  
 PP    =NONE         RELWFN=NONE         LOCAL =NONE         NUMGRD=       F
 ISPHER=       1     NOSYM =       0     MAXIT =     200     UNITS =ANGS    
 PLTORB=       F     MOLPLT=       F     AIMPAC=       F     FRIEND=        
 NPRINT=      -5     IREST =       0     GEOM  =INPUT   
 NORMF =       0     NORMP =       0     ITOL  =      24     ICUT  =      12
 INTTYP=BEST         GRDTYP=BEST         QMTTOL= 1.0E-06

     $SYSTEM OPTIONS
     ---------------
  REPLICATED MEMORY=    63000000 WORDS (ON EVERY NODE).
 DISTRIBUTED MEMDDI=          63 MILLION WORDS IN AGGREGATE,
 MEMDDI DISTRIBUTED OVER  16 PROCESSORS IS     3937500 WORDS/PROCESSOR.
 TOTAL MEMORY REQUESTED ON EACH PROCESSOR=    66937500 WORDS.
 TIMLIM=      525600.00 MINUTES, OR     365.0 DAYS.
 PARALL= T  BALTYP=  DLB     KDIAG=    0  COREFL= F
 MXSEQ2=     300 MXSEQ3=     150  mem10=         0

 ** LOOKING UP INTERNALLY STORED DATA FOR SOLVENT=WATER    **
 OPTICAL AND PHYSICAL CONSTANTS:
 EPS= 78.390; EPSINF=  1.776; RSOLV=  1.385 A; VMOL=  18.070 ML/MOL;
 TCE= .25700E-03 1/K; STEN= 71.810 DYN/CM;  DSTEN=  0.6500; CMF=  1.2770


     -----------------------------------
     INPUT FOR PCM SOLVATION CALCULATION 
     -----------------------------------
     IEF   =     -10
     ICOMP =       2     IFIELD=       0     ICAV  =       1
     IDISP =       1     IREP  =       0     IDP   =       0

     SOLVNT=WATER        EPS   = 78.3900     EPSINF=  1.7760
     VMOL  = 18.0700     TCE   =  0.00025700 STEN  = 71.8100
     DSTEN =  0.6500     CMF   =  1.2770     RSOLV =  1.3850

     NESFP =       0
     OMEGA = 40.0000     RET   =100.0000     FRO   =  0.7000

     TABS  =298.0000     IPRINT=       0

     --------------------------------
     INPUT FOR ITERATIVE C-PCM METHOD 
     --------------------------------
     IPCMIT  =         1     MXDIIS  =        50
     MXITR1  =       200     MXITR2  =       200
     THRES   = 0.100E-09     IMUL    =         3
     RCUT(1) =   20.0000     RCUT(2) =   50.0000

     IDIRCT  =         1
     IMGABI  =         0     RABI    =    4.0000
     IMGASC  =         0     RASC    =   20.0000
     THRSLS  = 0.500E-03     DENSLS  =    0.0100
     IEFPOL  =         1     REFPOL  =    0.0000

     INPUT FOR ISOTROPIC DIELECTRICS
     -------------------------------
     EPS=    78.39

          ----------------
          PROPERTIES INPUT
          ----------------

     MOMENTS            FIELD           POTENTIAL          DENSITY
 IEMOM =       1   IEFLD =       0   IEPOT =       0   IEDEN =       0
 WHERE =COMASS     WHERE =NUCLEI     WHERE =NUCLEI     WHERE =NUCLEI  
 OUTPUT=BOTH       OUTPUT=BOTH       OUTPUT=NONE       OUTPUT=BOTH    
 IEMINT=       0   IEFINT=       0                     IEDINT=       0
                                                       MORB  =       0
          EXTRAPOLATION IN EFFECT
          SOSCF IN EFFECT
 ORBITAL PRINTING OPTION: NPREO=     1 32767     2     1

     -------------------------------
     INTEGRAL TRANSFORMATION OPTIONS
     -------------------------------
     NWORD  =            0
     CUTOFF = 1.0E-10     MPTRAN =       0
     DIRTRF =       T     AOINTS =DUP     

          ----------------------
          INTEGRAL INPUT OPTIONS
          ----------------------
 NOPK  =       1 NORDER=       0 SCHWRZ=       T

 ..... DONE SETTING UP THE RUN .....
 CPU     0: STEP CPU TIME=     0.03 TOTAL CPU TIME=          0.0 (      0.0 MIN)
 TOTAL WALL CLOCK TIME=          0.1 SECONDS, CPU UTILIZATION IS    42.86%
 CPU     0: STEP CPU TIME=     0.00 TOTAL CPU TIME=          0.0 (      0.0 MIN)
 TOTAL WALL CLOCK TIME=          0.1 SECONDS, CPU UTILIZATION IS    42.86%

                    ----------------------
                    AO INTEGRAL TECHNOLOGY
                    ----------------------
     S,P,L SHELL ROTATED AXIS INTEGRALS, REPROGRAMMED BY
        KAZUYA ISHIMURA (IMS) AND JOSE SIERRA (SYNSTAR).
     S,P,D,L SHELL ROTATED AXIS INTEGRALS PROGRAMMED BY
        KAZUYA ISHIMURA (INSTITUTE FOR MOLECULAR SCIENCE).
     S,P,D,F,G SHELL TO TOTAL QUARTET ANGULAR MOMENTUM SUM 5,
        ERIC PROGRAM BY GRAHAM FLETCHER (ELORET AND NASA ADVANCED
        SUPERCOMPUTING DIVISION, AMES RESEARCH CENTER).
     S,P,D,F,G,L SHELL GENERAL RYS QUADRATURE PROGRAMMED BY
        MICHEL DUPUIS (PACIFIC NORTHWEST NATIONAL LABORATORY).
 Setting modorb=1 flag...
 Setting modorb=1 flag...

          -----------------------
          MP2 CONTROL INFORMATION
          -----------------------
          NACORE =        8  NBCORE =        8
          LMOMP2 =        F  AOINTS = DUP     
          METHOD =        2  NWORD  =               0
          MP2PRP =        F  OSPT   = NONE    
          CUTOFF = 1.00E-12  CPHFBS = BASISAO 
          CODE   = IMS     

          NUMBER OF CORE -A-  ORBITALS =     8
          NUMBER OF CORE -B-  ORBITALS =     8
          NUMBER OF OCC. -A-  ORBITALS =    18
          NUMBER OF OCC. -B-  ORBITALS =    18
          NUMBER OF MOLECULAR ORBITALS =    66
          NUMBER OF   BASIS  FUNCTIONS =    66

 CPU     0: STEP CPU TIME=     0.03 TOTAL CPU TIME=          0.1 (      0.0 MIN)
 TOTAL WALL CLOCK TIME=          0.2 SECONDS, CPU UTILIZATION IS    37.50%
 CPU     0: STEP CPU TIME=     0.00 TOTAL CPU TIME=          0.1 (      0.0 MIN)
 TOTAL WALL CLOCK TIME=          0.2 SECONDS, CPU UTILIZATION IS    37.50%

     INPUT FOR CAVITY DEFINITION 
     ---------------------------
   ATOM               COORDINATES                RADIUS       EPS
      1      9.1490      1.3030      2.3930      0.0100     78.3900
      2      8.7140      2.1420      2.6320      1.5900     78.3900
      3      9.6490      3.1930      2.3540      1.7700     78.3900
      4     10.0040      3.1080      1.3020      0.0100     78.3900
      5     10.5360      3.0760      3.0190      0.0100     78.3900
      6      9.0450      4.5850      2.5660      1.7700     78.3900
      7      9.8090      5.3780      2.4010      0.0100     78.3900
      8      7.9740      4.8120      1.6010      1.5900     78.3900
      9      6.9290      5.5390      2.2280      1.7700     78.3900
     10      6.7620      6.4540      1.6170      0.0100     78.3900
     11      5.6870      4.7630      2.2580      1.6800     78.3900
     12      3.5690      4.1740      2.3300      1.7700     78.3900
     13      4.2890      3.0060      2.1000      1.6800     78.3900
     14      5.5380      3.4090      2.0660      1.7700     78.3900
     15      6.4050      2.7650      1.8950      0.0100     78.3900
     16      1.8050      5.7100      2.7070      1.6800     78.3900
     17      2.7510      6.6500      2.8100      1.7700     78.3900
     18      2.3860      7.6600      3.0200      0.0100     78.3900
     19      4.0770      6.5380      2.6750      1.6800     78.3900
     20      4.4210      5.2620      2.4350      1.7700     78.3900
     21      2.1860      4.4310      2.4580      1.7700     78.3900
     22      1.2390      3.4810      2.3410      1.6800     78.3900
     23      1.4770      2.5290      2.1280      0.0100     78.3900
     24      0.2750      3.6980      2.5150      0.0100     78.3900
     25      7.4140      5.9360      3.6050      1.7700     78.3900
     26      6.5930      6.0030      4.3490      0.0100     78.3900
     27      8.0850      7.1780      3.5200      1.5900     78.3900
     28      8.4750      7.3460      4.3860      0.0100     78.3900
     29      8.3840      4.8010      3.9330      1.7700     78.3900
     30      7.8160      3.8680      4.1700      0.0100     78.3900
     31      9.3980      5.1130      4.9220      1.5900     78.3900
     32      9.0530      4.8450      6.4380      2.1000     78.3900
     33      8.5850      3.4500      6.5920      1.5900     78.3900
     34     10.2210      5.2250      7.2720      1.5900     78.3900
     35      7.8530      5.8040      6.7470      1.5900     78.3900
     36      8.0680      7.2250      6.9080      1.7700     78.3900
     37      8.4600      7.6820      5.9750      0.0100     78.3900
     38      8.8040      7.4310      7.7250      0.0100     78.3900
     39      6.7450      7.9250      7.2630      1.7700     78.3900
     40      6.8880      9.0210      7.3590      0.0100     78.3900
     41      5.7600      7.7160      6.2120      1.5900     78.3900
     42      4.4670      7.6010      6.7990      1.7700     78.3900
     43      3.8670      8.4320      6.3610      0.0100     78.3900
     44      3.8000      6.3070      6.4790      1.6800     78.3900
     45      4.5570      5.2170      6.1180      1.7700     78.3900
     46      5.6380      5.3740      6.1010      0.0100     78.3900
     47      3.9900      4.0520      5.7870      1.7700     78.3900
     48      4.5740      3.1880      5.4730      0.0100     78.3900
     49      2.4120      6.1860      6.5540      1.7700     78.3900
     50      1.7350      7.1660      6.8990      1.5900     78.3900
     51      1.8230      5.0110      6.2360      1.6800     78.3900
     52      2.5700      3.9640      5.8450      1.7700     78.3900
     53      1.9670      2.8260      5.5140      1.6800     78.3900
     54      0.9650      2.7770      5.5580      0.0100     78.3900
     55      2.4710      2.0130      5.2230      0.0100     78.3900
     56      4.6160      7.8410      8.2960      1.7700     78.3900
     57      3.9120      7.2320      8.9000      0.0100     78.3900
     58      4.4410      9.2130      8.6000      1.5900     78.3900
     59      4.5460      9.2790      9.5590      0.0100     78.3900
     60      6.0620      7.4100      8.5380      1.7700     78.3900
     61      6.1420      6.2990      8.5290      0.0100     78.3900
     62      6.7040      7.9940      9.6890      1.5900     78.3900
     63      6.4150      7.4680     11.1400      2.1000     78.3900
     64      6.3800      5.9920     11.1150      1.5900     78.3900
     65      7.4220      8.0620     12.0400      1.5900     78.3900
     66      4.9980      8.0590     11.5120      1.5900     78.3900
     67      4.2720      7.5020     12.6440      1.7700     78.3900
     68      4.8320      7.6540     13.5940      0.0100     78.3900
     69      4.1470      6.4020     12.5200      0.0100     78.3900
     70      2.8550      8.1090     12.8000      1.7700     78.3900
     71      2.9240      9.1350     13.2190      0.0100     78.3900
     72      2.2110      8.2400     11.4910      1.5900     78.3900
     73      0.8650      7.8100     11.5680      1.7700     78.3900
     74      0.2670      8.6270     11.1030      0.0100     78.3900
     75      0.6120      6.5530     10.8200      1.6800     78.3900
     76      1.4890      5.5740     10.3760      1.7700     78.3900
     77      4.6980      4.3470      9.9500      1.6800     78.3900
     78      5.1730      3.6720      9.3970      0.0100     78.3900
     79      5.2500      5.0240     10.4710      0.0100     78.3900
     80      2.8210      5.5260     10.5480      1.6800     78.3900
     81      3.3970      4.5030      9.9550      1.7700     78.3900
     82      2.7050      3.5480      9.2740      1.6800     78.3900
     83      3.2030      2.7600      8.9200      0.0100     78.3900
     84      1.3330      3.5260      9.1190      1.7700     78.3900
     85      0.8060      2.6090      8.5010      1.5900     78.3900
     86      0.7060      4.6530      9.7160      1.7700     78.3900
     87     -0.6260      5.0180      9.7540      1.6800     78.3900
     88     -0.6410      6.1460     10.4260      1.7700     78.3900
     89     -1.5420      6.7220     10.6560      0.0100     78.3900
     90      0.5110      7.6960     13.0320      1.7700     78.3900
     91     -0.2710      6.9310     13.2350      0.0100     78.3900
     92      0.0910      8.9570     13.5220      1.5900     78.3900
     93      0.1490      8.9180     14.4860      0.0100     78.3900
     94      1.8460      7.2870     13.6370      1.7700     78.3900
     95      2.0470      6.2220     13.4040      0.0100     78.3900
     96      1.9750      7.5880     15.0460      1.5900     78.3900
     97      1.5820      6.5000     16.1160      2.1000     78.3900
     98      2.3500      5.2680     15.8420      1.5900     78.3900
     99      1.7790      7.1280     17.4440      1.5900     78.3900
    100      0.0470      6.2220     15.9070      1.5900     78.3900
    101     -0.9640      7.1820     16.3100      1.7700     78.3900
    102     -0.9480      8.0710     15.6440      0.0100     78.3900
    103     -0.8040      7.5470     17.3550      0.0100     78.3900
    104     -2.3710      6.5700     16.2340      1.7700     78.3900
    105     -3.1500      7.3220     16.4930      0.0100     78.3900
    106     -2.6390      6.1120     14.8760      1.5900     78.3900
    107     -3.3390      4.8760     14.9190      1.7700     78.3900
    108     -4.2780      5.0270     14.3350      0.0100     78.3900
    109     -2.5670      3.8020     14.2900      1.6800     78.3900
    110     -1.9450      1.9100     13.3530      1.7700     78.3900
    111     -0.8340      2.7460     13.3190      1.6800     78.3900
    112     -1.2550      3.8540     13.8810      1.7700     78.3900
    113     -0.6500      4.7490     14.0490      0.0100     78.3900
    114     -3.3800      0.0470     13.0980      1.6800     78.3900
    115     -4.3240      0.7910     13.6720      1.7700     78.3900
    116     -5.2940      0.3020     13.8010      0.0100     78.3900
    117     -4.2520      2.0410     14.1360      1.6800     78.3900
    118     -3.0230      2.5510     13.9430      1.7700     78.3900
    119     -2.1500      0.5850     12.9040      1.7700     78.3900
    120     -1.1710     -0.1490     12.3370      1.6800     78.3900
    121     -0.2660      0.2330     12.1420      0.0100     78.3900
    122     -1.4030     -1.0390     11.9140      0.0100     78.3900
    123     -3.6800      4.5890     16.3720      1.7700     78.3900
    124     -3.6620      3.5120     16.6240      0.0100     78.3900
    125     -4.9610      5.1150     16.6610      1.5900     78.3900
    126     -5.0830      5.0800     17.6230      0.0100     78.3900
    127     -2.5790      5.3300     17.1170      1.7700     78.3900
    128     -1.6320      4.7520     17.0430      0.0100     78.3900
    129     -2.9120      5.7160     18.4770      1.5900     78.3900
    130     -2.3830      4.8520     19.6860      2.1000     78.3900
    131     -1.1570      4.1290     19.2940      1.5900     78.3900
    132     -2.3070      5.7270     20.8820      1.5900     78.3900
    133     -3.5480      3.8210     19.9600      1.5900     78.3900
    134     -3.4640      2.9550     21.1280      1.7700     78.3900
    135     -2.8380      3.3930     21.9410      0.0100     78.3900
    136     -2.9930      1.9870     20.8460      0.0100     78.3900
    137     -4.8640      2.6840     21.7120      1.7700     78.3900
    138     -5.4550      3.6290     21.7110      0.0100     78.3900
    139     -5.5430      1.6740     20.9200      1.5900     78.3900
    140     -5.6150      0.4640     21.6520      1.7700     78.3900
    141     -6.6810      0.3700     21.9610      0.0100     78.3900
    142     -5.2330     -0.6930     20.8190      1.6800     78.3900
    143     -3.9820     -1.1980     20.5520      1.7700     78.3900
    144     -0.6260     -1.2070     21.2830      1.6800     78.3900
    145     -0.5860     -0.4570     21.9440      0.0100     78.3900
    146      0.2290     -1.6500     21.0070      0.0100     78.3900
    147     -2.8170     -0.7250     21.0110      1.6800     78.3900
    148     -1.7970     -1.5060     20.7650      1.7700     78.3900
    149     -1.8920     -2.6410     20.0020      1.6800     78.3900
    150     -1.0620     -3.1810     19.8270      0.0100     78.3900
    151     -3.0690     -3.1200     19.4250      1.7700     78.3900
    152     -3.0920     -4.1430     18.7390      1.5900     78.3900
    153     -4.1850     -2.2950     19.7440      1.7700     78.3900
    154     -5.5330     -2.4420     19.4380      1.6800     78.3900
    155     -6.1150     -1.4640     20.0980      1.7700     78.3900
    156     -7.1880     -1.2570     20.0860      0.0100     78.3900
    157     -4.7680      0.6180     22.9110      1.7700     78.3900
    158     -3.6980      0.4040     22.7770      0.0100     78.3900
    159     -5.2490     -0.1920     23.9650      1.5900     78.3900
    160     -6.0910      0.1850     24.2640      0.0100     78.3900
    161     -4.8520      2.1260     23.1580      1.7700     78.3900
    162     -3.9000      2.4840     23.6140      0.0100     78.3900
    163     -5.9980      2.5640     23.9180      1.5900     78.3900
    164     -5.9390      2.5350     25.4950      2.1000     78.3900
    165     -4.5440      2.4040     25.9610      1.5900     78.3900
    166     -6.7360      3.6720     26.0070      1.5900     78.3900
    167     -6.7160      1.2010     25.8070      1.5900     78.3900
    168     -7.1570      0.8540     27.1350      1.7700     78.3900
    169     -7.3260      1.7580     27.7740      0.0100     78.3900
    170     -6.3740      0.2340     27.6380      0.0100     78.3900
    171     -8.4630      0.0330     27.1110      1.7700     78.3900
    172     -8.6730     -0.3480     28.1330      0.0100     78.3900
    173     -9.5780      0.8720     26.6970      1.5900     78.3900
    174    -10.1010      0.4110     25.4630      1.7700     78.3900
    175    -11.0030     -0.1850     25.7290      0.0100     78.3900
    176    -10.4190      1.5560     24.5810      1.6800     78.3900
    177     -9.4410      2.4780     24.3050      1.7700     78.3900
    178     -8.5080      2.3090     24.8270      0.0100     78.3900
    179    -11.6800      1.6940     24.0610      1.7700     78.3900
    180    -12.5760      0.8730     24.2740      1.5900     78.3900
    181    -11.8730      2.8130     23.2940      1.6800     78.3900
    182    -12.8080      2.9630     22.9510      0.0100     78.3900
    183    -10.9530      3.8050     23.0150      1.7700     78.3900
    184    -11.2830      4.7870     22.3520      1.5900     78.3900
    185     -9.6530      3.5720     23.5620      1.7700     78.3900
    186     -8.8780      4.3200     23.4100      0.0100     78.3900
    187     -9.0700     -0.5270     24.8630      1.7700     78.3900
    188     -8.2850      0.0370     24.3160      0.0100     78.3900
    189     -9.6460     -1.4970     24.0130      1.5900     78.3900
    190    -10.1570     -2.0990     24.5780      0.0100     78.3900
    191     -8.4810     -1.1530     26.1220      1.7700     78.3900
    192     -7.4220     -1.4280     25.9110      0.0100     78.3900
    193     -9.2670     -2.2720     26.6170      1.5900     78.3900
    194     -8.5370     -3.4870     27.3080      2.1000     78.3900
    195     -7.3310     -2.9650     27.9830      1.5900     78.3900
    196     -9.5150     -4.1860     28.1700      1.5900     78.3900
    197     -8.1300     -4.4500     26.1280      1.5900     78.3900
    198     -7.2440     -4.0010     25.0880      1.7700     78.3900
    199     -6.4540     -3.3180     25.4740      0.0100     78.3900
    200     -7.8270     -3.4510     24.3140      0.0100     78.3900
    201     -6.5420     -5.1780     24.4210      1.7700     78.3900
    202     -7.2690     -5.9070     24.0060      0.0100     78.3900
    203     -5.7730     -4.6390     23.3130      1.5900     78.3900
    204     -4.5230     -5.3100     23.2250      1.7700     78.3900
    205     -4.4420     -5.7020     22.1860      0.0100     78.3900
    206     -3.3960     -4.3960     23.4780      1.6800     78.3900
    207     -2.0640     -4.6730     23.2900      1.7700     78.3900
    208      0.4580     -6.8430     22.3080      1.6800     78.3900
    209     -0.0320     -7.6830     22.0820      0.0100     78.3900
    210      1.4600     -6.8240     22.2380      0.0100     78.3900
    211     -1.5530     -5.8340     22.8470      1.6800     78.3900
    212     -0.2250     -5.7920     22.7240      1.7700     78.3900
    213      0.5190     -4.6890     23.0500      1.6800     78.3900
    214      1.5180     -4.7340     22.9060      0.0100     78.3900
    215      0.0220     -3.4780     23.5140      1.7700     78.3900
    216      0.7660     -2.5280     23.7770      1.5900     78.3900
    217     -1.3940     -3.5190     23.6450      1.7700     78.3900
    218     -2.2840     -2.5370     24.0540      1.6800     78.3900
    219     -3.4630     -3.0940     23.9280      1.7700     78.3900
    220     -4.4170     -2.6010     24.1210      0.0100     78.3900
    221     -4.5650     -6.4640     24.2050      1.7700     78.3900
    222     -3.5700     -6.7090     24.6280      0.0100     78.3900
    223     -5.1000     -7.6060     23.5700      1.5900     78.3900
    224     -5.2890     -8.2460     24.2680      0.0100     78.3900
    225     -5.5100     -5.9260     25.2740      1.7700     78.3900
    226     -4.9940     -5.1480     25.8830      0.0100     78.3900
    227     -6.1610     -6.9460     26.0650      1.5900     78.3900
    228     -5.6900     -7.2140     27.5370      2.1000     78.3900
    229     -5.3600     -5.9420     28.2120      1.5900     78.3900
    230     -6.6450     -8.1190     28.2250      1.5900     78.3900
    231     -4.3520     -8.0060     27.3100      1.5900     78.3900
    232     -4.4130     -9.3550     26.7920      1.7700     78.3900
    233     -4.9350     -9.3890     25.8070      0.0100     78.3900
    234     -4.9670    -10.0190     27.4990      0.0100     78.3900
    235     -3.0090     -9.9410     26.6100      1.7700     78.3900
    236     -3.0600    -11.0000     26.2800      0.0100     78.3900
    237     -2.2860     -9.2000     25.5830      1.5900     78.3900
    238     -0.9240     -9.0590     25.9740      1.7700     78.3900
    239     -0.3220     -9.4910     25.1400      0.0100     78.3900
    240     -0.5510     -7.6250     26.1790      1.6800     78.3900
    241     -1.5140     -6.6580     26.3770      1.7700     78.3900
    242     -2.5400     -7.0160     26.3780      0.0100     78.3900
    243      0.7850     -7.2860     26.1630      1.7700     78.3900
    244      1.6780     -8.1160     26.0200      1.5900     78.3900
    245      1.0470     -5.9510     26.3170      1.6800     78.3900
    246      2.0310     -5.7010     26.3080      0.0100     78.3900
    247      0.1400     -4.9370     26.5350      1.7700     78.3900
    248      0.5340     -3.7840     26.6940      1.5900     78.3900
    249     -1.2260     -5.3600     26.5490      1.7700     78.3900
    250     -2.0030     -4.6140     26.6950      0.0100     78.3900
    251     -0.7230     -9.9050     27.2280      1.7700     78.3900
    252      0.0310     -9.4580     27.9110      0.0100     78.3900
    253     -0.3220    -11.2210     26.8720      1.5900     78.3900
    254     -0.3790    -11.7860     27.6600      0.0100     78.3900
    255     -2.1150     -9.8640     27.8530      1.7700     78.3900
    256     -2.2820     -8.8850     28.3520      0.0100     78.3900
    257     -2.3950    -10.9530     28.7500      1.5900     78.3900
    258     -1.8560    -10.8720     29.5580      0.0100     78.3900
    259     11.2010     -0.8790     25.5290      0.0100     78.3900
    260     10.7100     -1.7240     25.4890      1.5900     78.3900
    261     11.6750     -2.7820     25.5910      1.7700     78.3900
    262     12.1780     -2.7200     26.5820      0.0100     78.3900
    263     12.4520     -2.6490     24.8060      0.0100     78.3900
    264     11.0520     -4.1740     25.4420      1.7700     78.3900
    265     11.8360     -4.9610     25.4770      0.0100     78.3900
    266     10.1350     -4.4250     26.5490      1.5900     78.3900
    267      9.0080     -5.1420     26.0690      1.7700     78.3900
    268      8.9260     -6.0620     26.6900      0.0100     78.3900
    269      7.7800     -4.3610     26.2080      1.6800     78.3900
    270      5.6720     -3.7690     26.3940      1.7700     78.3900
    271      6.4150     -2.6020     26.5360      1.6800     78.3900
    272      7.6590     -3.0070     26.4200      1.7700     78.3900
    273      8.5410     -2.3650     26.4810      0.0100     78.3900
    274      3.8770     -5.3110     26.2900      1.6800     78.3900
    275      4.7980     -6.2510     26.0540      1.7700     78.3900
    276      4.4100     -7.2670     25.9220      0.0100     78.3900
    277      6.1300     -6.1360     26.0040      1.6800     78.3900
    278      6.5030     -4.8570     26.1860      1.7700     78.3900
    279      4.2860     -4.0270     26.4590      1.7700     78.3900
    280      3.3680     -3.0700     26.6890      1.6800     78.3900
    281      3.6340     -2.1220     26.8890      0.0100     78.3900
    282      2.3890     -3.2920     26.6720      0.0100     78.3900
    283      9.2920     -5.5280     24.6360      1.7700     78.3900
    284      8.3750     -5.5890     24.0130      0.0100     78.3900
    285      9.9730     -6.7670     24.6100      1.5900     78.3900
    286     10.2210     -6.9190     23.6900      0.0100     78.3900
    287     10.2010     -4.3910     24.1790      1.7700     78.3900
    288      9.6130     -3.4560     24.0270      0.0100     78.3900
    289     11.0550     -4.7160     23.0530      1.5900     78.3900
    290     10.5250     -4.3970     21.5980      2.1000     78.3900
    291     10.0280     -3.0050     21.5540      1.5900     78.3900
    292     11.5880     -4.7170     20.6190      1.5900     78.3900
    293      9.3070     -5.3770     21.4000      1.5900     78.3900
    294      9.5130     -6.8030     21.2600      1.7700     78.3900
    295     10.0540     -7.2170     22.1350      0.0100     78.3900
    296     10.1300     -7.0310     20.3630      0.0100     78.3900
    297      8.1780     -7.5580     21.1240      1.7700     78.3900
    298      8.3520     -8.6520     21.0300      0.0100     78.3900
    299      7.3700     -7.3480     22.3160      1.5900     78.3900
    300      5.9950     -7.2730     21.9470      1.7700     78.3900
    301      5.4970     -8.0960     22.5130      0.0100     78.3900
    302      5.3590     -5.9770     22.3110      1.6800     78.3900
    303      6.1410     -4.8600     22.4940      1.7700     78.3900
    304      7.2140     -5.0050     22.3620      0.0100     78.3900
    305      5.6090     -3.6820     22.8370      1.7700     78.3900
    306      6.2180     -2.7960     23.0070      0.0100     78.3900
    307      3.9730     -5.8760     22.4350      1.7700     78.3900
    308      3.2720     -6.8850     22.2580      1.5900     78.3900
    309      3.4170     -4.6850     22.7610      1.6800     78.3900
    310      4.1930     -3.6090     22.9760      1.7700     78.3900
    311      3.6200     -2.4540     23.3110      1.6800     78.3900
    312      2.6270     -2.4310     23.4500      0.0100     78.3900
    313      4.1470     -1.6300     23.5180      0.0100     78.3900
    314      5.9020     -7.5640     20.4590      1.7700     78.3900
    315      5.0880     -6.9960     19.9600      0.0100     78.3900
    316      5.7140     -8.9490     20.2430      1.5900     78.3900
    317      5.6980     -9.0500     19.2820      0.0100     78.3900
    318      7.2730     -7.1060     19.9650      1.7700     78.3900
    319      7.3220     -5.9950     19.9420      0.0100     78.3900
    320      7.7260     -7.7040     18.7290      1.5900     78.3900
    321      7.2140     -7.1470     17.3440      2.1000     78.3900
    322      7.0360     -5.6870     17.4480      1.5900     78.3900
    323      8.1530     -7.6210     16.3010      1.5900     78.3900
    324      5.8320     -7.8770     17.1310      1.5900     78.3900
    325      4.7610     -7.2320     16.4000      1.7700     78.3900
    326      4.9770     -7.2450     15.3070      0.0100     78.3900
    327      4.6420     -6.1620     16.6910      0.0100     78.3900
    328      3.4150     -7.9450     16.6380      1.7700     78.3900
    329      3.4800     -9.0120     16.3380      0.0100     78.3900
    330      3.0570     -7.9180     18.0560      1.5900     78.3900
    331      1.6890     -7.5390     18.1910      1.7700     78.3900
    332      1.2430     -8.2970     18.8750      0.0100     78.3900
    333      1.4900     -6.1920     18.7840      1.6800     78.3900
    334      2.3940     -5.1790     19.0480      1.7700     78.3900
    335      5.5970     -3.9080     18.8820      1.6800     78.3900
    336      6.0340     -3.0140     18.8470      0.0100     78.3900
    337      6.0530     -4.6810     18.4140      0.0100     78.3900
    338      3.7150     -5.1870     18.8090      1.6800     78.3900
    339      4.3120     -4.0570     19.1040      1.7700     78.3900
    340      3.6580     -2.9770     19.6350      1.6800     78.3900
    341      4.1740     -2.1450     19.8440      0.0100     78.3900
    342      2.3050     -2.9470     19.9350      1.7700     78.3900
    343      1.7930     -1.9500     20.4310      1.5900     78.3900
    344      1.6500     -4.1540     19.5910      1.7700     78.3900
    345      0.3130     -4.5010     19.6800      1.6800     78.3900
    346      0.2590     -5.7140     19.1820      1.7700     78.3900
    347     -0.6560     -6.3060     19.0900      0.0100     78.3900
    348      1.0480     -7.6480     16.8310      1.7700     78.3900
    349      0.2100     -6.9320     16.6910      0.0100     78.3900
    350      0.5850     -8.9680     16.6150      1.5900     78.3900
    351      0.4970     -9.0920     15.6550      0.0100     78.3900
    352      2.2130     -7.3050     15.9150      1.7700     78.3900
    353      2.3880     -6.2030     15.9400      0.0100     78.3900
    354      2.0720     -7.8450     14.5810      1.5900     78.3900
    355      1.8450     -6.9120     13.3420      2.1000     78.3900
    356      3.0940     -6.1650     13.0830      1.5900     78.3900
    357      1.3220     -7.7380     12.2310      1.5900     78.3900
    358      0.7260     -5.9050     13.7990      1.5900     78.3900
    359     -0.6400     -6.3520     13.9790      1.7700     78.3900
    360     -0.6920     -7.2050     14.6930      0.0100     78.3900
    361     -1.0760     -6.6950     13.0110      0.0100     78.3900
    362     -1.5280     -5.2310     14.5340      1.7700     78.3900
    363     -2.5570     -5.5940     14.7440      0.0100     78.3900
    364     -0.9760     -4.7380     15.7920      1.5900     78.3900
    365     -1.1360     -3.3290     15.8620      1.7700     78.3900
    366     -1.7260     -3.1230     16.7830      0.0100     78.3900
    367      0.1630     -2.6580     15.9620      1.6800     78.3900
    368      1.8350     -1.3500     16.5330      1.7700     78.3900
    369      2.3420     -2.2400     15.5980      1.6800     78.3900
    370      1.3160     -2.9950     15.2920      1.7700     78.3900
    371      1.3460     -3.8260     14.5860      0.0100     78.3900
    372      1.6640      0.3880     18.1320      1.6800     78.3900
    373      0.3660      0.0700     18.2200      1.7700     78.3900
    374     -0.2210      0.6810     18.9130      0.0100     78.3900
    375     -0.3150     -0.9010     17.5970      1.6800     78.3900
    376      0.4890     -1.5850     16.7610      1.7700     78.3900
    377      2.4490     -0.3230     17.2780      1.7700     78.3900
    378      3.7640     -0.0440     17.1640      1.6800     78.3900
    379      4.3440     -0.4990     16.4820      0.0100     78.3900
    380      4.1470      0.7500     17.6390      0.0100     78.3900
    381     -1.9260     -2.8830     14.6460      1.7700     78.3900
    382     -1.5910     -1.8980     14.2560      0.0100     78.3900
    383     -3.3040     -2.8210     14.9550      1.5900     78.3900
    384     -3.7670     -2.6410     14.1250      0.0100     78.3900
    385     -1.6280     -3.9870     13.6420      1.7700     78.3900
    386     -0.6030     -3.8370     13.2310      0.0100     78.3900
    387     -2.6490     -4.1600     12.6220      1.5900     78.3900
    388     -2.2600     -3.8730     11.1250      2.1000     78.3900
    389     -1.4260     -2.6510     11.0670      1.5900     78.3900
    390     -1.6900     -5.1000     10.5270      1.5900     78.3900
    391     -3.6520     -3.6010     10.4300      1.5900     78.3900
    392     -4.2830     -2.3150     10.5280      1.7700     78.3900
    393     -3.6880     -1.5410      9.9920      0.0100     78.3900
    394     -4.3390     -2.0050     11.6000      0.0100     78.3900
    395     -5.7250     -2.3910      9.9860      1.7700     78.3900
    396     -6.2170     -3.3280     10.3310      0.0100     78.3900
    397     -6.4510     -1.2610     10.5300      1.5900     78.3900
    398     -6.5420     -0.2460      9.5530      1.7700     78.3900
    399     -7.6250     -0.1720      9.3170      0.0100     78.3900
    400     -6.0740      1.0560     10.0690      1.6800     78.3900
    401     -4.8360      1.6530      9.9940      1.7700     78.3900
    402     -1.7280      1.7470      8.5650      1.6800     78.3900
    403     -0.8880      2.2950      8.5400      0.0100     78.3900
    404     -1.7280      0.8570      8.1050      0.0100     78.3900
    405     -3.7370      1.1580      9.4010      1.6800     78.3900
    406     -2.7790      2.0390      9.2840      1.7700     78.3900
    407     -2.8240      3.2730      9.8630      1.6800     78.3900
    408     -2.0150      3.8700      9.7730      0.0100     78.3900
    409     -3.8900      3.7880     10.5900      1.7700     78.3900
    410     -3.8530      4.9080     11.1040      1.5900     78.3900
    411     -4.9790      2.8780     10.6180      1.7700     78.3900
    412     -6.2620      3.0330     11.1200      1.6800     78.3900
    413     -6.8750      1.9250     10.7760      1.7700     78.3900
    414     -7.9060      1.6730     11.0350      0.0100     78.3900
    415     -5.8160     -0.7180      8.3000      1.7700     78.3900
    416     -4.7410     -0.4940      8.2640      0.0100     78.3900
    417     -6.4120     -0.1940      7.1360      1.5900     78.3900
    418     -7.1910     -0.7350      6.9390      0.0100     78.3900
    419     -5.8700     -2.2380      8.4450      1.7700     78.3900
    420     -4.9430     -2.6800      8.0020      0.0100     78.3900
    421     -7.0640     -2.8690      7.9260      1.5900     78.3900
    422     -7.1170     -3.3880      6.4290      2.1000     78.3900
    423     -5.7620     -3.7730      5.9780      1.5900     78.3900
    424     -8.1680     -4.4260      6.3660      1.5900     78.3900
    425     -7.5920     -2.1030      5.6610      1.5900     78.3900
    426     -7.9740     -2.0660      4.2700      1.7700     78.3900
    427     -8.2490     -3.0750      3.8870      0.0100     78.3900
    428     -7.1190     -1.7010      3.6550      0.0100     78.3900
    429     -9.1560     -1.1110      4.0190      1.7700     78.3900
    430     -9.4330     -1.1160      2.9430      0.0100     78.3900
    431    -10.3170     -1.5810      4.7590      1.5900     78.3900
    432    -11.0760     -0.4780      5.2210      1.7700     78.3900
    433    -12.0880     -0.6070      4.7740      0.0100     78.3900
    434    -11.1550     -0.4530      6.7080      1.6800     78.3900
    435    -10.1090     -0.9090      7.4760      1.7700     78.3900
    436     -9.2640     -1.2970      6.9170      0.0100     78.3900
    437    -12.2950      0.0390      7.3000      1.7700     78.3900
    438    -13.2470      0.4610      6.6480      1.5900     78.3900
    439    -12.2930      0.0190      8.6710      1.6800     78.3900
    440    -13.1430      0.3320      9.1090      0.0100     78.3900
    441    -11.3070     -0.4750      9.5020      1.7700     78.3900
    442    -11.4740     -0.4960     10.7210      1.5900     78.3900
    443    -10.1430     -0.9440      8.8150      1.7700     78.3900
    444     -9.3290     -1.3720      9.3950      0.0100     78.3900
    445    -10.4480      0.7860      4.6570      1.7700     78.3900
    446    -10.5070      1.6340      5.3740      0.0100     78.3900
    447    -11.0780      1.1550      3.4390      1.5900     78.3900
    448    -10.5130      1.8550      3.0470      0.0100     78.3900
    449     -8.9880      0.3610      4.4520      1.7700     78.3900
    450     -8.4480      0.3600      5.4230      0.0100     78.3900
    451     -8.2360      1.0850      3.4590      1.5900     78.3900
    452     -8.1720      2.6560      3.4110      2.1000     78.3900
    453     -6.8510      3.0530      2.8950      1.5900     78.3900
    454     -9.3800      3.0740      2.6550      1.5900     78.3900
    455     -8.3060      3.1090      4.9140      1.5900     78.3900
    456     -9.0760      4.2780      5.2970      1.7700     78.3900
    457     -9.8730      3.9540      6.0040      0.0100     78.3900
    458     -9.5960      4.7650      4.4380      0.0100     78.3900
    459     -8.2370      5.3680      5.9910      1.7700     78.3900
    460     -8.8970      6.0950      6.5160      0.0100     78.3900
    461     -7.3510      4.7920      6.9940      1.5900     78.3900
    462     -6.0960      5.4570      6.9510      1.7700     78.3900
    463     -5.8800      5.8070      7.9870      0.0100     78.3900
    464     -5.0170      4.5520      6.5150      1.6800     78.3900
    465     -3.6780      4.8430      6.5280      1.7700     78.3900
    466     -1.0940      7.0750      7.1300      1.6800     78.3900
    467     -1.5670      7.8820      7.4740      0.0100     78.3900
    468     -0.0900      7.0780      7.0810      0.0100     78.3900
    469     -3.1280      6.0020      6.9260      1.6800     78.3900
    470     -1.8000      6.0020      6.8220      1.7700     78.3900
    471     -1.0920      4.9310      6.3490      1.6800     78.3900
    472     -0.0840      4.9930      6.3430      0.0100     78.3900
    473     -1.6290      3.7220      5.9270      1.7700     78.3900
    474     -0.9010      2.8170      5.5090      1.5900     78.3900
    475     -3.0470      3.7160      6.0380      1.7700     78.3900
    476     -3.9700      2.7240      5.7300      1.6800     78.3900
    477     -5.1310      3.2650      6.0300      1.7700     78.3900
    478     -6.1030      2.7760      5.9210      0.0100     78.3900
    479     -6.2470      6.6540      6.0300      1.7700     78.3900
    480     -5.3080      6.9140      5.4980      0.0100     78.3900
    481     -6.6990      7.7760      6.7650      1.5900     78.3900
    482     -6.9420      8.4600      6.1250      0.0100     78.3900
    483     -7.3090      6.1660      5.0620      1.7700     78.3900
    484     -6.8750      5.4270      4.3480      0.0100     78.3900
    485     -8.0420      7.2300      4.4220      1.5900     78.3900
    486     -7.8510      7.5370      2.8950      2.1000     78.3900
    487     -7.6100      6.2810      2.1680      1.5900     78.3900
    488     -9.0100      8.3550      2.4650      1.5900     78.3900
    489     -6.5310      8.3880      2.8640      1.5900     78.3900
    490     -6.5030      9.7140      3.4290      1.7700     78.3900
    491     -6.8480      9.7160      4.4890      0.0100     78.3900
    492     -7.1720     10.3900      2.8460      0.0100     78.3900
    493     -5.0820     10.2950      3.3850      1.7700     78.3900
    494     -5.0830     11.3600      3.7090      0.0100     78.3900
    495     -4.2190      9.5570      4.3020      1.5900     78.3900
    496     -2.9260      9.4190      3.7250      1.7700     78.3900
    497     -2.2130      9.8570      4.4640      0.0100     78.3900
    498     -2.5820      7.9870      3.4710      1.6800     78.3900
    499     -3.5590      7.0170      3.3880      1.7700     78.3900
    500     -4.5760      7.3640      3.5620      0.0100     78.3900
    501     -1.2540      7.6610      3.3160      1.7700     78.3900
    502     -0.3580      8.4970      3.3660      1.5900     78.3900
    503     -1.0050      6.3320      3.1000      1.6800     78.3900
    504     -0.0280      6.0900      2.9660      0.0100     78.3900
    505     -1.9250      5.3150      2.9760      1.7700     78.3900
    506     -1.5450      4.1730      2.7280      1.5900     78.3900
    507     -3.2850      5.7220      3.1690      1.7700     78.3900
    508     -4.0720      4.9710      3.1280      0.0100     78.3900
    509     -2.9040     10.2590      2.4530      1.7700     78.3900
    510     -2.2460      9.8140      1.6730      0.0100     78.3900
    511     -2.4750     11.5810      2.7450      1.5900     78.3900
    512     -2.6190     12.1310      1.9550      0.0100     78.3900
    513     -4.3680     10.2010      2.0270      1.7700     78.3900
    514     -4.5950      9.2110      1.5750      0.0100     78.3900
    515     -4.7820     11.2680      1.1540      1.5900     78.3900
    516     -4.3160     11.1970      0.3030      0.0100     78.3900

     ----------------------------
     INPUT FOR TESSERA DEFINITION
     ----------------------------
     NTSALL  =        60     MTHALL  =         4
     MTHAUT  =         0     AUTFRE  =    2.0000
     NTSFRZ  =        60     KEEPSM  =         0
     AREAKP  =   10.0000     BONDRY  =    1.0000
     AREATL  =    0.0100

     SPHERE     INITS       METHOD
          1        60       FIXPVA
          2        60       FIXPVA
          3        60       FIXPVA
          4        60       FIXPVA
          5        60       FIXPVA
          6        60       FIXPVA
          7        60       FIXPVA
          8        60       FIXPVA
          9        60       FIXPVA
         10        60       FIXPVA
         11        60       FIXPVA
         12        60       FIXPVA
         13        60       FIXPVA
         14        60       FIXPVA
         15        60       FIXPVA
         16        60       FIXPVA
         17        60       FIXPVA
         18        60       FIXPVA
         19        60       FIXPVA
         20        60       FIXPVA
         21        60       FIXPVA
         22        60       FIXPVA
         23        60       FIXPVA
         24        60       FIXPVA
         25        60       FIXPVA
         26        60       FIXPVA
         27        60       FIXPVA
         28        60       FIXPVA
         29        60       FIXPVA
         30        60       FIXPVA
         31        60       FIXPVA
         32        60       FIXPVA
         33        60       FIXPVA
         34        60       FIXPVA
         35        60       FIXPVA
         36        60       FIXPVA
         37        60       FIXPVA
         38        60       FIXPVA
         39        60       FIXPVA
         40        60       FIXPVA
         41        60       FIXPVA
         42        60       FIXPVA
         43        60       FIXPVA
         44        60       FIXPVA
         45        60       FIXPVA
         46        60       FIXPVA
         47        60       FIXPVA
         48        60       FIXPVA
         49        60       FIXPVA
         50        60       FIXPVA
         51        60       FIXPVA
         52        60       FIXPVA
         53        60       FIXPVA
         54        60       FIXPVA
         55        60       FIXPVA
         56        60       FIXPVA
         57        60       FIXPVA
         58        60       FIXPVA
         59        60       FIXPVA
         60        60       FIXPVA
         61        60       FIXPVA
         62        60       FIXPVA
         63        60       FIXPVA
         64        60       FIXPVA
         65        60       FIXPVA
         66        60       FIXPVA
         67        60       FIXPVA
         68        60       FIXPVA
         69        60       FIXPVA
         70        60       FIXPVA
         71        60       FIXPVA
         72        60       FIXPVA
         73        60       FIXPVA
         74        60       FIXPVA
         75        60       FIXPVA
         76        60       FIXPVA
         77        60       FIXPVA
         78        60       FIXPVA
         79        60       FIXPVA
         80        60       FIXPVA
         81        60       FIXPVA
         82        60       FIXPVA
         83        60       FIXPVA
         84        60       FIXPVA
         85        60       FIXPVA
         86        60       FIXPVA
         87        60       FIXPVA
         88        60       FIXPVA
         89        60       FIXPVA
         90        60       FIXPVA
         91        60       FIXPVA
         92        60       FIXPVA
         93        60       FIXPVA
         94        60       FIXPVA
         95        60       FIXPVA
         96        60       FIXPVA
         97        60       FIXPVA
         98        60       FIXPVA
         99        60       FIXPVA
        100        60       FIXPVA
        101        60       FIXPVA
        102        60       FIXPVA
        103        60       FIXPVA
        104        60       FIXPVA
        105        60       FIXPVA
        106        60       FIXPVA
        107        60       FIXPVA
        108        60       FIXPVA
        109        60       FIXPVA
        110        60       FIXPVA
        111        60       FIXPVA
        112        60       FIXPVA
        113        60       FIXPVA
        114        60       FIXPVA
        115        60       FIXPVA
        116        60       FIXPVA
        117        60       FIXPVA
        118        60       FIXPVA
        119        60       FIXPVA
        120        60       FIXPVA
        121        60       FIXPVA
        122        60       FIXPVA
        123        60       FIXPVA
        124        60       FIXPVA
        125        60       FIXPVA
        126        60       FIXPVA
        127        60       FIXPVA
        128        60       FIXPVA
        129        60       FIXPVA
        130        60       FIXPVA
        131        60       FIXPVA
        132        60       FIXPVA
        133        60       FIXPVA
        134        60       FIXPVA
        135        60       FIXPVA
        136        60       FIXPVA
        137        60       FIXPVA
        138        60       FIXPVA
        139        60       FIXPVA
        140        60       FIXPVA
        141        60       FIXPVA
        142        60       FIXPVA
        143        60       FIXPVA
        144        60       FIXPVA
        145        60       FIXPVA
        146        60       FIXPVA
        147        60       FIXPVA
        148        60       FIXPVA
        149        60       FIXPVA
        150        60       FIXPVA
        151        60       FIXPVA
        152        60       FIXPVA
        153        60       FIXPVA
        154        60       FIXPVA
        155        60       FIXPVA
        156        60       FIXPVA
        157        60       FIXPVA
        158        60       FIXPVA
        159        60       FIXPVA
        160        60       FIXPVA
        161        60       FIXPVA
        162        60       FIXPVA
        163        60       FIXPVA
        164        60       FIXPVA
        165        60       FIXPVA
        166        60       FIXPVA
        167        60       FIXPVA
        168        60       FIXPVA
        169        60       FIXPVA
        170        60       FIXPVA
        171        60       FIXPVA
        172        60       FIXPVA
        173        60       FIXPVA
        174        60       FIXPVA
        175        60       FIXPVA
        176        60       FIXPVA
        177        60       FIXPVA
        178        60       FIXPVA
        179        60       FIXPVA
        180        60       FIXPVA
        181        60       FIXPVA
        182        60       FIXPVA
        183        60       FIXPVA
        184        60       FIXPVA
        185        60       FIXPVA
        186        60       FIXPVA
        187        60       FIXPVA
        188        60       FIXPVA
        189        60       FIXPVA
        190        60       FIXPVA
        191        60       FIXPVA
        192        60       FIXPVA
        193        60       FIXPVA
        194        60       FIXPVA
        195        60       FIXPVA
        196        60       FIXPVA
        197        60       FIXPVA
        198        60       FIXPVA
        199        60       FIXPVA
        200        60       FIXPVA
        201        60       FIXPVA
        202        60       FIXPVA
        203        60       FIXPVA
        204        60       FIXPVA
        205        60       FIXPVA
        206        60       FIXPVA
        207        60       FIXPVA
        208        60       FIXPVA
        209        60       FIXPVA
        210        60       FIXPVA
        211        60       FIXPVA
        212        60       FIXPVA
        213        60       FIXPVA
        214        60       FIXPVA
        215        60       FIXPVA
        216        60       FIXPVA
        217        60       FIXPVA
        218        60       FIXPVA
        219        60       FIXPVA
        220        60       FIXPVA
        221        60       FIXPVA
        222        60       FIXPVA
        223        60       FIXPVA
        224        60       FIXPVA
        225        60       FIXPVA
        226        60       FIXPVA
        227        60       FIXPVA
        228        60       FIXPVA
        229        60       FIXPVA
        230        60       FIXPVA
        231        60       FIXPVA
        232        60       FIXPVA
        233        60       FIXPVA
        234        60       FIXPVA
        235        60       FIXPVA
        236        60       FIXPVA
        237        60       FIXPVA
        238        60       FIXPVA
        239        60       FIXPVA
        240        60       FIXPVA
        241        60       FIXPVA
        242        60       FIXPVA
        243        60       FIXPVA
        244        60       FIXPVA
        245        60       FIXPVA
        246        60       FIXPVA
        247        60       FIXPVA
        248        60       FIXPVA
        249        60       FIXPVA
        250        60       FIXPVA
        251        60       FIXPVA
        252        60       FIXPVA
        253        60       FIXPVA
        254        60       FIXPVA
        255        60       FIXPVA
        256        60       FIXPVA
        257        60       FIXPVA
        258        60       FIXPVA
        259        60       FIXPVA
        260        60       FIXPVA
        261        60       FIXPVA
        262        60       FIXPVA
        263        60       FIXPVA
        264        60       FIXPVA
        265        60       FIXPVA
        266        60       FIXPVA
        267        60       FIXPVA
        268        60       FIXPVA
        269        60       FIXPVA
        270        60       FIXPVA
        271        60       FIXPVA
        272        60       FIXPVA
        273        60       FIXPVA
        274        60       FIXPVA
        275        60       FIXPVA
        276        60       FIXPVA
        277        60       FIXPVA
        278        60       FIXPVA
        279        60       FIXPVA
        280        60       FIXPVA
        281        60       FIXPVA
        282        60       FIXPVA
        283        60       FIXPVA
        284        60       FIXPVA
        285        60       FIXPVA
        286        60       FIXPVA
        287        60       FIXPVA
        288        60       FIXPVA
        289        60       FIXPVA
        290        60       FIXPVA
        291        60       FIXPVA
        292        60       FIXPVA
        293        60       FIXPVA
        294        60       FIXPVA
        295        60       FIXPVA
        296        60       FIXPVA
        297        60       FIXPVA
        298        60       FIXPVA
        299        60       FIXPVA
        300        60       FIXPVA
        301        60       FIXPVA
        302        60       FIXPVA
        303        60       FIXPVA
        304        60       FIXPVA
        305        60       FIXPVA
        306        60       FIXPVA
        307        60       FIXPVA
        308        60       FIXPVA
        309        60       FIXPVA
        310        60       FIXPVA
        311        60       FIXPVA
        312        60       FIXPVA
        313        60       FIXPVA
        314        60       FIXPVA
        315        60       FIXPVA
        316        60       FIXPVA
        317        60       FIXPVA
        318        60       FIXPVA
        319        60       FIXPVA
        320        60       FIXPVA
        321        60       FIXPVA
        322        60       FIXPVA
        323        60       FIXPVA
        324        60       FIXPVA
        325        60       FIXPVA
        326        60       FIXPVA
        327        60       FIXPVA
        328        60       FIXPVA
        329        60       FIXPVA
        330        60       FIXPVA
        331        60       FIXPVA
        332        60       FIXPVA
        333        60       FIXPVA
        334        60       FIXPVA
        335        60       FIXPVA
        336        60       FIXPVA
        337        60       FIXPVA
        338        60       FIXPVA
        339        60       FIXPVA
        340        60       FIXPVA
        341        60       FIXPVA
        342        60       FIXPVA
        343        60       FIXPVA
        344        60       FIXPVA
        345        60       FIXPVA
        346        60       FIXPVA
        347        60       FIXPVA
        348        60       FIXPVA
        349        60       FIXPVA
        350        60       FIXPVA
        351        60       FIXPVA
        352        60       FIXPVA
        353        60       FIXPVA
        354        60       FIXPVA
        355        60       FIXPVA
        356        60       FIXPVA
        357        60       FIXPVA
        358        60       FIXPVA
        359        60       FIXPVA
        360        60       FIXPVA
        361        60       FIXPVA
        362        60       FIXPVA
        363        60       FIXPVA
        364        60       FIXPVA
        365        60       FIXPVA
        366        60       FIXPVA
        367        60       FIXPVA
        368        60       FIXPVA
        369        60       FIXPVA
        370        60       FIXPVA
        371        60       FIXPVA
        372        60       FIXPVA
        373        60       FIXPVA
        374        60       FIXPVA
        375        60       FIXPVA
        376        60       FIXPVA
        377        60       FIXPVA
        378        60       FIXPVA
        379        60       FIXPVA
        380        60       FIXPVA
        381        60       FIXPVA
        382        60       FIXPVA
        383        60       FIXPVA
        384        60       FIXPVA
        385        60       FIXPVA
        386        60       FIXPVA
        387        60       FIXPVA
        388        60       FIXPVA
        389        60       FIXPVA
        390        60       FIXPVA
        391        60       FIXPVA
        392        60       FIXPVA
        393        60       FIXPVA
        394        60       FIXPVA
        395        60       FIXPVA
        396        60       FIXPVA
        397        60       FIXPVA
        398        60       FIXPVA
        399        60       FIXPVA
        400        60       FIXPVA
        401        60       FIXPVA
        402        60       FIXPVA
        403        60       FIXPVA
        404        60       FIXPVA
        405        60       FIXPVA
        406        60       FIXPVA
        407        60       FIXPVA
        408        60       FIXPVA
        409        60       FIXPVA
        410        60       FIXPVA
        411        60       FIXPVA
        412        60       FIXPVA
        413        60       FIXPVA
        414        60       FIXPVA
        415        60       FIXPVA
        416        60       FIXPVA
        417        60       FIXPVA
        418        60       FIXPVA
        419        60       FIXPVA
        420        60       FIXPVA
        421        60       FIXPVA
        422        60       FIXPVA
        423        60       FIXPVA
        424        60       FIXPVA
        425        60       FIXPVA
        426        60       FIXPVA
        427        60       FIXPVA
        428        60       FIXPVA
        429        60       FIXPVA
        430        60       FIXPVA
        431        60       FIXPVA
        432        60       FIXPVA
        433        60       FIXPVA
        434        60       FIXPVA
        435        60       FIXPVA
        436        60       FIXPVA
        437        60       FIXPVA
        438        60       FIXPVA
        439        60       FIXPVA
        440        60       FIXPVA
        441        60       FIXPVA
        442        60       FIXPVA
        443        60       FIXPVA
        444        60       FIXPVA
        445        60       FIXPVA
        446        60       FIXPVA
        447        60       FIXPVA
        448        60       FIXPVA
        449        60       FIXPVA
        450        60       FIXPVA
        451        60       FIXPVA
        452        60       FIXPVA
        453        60       FIXPVA
        454        60       FIXPVA
        455        60       FIXPVA
        456        60       FIXPVA
        457        60       FIXPVA
        458        60       FIXPVA
        459        60       FIXPVA
        460        60       FIXPVA
        461        60       FIXPVA
        462        60       FIXPVA
        463        60       FIXPVA
        464        60       FIXPVA
        465        60       FIXPVA
        466        60       FIXPVA
        467        60       FIXPVA
        468        60       FIXPVA
        469        60       FIXPVA
        470        60       FIXPVA
        471        60       FIXPVA
        472        60       FIXPVA
        473        60       FIXPVA
        474        60       FIXPVA
        475        60       FIXPVA
        476        60       FIXPVA
        477        60       FIXPVA
        478        60       FIXPVA
        479        60       FIXPVA
        480        60       FIXPVA
        481        60       FIXPVA
        482        60       FIXPVA
        483        60       FIXPVA
        484        60       FIXPVA
        485        60       FIXPVA
        486        60       FIXPVA
        487        60       FIXPVA
        488        60       FIXPVA
        489        60       FIXPVA
        490        60       FIXPVA
        491        60       FIXPVA
        492        60       FIXPVA
        493        60       FIXPVA
        494        60       FIXPVA
        495        60       FIXPVA
        496        60       FIXPVA
        497        60       FIXPVA
        498        60       FIXPVA
        499        60       FIXPVA
        500        60       FIXPVA
        501        60       FIXPVA
        502        60       FIXPVA
        503        60       FIXPVA
        504        60       FIXPVA
        505        60       FIXPVA
        506        60       FIXPVA
        507        60       FIXPVA
        508        60       FIXPVA
        509        60       FIXPVA
        510        60       FIXPVA
        511        60       FIXPVA
        512        60       FIXPVA
        513        60       FIXPVA
        514        60       FIXPVA
        515        60       FIXPVA
        516        60       FIXPVA

     ------------------------------
      FIXPVA TESSELLATION FOR PCM
         PEIFENG SU AND HUI LI
     UNIVERSITY OF NEBRASKA-LINCOLN
     ------------------------------


 PCM DIMENSIONS: MXSP=   516, MXTS=     20640, MEMORY=        212079

     INPUT FOR CAVITY DEFINITION 
     ---------------------------
   ATOM               COORDINATES                RADIUS       EPS
      1      9.1490      1.3030      2.3930      0.0100     78.3900
      2      8.7140      2.1420      2.6320      1.5900     78.3900
      3      9.6490      3.1930      2.3540      1.7700     78.3900
      4     10.0040      3.1080      1.3020      0.0100     78.3900
      5     10.5360      3.0760      3.0190      0.0100     78.3900
      6      9.0450      4.5850      2.5660      1.7700     78.3900
      7      9.8090      5.3780      2.4010      0.0100     78.3900
      8      7.9740      4.8120      1.6010      1.5900     78.3900
      9      6.9290      5.5390      2.2280      1.7700     78.3900
     10      6.7620      6.4540      1.6170      0.0100     78.3900
     11      5.6870      4.7630      2.2580      1.6800     78.3900
     12      3.5690      4.1740      2.3300      1.7700     78.3900
     13      4.2890      3.0060      2.1000      1.6800     78.3900
     14      5.5380      3.4090      2.0660      1.7700     78.3900
     15      6.4050      2.7650      1.8950      0.0100     78.3900
     16      1.8050      5.7100      2.7070      1.6800     78.3900
     17      2.7510      6.6500      2.8100      1.7700     78.3900
     18      2.3860      7.6600      3.0200      0.0100     78.3900
     19      4.0770      6.5380      2.6750      1.6800     78.3900
     20      4.4210      5.2620      2.4350      1.7700     78.3900
     21      2.1860      4.4310      2.4580      1.7700     78.3900
     22      1.2390      3.4810      2.3410      1.6800     78.3900
     23      1.4770      2.5290      2.1280      0.0100     78.3900
     24      0.2750      3.6980      2.5150      0.0100     78.3900
     25      7.4140      5.9360      3.6050      1.7700     78.3900
     26      6.5930      6.0030      4.3490      0.0100     78.3900
     27      8.0850      7.1780      3.5200      1.5900     78.3900
     28      8.4750      7.3460      4.3860      0.0100     78.3900
     29      8.3840      4.8010      3.9330      1.7700     78.3900
     30      7.8160      3.8680      4.1700      0.0100     78.3900
     31      9.3980      5.1130      4.9220      1.5900     78.3900
     32      9.0530      4.8450      6.4380      2.1000     78.3900
     33      8.5850      3.4500      6.5920      1.5900     78.3900
     34     10.2210      5.2250      7.2720      1.5900     78.3900
     35      7.8530      5.8040      6.7470      1.5900     78.3900
     36      8.0680      7.2250      6.9080      1.7700     78.3900
     37      8.4600      7.6820      5.9750      0.0100     78.3900
     38      8.8040      7.4310      7.7250      0.0100     78.3900
     39      6.7450      7.9250      7.2630      1.7700     78.3900
     40      6.8880      9.0210      7.3590      0.0100     78.3900
     41      5.7600      7.7160      6.2120      1.5900     78.3900
     42      4.4670      7.6010      6.7990      1.7700     78.3900
     43      3.8670      8.4320      6.3610      0.0100     78.3900
     44      3.8000      6.3070      6.4790      1.6800     78.3900
     45      4.5570      5.2170      6.1180      1.7700     78.3900
     46      5.6380      5.3740      6.1010      0.0100     78.3900
     47      3.9900      4.0520      5.7870      1.7700     78.3900
     48      4.5740      3.1880      5.4730      0.0100     78.3900
     49      2.4120      6.1860      6.5540      1.7700     78.3900
     50      1.7350      7.1660      6.8990      1.5900     78.3900
     51      1.8230      5.0110      6.2360      1.6800     78.3900
     52      2.5700      3.9640      5.8450      1.7700     78.3900
     53      1.9670      2.8260      5.5140      1.6800     78.3900
     54      0.9650      2.7770      5.5580      0.0100     78.3900
     55      2.4710      2.0130      5.2230      0.0100     78.3900
     56      4.6160      7.8410      8.2960      1.7700     78.3900
     57      3.9120      7.2320      8.9000      0.0100     78.3900
     58      4.4410      9.2130      8.6000      1.5900     78.3900
     59      4.5460      9.2790      9.5590      0.0100     78.3900
     60      6.0620      7.4100      8.5380      1.7700     78.3900
     61      6.1420      6.2990      8.5290      0.0100     78.3900
     62      6.7040      7.9940      9.6890      1.5900     78.3900
     63      6.4150      7.4680     11.1400      2.1000     78.3900
     64      6.3800      5.9920     11.1150      1.5900     78.3900
     65      7.4220      8.0620     12.0400      1.5900     78.3900
     66      4.9980      8.0590     11.5120      1.5900     78.3900
     67      4.2720      7.5020     12.6440      1.7700     78.3900
     68      4.8320      7.6540     13.5940      0.0100     78.3900
     69      4.1470      6.4020     12.5200      0.0100     78.3900
     70      2.8550      8.1090     12.8000      1.7700     78.3900
     71      2.9240      9.1350     13.2190      0.0100     78.3900
     72      2.2110      8.2400     11.4910      1.5900     78.3900
     73      0.8650      7.8100     11.5680      1.7700     78.3900
     74      0.2670      8.6270     11.1030      0.0100     78.3900
     75      0.6120      6.5530     10.8200      1.6800     78.3900
     76      1.4890      5.5740     10.3760      1.7700     78.3900
     77      4.6980      4.3470      9.9500      1.6800     78.3900
     78      5.1730      3.6720      9.3970      0.0100     78.3900
     79      5.2500      5.0240     10.4710      0.0100     78.3900
     80      2.8210      5.5260     10.5480      1.6800     78.3900
     81      3.3970      4.5030      9.9550      1.7700     78.3900
     82      2.7050      3.5480      9.2740      1.6800     78.3900
     83      3.2030      2.7600      8.9200      0.0100     78.3900
     84      1.3330      3.5260      9.1190      1.7700     78.3900
     85      0.8060      2.6090      8.5010      1.5900     78.3900
[...]
   472   15   1.0   0.00    0.0    0.000000    0.484199    0.548128
   473   15   6.0   0.00    0.0    0.000000    0.891552    0.904494
   474   15   8.0   7.75   16.9    0.156190   -0.770308   -0.762771
   475   15   6.0   0.00    0.0    0.000000   -0.048119   -0.041630
   476   15   7.0   9.37   18.3    0.193602   -0.618898   -0.625378
   477   15   6.0   0.68    1.2    0.020089    0.304961    0.298758
   478   15   1.0   0.00    0.0    0.000000    0.286306    0.289445
   479   15   6.0   0.00    0.0   -0.000079    0.134325    0.109124
   480   15   1.0   0.00    0.0    0.000000    0.192201    0.218605
   481   15   8.0  17.56   38.4    0.093224   -0.829048   -0.842863
   482   15   1.0   0.00    0.0    0.000000    0.492105    0.510614
   483   15   6.0   0.21    0.4    0.003897    0.121738    0.087020
   484   15   1.0   0.00    0.0    0.000000    0.270510    0.273974
   485   15   8.0   3.87    8.5    0.053063   -0.799643   -0.805925
   486   15  15.0   7.41    9.3    0.131780    1.590388    1.642708
   487   15   8.0   9.26   20.2    0.274170   -0.870449   -0.865414
   488   15   8.0  17.44   38.1    0.351812   -0.902942   -0.898156
   489   15   8.0   1.56    3.4    0.030360   -0.970851   -0.781009
   490   16   6.0  12.40   21.9   -0.080364    0.192816   -0.021345
   491   16   1.0   0.00    0.0    0.000000    0.184655    0.184306
   492   16   1.0   0.00    0.0    0.000000    0.235528    0.217742
   493   16   6.0   7.56   13.3   -0.043411    0.084535    0.148050
   494   16   1.0   0.00    0.0    0.000000    0.250599    0.222607
   495   16   8.0   4.61   10.1    0.053717   -0.729774   -0.735619
   496   16   6.0   6.22   11.0   -0.051090    0.417283    0.418121
   497   16   1.0   0.00    0.0    0.000000    0.261234    0.255227
   498   16   7.0   0.00    0.0    0.000000   -0.833023   -0.838492
   499   16   6.0   3.07    5.4   -0.003680    0.196932    0.183739
   500   16   1.0   0.00    0.0    0.000000    0.306478    0.327053
   501   16   6.0   2.83    5.0   -0.012928    1.117832    1.119006
   502   16   8.0  12.80   28.0    0.177926   -0.687605   -0.697774
   503   16   7.0   1.95    3.8    0.003034   -0.931226   -1.011660
   504   16   1.0   0.00    0.0    0.000000    0.485014    0.542753
   505   16   6.0   2.83    5.0   -0.008458    0.876588    0.886808
   506   16   8.0   9.61   21.0    0.144644   -0.726060   -0.714146
   507   16   6.0   5.67   10.0    0.018611   -0.451924   -0.453398
   508   16   1.0   0.00    0.0    0.000000    0.275974    0.273516
   509   16   6.0   5.82   10.3   -0.055997    0.114641    0.115091
   510   16   1.0   0.00    0.0    0.000000    0.227850    0.225450
   511   16   8.0  20.83   45.5    0.030872   -0.840458   -0.843444
   512   16   1.0   0.00    0.0    0.000000    0.507899    0.507569
   513   16   6.0   6.50   11.5   -0.049747    0.170429    0.152606
   514   16   1.0   0.00    0.0    0.000000    0.218104    0.219384
   515   16   8.0  22.54   49.3   -0.012911   -0.849524   -0.852925
   516   16   1.0   0.00    0.0    0.000000    0.508597    0.507378

 Done with FMO properties.
 CPU     0: STEP CPU TIME=     0.01 TOTAL CPU TIME=      27851.9 (    464.2 MIN)
 TOTAL WALL CLOCK TIME=      37061.1 SECONDS, CPU UTILIZATION IS    75.15%
 CPU     0: STEP CPU TIME=     0.00 TOTAL CPU TIME=      27851.9 (    464.2 MIN)
 TOTAL WALL CLOCK TIME=      37061.1 SECONDS, CPU UTILIZATION IS    75.15%

 Total timing statistics in pairs (CPU,wall) for each rank, sec

    Rank   total     SCF    corr     DFT    CPHF     EFP    solv     ESP    geom
 -------------------------------------------------------------------------------
       1   27851.9   7687.6  10548.8      0.0    0.0   0.0  358.7  8532.0    0.0
       1   37061.1  10996.5  13550.9      0.0    0.0   0.0  704.9 10752.8    0.0
       2   27510.9   7730.7  10144.8      0.0    0.0   0.0  360.6  8551.3    0.0
       2   37061.1  10996.3  13551.2      0.0    0.0   0.0  705.1 10751.9    0.0
       3   30280.9   8247.2  11886.7      0.0    0.0   0.0  364.7  9013.5    0.0
       3   37061.1  10996.3  13551.2      0.0    0.0   0.0  704.8 10752.3    0.0
       4   30005.7   8005.2  11765.1      0.0    0.0   0.0  365.9  9104.9    0.0
       4   37061.1  10997.0  13551.2      0.0    0.0   0.0  704.0 10752.1    0.0
       5   27887.3   7663.4  10347.5      0.0    0.0   0.0  364.9  8772.7    0.0
       5   37061.1  10996.1  13551.2      0.0    0.0   0.0  705.2 10752.2    0.0
       6   28518.8   7715.0  10804.3      0.0    0.0   0.0  363.9  8891.8    0.0
       6   37061.1  10997.2  13551.2      0.0    0.0   0.0  703.9 10752.2    0.0
       7   30476.2   8221.1  11749.5      0.0    0.0   0.0  364.2  9376.7    0.0
       7   37061.1  10996.8  13551.2      0.0    0.0   0.0  704.4 10752.1    0.0
       8   30877.4   8332.8  11891.3      0.0    0.0   0.0  364.4  9522.9    0.0
       8   37061.1  10997.2  13551.2      0.0    0.0   0.0  703.6 10752.2    0.0
       9   27609.6   7580.1  10095.5      0.0    0.0   0.0  359.0  8842.8    0.0
       9   37061.1  10996.8  13551.2      0.0    0.0   0.0  704.2 10752.4    0.0
      10   30377.6   8187.2  12141.0      0.0    0.0   0.0  360.2  8917.8    0.0
      10   37061.1  10997.5  13551.2      0.0    0.0   0.0  703.1 10752.4    0.0
      11   29868.9   8134.2  11785.4      0.0    0.0   0.0  360.2  8834.8    0.0
      11   37061.1  10997.4  13551.2      0.0    0.0   0.0  703.6 10752.4    0.0
      12   30356.0   8186.5  12046.9      0.0    0.0   0.0  359.1  8996.6    0.0
      12   37061.1  10997.7  13551.1      0.0    0.0   0.0  702.6 10752.4    0.0
      13   28461.8   7827.7  10555.6      0.0    0.0   0.0  361.5  8982.8    0.0
      13   37061.1  10997.6  13551.2      0.0    0.0   0.0  703.6 10752.4    0.0
      14   28102.9   7710.5  10198.7      0.0    0.0   0.0  362.5  9088.3    0.0
      14   37061.1  10998.1  13551.1      0.0    0.0   0.0  702.6 10752.2    0.0
      15   29393.9   7918.8  11090.8      0.0    0.0   0.0  363.6  9265.7    0.0
      15   37061.1  10998.1  13551.1      0.0    0.0   0.0  702.8 10752.3    0.0
      16   30934.2   8347.3  11878.0      0.0    0.0   0.0  364.0  9586.2    0.0
      16   37061.1  10998.3  13551.1      0.0    0.0   0.0  702.1 10752.3    0.0
averaged   29282.1   7968.4  11183.1      0.0    0.0   0.0  362.3  9017.6    0.0
averaged   37061.1  10997.2  13551.2      0.0    0.0   0.0  703.8 10752.3    0.0

  FMO  timing statistics in pairs (CPU,wall) for each rank, sec

    Rank  FMOini FMOscf1  FMOdm1 FMOsyn1 FMOscf2  FMOes2 FMOsyn2 FMOscf3 FMOsyn3
 -------------------------------------------------------------------------------
       1    3.5   10485.9    0.5    0.0   16850.9     511.0    0.0    0.0    0.0
       1   14.8   14950.8    6.9    0.0   21480.6     607.8    0.0    0.0    0.0
       2    2.6   10527.0    0.2    0.0   16466.1     515.0    0.0    0.0    0.0
       2   14.8   14950.8    6.9    0.0   21480.8     607.7    0.0    0.0    0.0
       3    2.8   10762.3    0.3    0.0   18959.7     555.7    0.0    0.0    0.0
       3   14.8   14950.8    6.9    0.0   21480.5     607.9    0.0    0.0    0.0
       4    2.6   10917.9    0.2    0.0   18532.1     552.9    0.0    0.0    0.0
       4   14.8   14950.8    6.9    0.0   21481.1     607.4    0.0    0.0    0.0
       5    3.0   10652.4    0.4    0.0   16707.3     524.1    0.0    0.0    0.0
       5   14.8   14950.8    6.9    0.0   21480.5     608.0    0.0    0.0    0.0
       6    2.7   10812.8    0.2    0.0   17170.9     532.3    0.0    0.0    0.0
       6   14.8   14950.8    6.9    0.0   21480.8     607.7    0.0    0.0    0.0
       7    2.8   11218.5    0.3    0.0   18703.2     551.3    0.0    0.0    0.0
       7   14.8   14950.8    6.9    0.0   21480.5     608.0    0.0    0.0    0.0
       8    2.5   11418.9    0.2    0.0   18900.5     555.3    0.0    0.0    0.0
       8   14.9   14950.8    6.9    0.0   21481.0     607.5    0.0    0.0    0.0
       9    3.0   10714.9    0.5    0.0   16369.7     521.5    0.0    0.0    0.0
       9   14.8   14950.8    6.9    0.0   21480.5     607.9    0.0    0.0    0.0
      10    2.5   10719.0    0.2    0.0   19092.8     563.0    0.0    0.0    0.0
      10   14.8   14950.8    6.9    0.0   21481.1     607.4    0.0    0.0    0.0
      11    2.6   10726.3    0.3    0.0   18594.1     545.5    0.0    0.0    0.0
      11   14.8   14950.8    6.9    0.0   21480.5     607.9    0.0    0.0    0.0
      12    2.3   10799.5    0.2    0.0   18993.0     561.1    0.0    0.0    0.0
      12   14.8   14950.8    6.9    0.0   21481.3     607.2    0.0    0.0    0.0
      13    2.8   11088.1    0.4    0.0   16847.5     523.0    0.0    0.0    0.0
      13   14.8   14950.8    6.9    0.0   21480.6     607.8    0.0    0.0    0.0
      14    2.4   11190.4    0.2    0.0   16375.7     534.2    0.0    0.0    0.0
      14   14.8   14950.8    6.9    0.0   21481.0     607.4    0.0    0.0    0.0
      15    2.6   11383.3    0.3    0.0   17463.3     544.4    0.0    0.0    0.0
      15   14.8   14950.8    6.9    0.0   21480.6     607.9    0.0    0.0    0.0
      16    2.4   11567.4    0.2    0.0   18814.8     549.4    0.0    0.0    0.0
      16   14.8   14950.8    6.9    0.0   21481.3     607.2    0.0    0.0    0.0
averaged    2.7   10936.5    0.3    0.0   17802.6     540.0    0.0    0.0    0.0
averaged   14.8   14950.8    6.9    0.0   21480.8     607.7    0.0    0.0    0.0
             62810614  WORDS OF DYNAMIC MEMORY USED
 EXECUTION OF GAMESS TERMINATED NORMALLY Fri Aug  2 23:24:32 2019
 DDI: 263640 bytes (0.3 MB / 0 MWords) used by master data server.

 ----------------------------------------
 CPU timing information for all processes
 ========================================
 0: 27193.851 + 658.169 = 27852.20
 1: 26912.824 + 598.198 = 27511.23
 2: 29572.21 + 709.03 = 30281.25
 3: 29309.512 + 696.355 = 30005.868
 4: 27255.543 + 631.893 = 27887.436
 5: 27889.426 + 629.541 = 28518.968
 6: 29776.934 + 699.381 = 30476.315
 7: 30205.959 + 671.619 = 30877.579
 8: 26982.419 + 627.329 = 27609.748
 9: 29708.536 + 669.198 = 30377.734
 10: 29169.33 + 699.974 = 29869.08
 11: 29673.776 + 682.414 = 30356.190
 12: 27829.221 + 632.756 = 28461.978
 13: 27520.176 + 582.868 = 28103.44
 14: 28739.686 + 654.358 = 29394.44
 15: 30264.458 + 669.912 = 30934.371
 ----------------------------------------
 ddikick.x: exited gracefully.
----- accounting info -----
Files used on the master node gollum076.lsa.umich.edu were:
-rw-r--r-- 1 afrankz frank    24862 Aug  2 13:06 /scratch/afrankz/840478/2LX1_5/usrc/2LX1_5_minimized_charmm.F05
-rw-r--r-- 1 afrankz frank      634 Aug  2 23:24 /scratch/afrankz/840478/2LX1_5/usrc/2LX1_5_minimized_charmm.F06.001
-rw-r--r-- 1 afrankz frank      634 Aug  2 23:24 /scratch/afrankz/840478/2LX1_5/usrc/2LX1_5_minimized_charmm.F06.002
-rw-r--r-- 1 afrankz frank      634 Aug  2 23:24 /scratch/afrankz/840478/2LX1_5/usrc/2LX1_5_minimized_charmm.F06.003
-rw-r--r-- 1 afrankz frank      634 Aug  2 23:24 /scratch/afrankz/840478/2LX1_5/usrc/2LX1_5_minimized_charmm.F06.004
-rw-r--r-- 1 afrankz frank      634 Aug  2 23:24 /scratch/afrankz/840478/2LX1_5/usrc/2LX1_5_minimized_charmm.F06.005
-rw-r--r-- 1 afrankz frank      634 Aug  2 23:24 /scratch/afrankz/840478/2LX1_5/usrc/2LX1_5_minimized_charmm.F06.006
-rw-r--r-- 1 afrankz frank      634 Aug  2 23:24 /scratch/afrankz/840478/2LX1_5/usrc/2LX1_5_minimized_charmm.F06.007
-rw-r--r-- 1 afrankz frank      634 Aug  2 23:24 /scratch/afrankz/840478/2LX1_5/usrc/2LX1_5_minimized_charmm.F06.008
-rw-r--r-- 1 afrankz frank      634 Aug  2 23:24 /scratch/afrankz/840478/2LX1_5/usrc/2LX1_5_minimized_charmm.F06.009
-rw-r--r-- 1 afrankz frank      634 Aug  2 23:24 /scratch/afrankz/840478/2LX1_5/usrc/2LX1_5_minimized_charmm.F06.010
-rw-r--r-- 1 afrankz frank      634 Aug  2 23:24 /scratch/afrankz/840478/2LX1_5/usrc/2LX1_5_minimized_charmm.F06.011
-rw-r--r-- 1 afrankz frank      634 Aug  2 23:24 /scratch/afrankz/840478/2LX1_5/usrc/2LX1_5_minimized_charmm.F06.012
-rw-r--r-- 1 afrankz frank      634 Aug  2 23:24 /scratch/afrankz/840478/2LX1_5/usrc/2LX1_5_minimized_charmm.F06.013
-rw-r--r-- 1 afrankz frank      634 Aug  2 23:24 /scratch/afrankz/840478/2LX1_5/usrc/2LX1_5_minimized_charmm.F06.014
-rw-r--r-- 1 afrankz frank      634 Aug  2 23:24 /scratch/afrankz/840478/2LX1_5/usrc/2LX1_5_minimized_charmm.F06.015
-rw-r--r-- 1 afrankz frank    21906 Aug  2 23:24 /scratch/afrankz/840478/2LX1_5/usrc/2LX1_5_minimized_charmm.F07
-rw-r--r-- 1 afrankz frank        0 Aug  2 13:06 /scratch/afrankz/840478/2LX1_5/usrc/2LX1_5_minimized_charmm.F07.001
-rw-r--r-- 1 afrankz frank        0 Aug  2 13:06 /scratch/afrankz/840478/2LX1_5/usrc/2LX1_5_minimized_charmm.F07.002
-rw-r--r-- 1 afrankz frank        0 Aug  2 13:06 /scratch/afrankz/840478/2LX1_5/usrc/2LX1_5_minimized_charmm.F07.003
-rw-r--r-- 1 afrankz frank        0 Aug  2 13:06 /scratch/afrankz/840478/2LX1_5/usrc/2LX1_5_minimized_charmm.F07.004
-rw-r--r-- 1 afrankz frank        0 Aug  2 13:06 /scratch/afrankz/840478/2LX1_5/usrc/2LX1_5_minimized_charmm.F07.005
-rw-r--r-- 1 afrankz frank        0 Aug  2 13:06 /scratch/afrankz/840478/2LX1_5/usrc/2LX1_5_minimized_charmm.F07.006
-rw-r--r-- 1 afrankz frank        0 Aug  2 13:06 /scratch/afrankz/840478/2LX1_5/usrc/2LX1_5_minimized_charmm.F07.007
-rw-r--r-- 1 afrankz frank        0 Aug  2 13:06 /scratch/afrankz/840478/2LX1_5/usrc/2LX1_5_minimized_charmm.F07.008
-rw-r--r-- 1 afrankz frank        0 Aug  2 13:06 /scratch/afrankz/840478/2LX1_5/usrc/2LX1_5_minimized_charmm.F07.009
-rw-r--r-- 1 afrankz frank        0 Aug  2 13:06 /scratch/afrankz/840478/2LX1_5/usrc/2LX1_5_minimized_charmm.F07.010
-rw-r--r-- 1 afrankz frank        0 Aug  2 13:06 /scratch/afrankz/840478/2LX1_5/usrc/2LX1_5_minimized_charmm.F07.011
-rw-r--r-- 1 afrankz frank        0 Aug  2 13:06 /scratch/afrankz/840478/2LX1_5/usrc/2LX1_5_minimized_charmm.F07.012
-rw-r--r-- 1 afrankz frank        0 Aug  2 13:06 /scratch/afrankz/840478/2LX1_5/usrc/2LX1_5_minimized_charmm.F07.013
-rw-r--r-- 1 afrankz frank        0 Aug  2 13:06 /scratch/afrankz/840478/2LX1_5/usrc/2LX1_5_minimized_charmm.F07.014
-rw-r--r-- 1 afrankz frank        0 Aug  2 13:06 /scratch/afrankz/840478/2LX1_5/usrc/2LX1_5_minimized_charmm.F07.015
-rw-r--r-- 1 afrankz frank    65440 Aug  2 23:24 /scratch/afrankz/840478/2LX1_5/usrc/2LX1_5_minimized_charmm.F10.000
-rw-r--r-- 1 afrankz frank        0 Aug  2 13:06 /scratch/afrankz/840478/2LX1_5/usrc/2LX1_5_minimized_charmm.F26.000
-rw-r--r-- 1 afrankz frank        0 Aug  2 13:06 /scratch/afrankz/840478/2LX1_5/usrc/2LX1_5_minimized_charmm.F26.001
-rw-r--r-- 1 afrankz frank        0 Aug  2 13:06 /scratch/afrankz/840478/2LX1_5/usrc/2LX1_5_minimized_charmm.F26.002
-rw-r--r-- 1 afrankz frank        0 Aug  2 13:06 /scratch/afrankz/840478/2LX1_5/usrc/2LX1_5_minimized_charmm.F26.003
-rw-r--r-- 1 afrankz frank        0 Aug  2 13:06 /scratch/afrankz/840478/2LX1_5/usrc/2LX1_5_minimized_charmm.F26.004
-rw-r--r-- 1 afrankz frank        0 Aug  2 13:06 /scratch/afrankz/840478/2LX1_5/usrc/2LX1_5_minimized_charmm.F26.005
-rw-r--r-- 1 afrankz frank        0 Aug  2 13:06 /scratch/afrankz/840478/2LX1_5/usrc/2LX1_5_minimized_charmm.F26.006
-rw-r--r-- 1 afrankz frank        0 Aug  2 13:06 /scratch/afrankz/840478/2LX1_5/usrc/2LX1_5_minimized_charmm.F26.007
-rw-r--r-- 1 afrankz frank        0 Aug  2 13:06 /scratch/afrankz/840478/2LX1_5/usrc/2LX1_5_minimized_charmm.F26.008
-rw-r--r-- 1 afrankz frank        0 Aug  2 13:06 /scratch/afrankz/840478/2LX1_5/usrc/2LX1_5_minimized_charmm.F26.009
-rw-r--r-- 1 afrankz frank        0 Aug  2 13:06 /scratch/afrankz/840478/2LX1_5/usrc/2LX1_5_minimized_charmm.F26.010
-rw-r--r-- 1 afrankz frank        0 Aug  2 13:06 /scratch/afrankz/840478/2LX1_5/usrc/2LX1_5_minimized_charmm.F26.011
-rw-r--r-- 1 afrankz frank        0 Aug  2 13:06 /scratch/afrankz/840478/2LX1_5/usrc/2LX1_5_minimized_charmm.F26.012
-rw-r--r-- 1 afrankz frank        0 Aug  2 13:06 /scratch/afrankz/840478/2LX1_5/usrc/2LX1_5_minimized_charmm.F26.013
-rw-r--r-- 1 afrankz frank        0 Aug  2 13:06 /scratch/afrankz/840478/2LX1_5/usrc/2LX1_5_minimized_charmm.F26.014
-rw-r--r-- 1 afrankz frank        0 Aug  2 13:06 /scratch/afrankz/840478/2LX1_5/usrc/2LX1_5_minimized_charmm.F26.015
-rw-r--r-- 1 afrankz frank        0 Aug  2 13:06 /scratch/afrankz/840478/2LX1_5/usrc/2LX1_5_minimized_charmm.F27.000
-rw-r--r-- 1 afrankz frank        0 Aug  2 13:06 /scratch/afrankz/840478/2LX1_5/usrc/2LX1_5_minimized_charmm.F27.001
-rw-r--r-- 1 afrankz frank        0 Aug  2 13:06 /scratch/afrankz/840478/2LX1_5/usrc/2LX1_5_minimized_charmm.F27.002
-rw-r--r-- 1 afrankz frank        0 Aug  2 13:06 /scratch/afrankz/840478/2LX1_5/usrc/2LX1_5_minimized_charmm.F27.003
-rw-r--r-- 1 afrankz frank        0 Aug  2 13:06 /scratch/afrankz/840478/2LX1_5/usrc/2LX1_5_minimized_charmm.F27.004
-rw-r--r-- 1 afrankz frank        0 Aug  2 13:06 /scratch/afrankz/840478/2LX1_5/usrc/2LX1_5_minimized_charmm.F27.005
-rw-r--r-- 1 afrankz frank        0 Aug  2 13:06 /scratch/afrankz/840478/2LX1_5/usrc/2LX1_5_minimized_charmm.F27.006
-rw-r--r-- 1 afrankz frank        0 Aug  2 13:06 /scratch/afrankz/840478/2LX1_5/usrc/2LX1_5_minimized_charmm.F27.007
-rw-r--r-- 1 afrankz frank        0 Aug  2 13:06 /scratch/afrankz/840478/2LX1_5/usrc/2LX1_5_minimized_charmm.F27.008
-rw-r--r-- 1 afrankz frank        0 Aug  2 13:06 /scratch/afrankz/840478/2LX1_5/usrc/2LX1_5_minimized_charmm.F27.009
-rw-r--r-- 1 afrankz frank        0 Aug  2 13:06 /scratch/afrankz/840478/2LX1_5/usrc/2LX1_5_minimized_charmm.F27.010
-rw-r--r-- 1 afrankz frank        0 Aug  2 13:06 /scratch/afrankz/840478/2LX1_5/usrc/2LX1_5_minimized_charmm.F27.011
-rw-r--r-- 1 afrankz frank        0 Aug  2 13:06 /scratch/afrankz/840478/2LX1_5/usrc/2LX1_5_minimized_charmm.F27.012
-rw-r--r-- 1 afrankz frank        0 Aug  2 13:06 /scratch/afrankz/840478/2LX1_5/usrc/2LX1_5_minimized_charmm.F27.013
-rw-r--r-- 1 afrankz frank        0 Aug  2 13:06 /scratch/afrankz/840478/2LX1_5/usrc/2LX1_5_minimized_charmm.F27.014
-rw-r--r-- 1 afrankz frank        0 Aug  2 13:06 /scratch/afrankz/840478/2LX1_5/usrc/2LX1_5_minimized_charmm.F27.015
-rw-r--r-- 1 afrankz frank 33472512 Aug  2 17:16 /scratch/afrankz/840478/2LX1_5/usrc/2LX1_5_minimized_charmm.F40.000
-rw-r--r-- 1 afrankz frank 33472512 Aug  2 17:16 /scratch/afrankz/840478/2LX1_5/usrc/2LX1_5_minimized_charmm.F40.001
-rw-r--r-- 1 afrankz frank 33472512 Aug  2 17:16 /scratch/afrankz/840478/2LX1_5/usrc/2LX1_5_minimized_charmm.F40.002
-rw-r--r-- 1 afrankz frank 33472512 Aug  2 17:16 /scratch/afrankz/840478/2LX1_5/usrc/2LX1_5_minimized_charmm.F40.003
-rw-r--r-- 1 afrankz frank 33472512 Aug  2 17:16 /scratch/afrankz/840478/2LX1_5/usrc/2LX1_5_minimized_charmm.F40.004
-rw-r--r-- 1 afrankz frank 33472512 Aug  2 17:16 /scratch/afrankz/840478/2LX1_5/usrc/2LX1_5_minimized_charmm.F40.005
-rw-r--r-- 1 afrankz frank 33472512 Aug  2 17:16 /scratch/afrankz/840478/2LX1_5/usrc/2LX1_5_minimized_charmm.F40.006
-rw-r--r-- 1 afrankz frank 33472512 Aug  2 17:16 /scratch/afrankz/840478/2LX1_5/usrc/2LX1_5_minimized_charmm.F40.007
-rw-r--r-- 1 afrankz frank 33472512 Aug  2 17:16 /scratch/afrankz/840478/2LX1_5/usrc/2LX1_5_minimized_charmm.F40.008
-rw-r--r-- 1 afrankz frank 33472512 Aug  2 17:16 /scratch/afrankz/840478/2LX1_5/usrc/2LX1_5_minimized_charmm.F40.009
-rw-r--r-- 1 afrankz frank 33472512 Aug  2 17:16 /scratch/afrankz/840478/2LX1_5/usrc/2LX1_5_minimized_charmm.F40.010
-rw-r--r-- 1 afrankz frank 33472512 Aug  2 17:16 /scratch/afrankz/840478/2LX1_5/usrc/2LX1_5_minimized_charmm.F40.011
-rw-r--r-- 1 afrankz frank 33472512 Aug  2 17:16 /scratch/afrankz/840478/2LX1_5/usrc/2LX1_5_minimized_charmm.F40.012
-rw-r--r-- 1 afrankz frank 33472512 Aug  2 17:16 /scratch/afrankz/840478/2LX1_5/usrc/2LX1_5_minimized_charmm.F40.013
-rw-r--r-- 1 afrankz frank 33472512 Aug  2 17:16 /scratch/afrankz/840478/2LX1_5/usrc/2LX1_5_minimized_charmm.F40.014
-rw-r--r-- 1 afrankz frank 33472512 Aug  2 17:16 /scratch/afrankz/840478/2LX1_5/usrc/2LX1_5_minimized_charmm.F40.015
Fri Aug  2 23:24:36 EDT 2019
0.208u 0.172s 10:17:50.84 0.0%	0+0k 24+168io 0pf+0w
