----- GAMESS execution script 'rungms' -----
This job is running on host gollum069.lsa.umich.edu
under operating system Linux at Fri Aug 2 13:06:48 EDT 2019
Available scratch disk space (Kbyte units) at beginning of the job is
Filesystem     1K-blocks  Used Available Use% Mounted on
/dev/sda4      426933580 33272 426900308   1% /scratch
GAMESS temporary binary files will be written to /scratch/afrankz/840480/2LX1_0/usrc
GAMESS supplementary output files will be written to /scratch/afrankz/840480/2LX1_0/src
Copying input file 2LX1_0_minimized_charmm.inp to your run's scratch directory...
This is a GDDI run, keeping various output files on local disks
 
Assuming a single but multicore node.
 

 Distributed Data Interface kickoff program.
 Initiating 16 compute processes on 1 nodes to run the following command:
 /export/apps/CentOS7/gamess/src/build//gamess.R3.x 2LX1_0_minimized_charmm 

          ******************************************************
          *         GAMESS VERSION = 30 SEP 2018 (R3)         *
          *             FROM IOWA STATE UNIVERSITY             *
          * M.W.SCHMIDT, K.K.BALDRIDGE, J.A.BOATZ, S.T.ELBERT, *
          *   M.S.GORDON, J.H.JENSEN, S.KOSEKI, N.MATSUNAGA,   *
          *          K.A.NGUYEN, S.J.SU, T.L.WINDUS,           *
          *       TOGETHER WITH M.DUPUIS, J.A.MONTGOMERY       *
          *         J.COMPUT.CHEM.  14, 1347-1363(1993)        *
          **************** 64 BIT LINUX VERSION ****************

  SINCE 1993, STUDENTS AND POSTDOCS WORKING AT IOWA STATE UNIVERSITY
  AND ALSO IN THEIR VARIOUS JOBS AFTER LEAVING ISU HAVE MADE IMPORTANT
  CONTRIBUTIONS TO THE CODE:
     IVANA ADAMOVIC, CHRISTINE AIKENS, YURI ALEXEEV, POOJA ARORA,
     ANDREY ASADCHEV, ROB BELL, PRADIPTA BANDYOPADHYAY, JONATHAN BENTZ,
     BRETT BODE, KURT BRORSEN, CALEB CARLIN, GALINA CHABAN, WEI CHEN,
     CHEOL HO CHOI, PAUL DAY, ALBERT DEFUSCO, NUWAN DESILVA, TIM DUDLEY,
     DMITRI FEDOROV, ALEX FINDLATER, GRAHAM FLETCHER, MARK FREITAG,
     KURT GLAESEMANN, ANASTASIA GUNINA,
     DAN KEMP, GRANT MERRILL, NORIYUKI MINEZAWA, JONATHAN MULLIN,
     TAKESHI NAGATA, SEAN NEDD, HEATHER NETZLOFF, BOSILJKA NJEGIC, RYAN OLSON,
     MIKE PAK, BUU PHAM,
     SPENCER PRUITT, LUKE ROSKOP, JIM SHOEMAKER, LYUDMILA SLIPCHENKO,
     TONY SMITH, SAROM SOK LEANG, JIE SONG, TETSUYA TAKETSUGU, SIMON WEBB,
     PENG XU, SOOHAENG YOO, FEDERICO ZAHARIEV

  ADDITIONAL CODE HAS BEEN PROVIDED BY COLLABORATORS IN OTHER GROUPS:
     IOWA STATE UNIVERSITY:
          JOE IVANIC, AARON WEST, LAIMUTIS BYTAUTAS, KLAUS RUEDENBERG
     UNIVERSITY OF TOKYO: KIMIHIKO HIRAO, TAKAHITO NAKAJIMA,
          TAKAO TSUNEDA, MUNEAKI KAMIYA, SUSUMU YANAGISAWA,
          KIYOSHI YAGI, MAHITO CHIBA, SEIKEN TOKURA, NAOAKI KAWAKAMI
     UNIVERSITY OF AARHUS: FRANK JENSEN
     UNIVERSITY OF IOWA: VISVALDAS KAIRYS, HUI LI
     NATIONAL INST. OF STANDARDS AND TECHNOLOGY: WALT STEVENS, DAVID GARMER
     UNIVERSITY OF PISA: BENEDETTA MENNUCCI, JACOPO TOMASI
     UNIVERSITY OF MEMPHIS: HENRY KURTZ, PRAKASHAN KORAMBATH
     UNIVERSITY OF ALBERTA: TOBY ZENG, MARIUSZ KLOBUKOWSKI
     UNIVERSITY OF NEW ENGLAND: MARK SPACKMAN
     MIE UNIVERSITY: HIROAKI UMEDA
     NAT. INST. OF ADVANCED INDUSTRIAL SCIENCE AND TECHNOLOGY: KAZUO KITAURA
     MICHIGAN STATE UNIVERSITY:
          KAROL KOWALSKI, MARTA WLOCH, JEFFREY GOUR, JESSE LUTZ,
          WEI LI, JUN SHEN, J. EMILIANO DEUSTUA, PIOTR PIECUCH
     UNIVERSITY OF MINNESOTA:
          YINAN SHU
     UNIVERSITY OF SILESIA: MONIKA MUSIAL, STANISLAW KUCHARSKI
     FACULTES UNIVERSITAIRES NOTRE-DAME DE LA PAIX:
          OLIVIER QUINET, BENOIT CHAMPAGNE
     UNIVERSITY OF CALIFORNIA - SANTA BARBARA: BERNARD KIRTMAN
     INSTITUTE FOR MOLECULAR SCIENCE:
          KAZUYA ISHIMURA, MICHIO KATOUDA, AND SHIGERU NAGASE
     UNIVERSITY OF NOTRE DAME: ANNA POMOGAEVA, DAN CHIPMAN
     KYUSHU UNIVERSITY:
          HARUYUKI NAKANO,
          FENG LONG GU, JACEK KORCHOWIEC, MARCIN MAKOWSKI, AND YURIKO AOKI,
          HIROTOSHI MORI AND EISAKU MIYOSHI
     PENNSYLVANIA STATE UNIVERSITY:
          TZVETELIN IORDANOV, CHET SWALINA, JONATHAN SKONE,
          SHARON HAMMES-SCHIFFER
     WASEDA UNIVERSITY:
          MASATO KOBAYASHI, TOMOKO AKAMA, TSUGUKI TOUMA,
          TAKESHI YOSHIKAWA, YASUHIRO IKABATA, JUNJI SEINO,
          YUYA NAKAJIMA, HIROMI NAKAI
     NANJING UNIVERSITY: SHUHUA LI
     UNIVERSITY OF NEBRASKA:
          PEIFENG SU, DEJUN SI, NANDUN THELLAMUREGE, YALI WANG, HUI LI
     UNIVERSITY OF ZURICH: ROBERTO PEVERATI, KIM BALDRIDGE
     N. COPERNICUS UNIVERSITY AND JACKSON STATE UNIVERSITY:
          MARIA BARYSZ
     UNIVERSITY OF COPENHAGEN: Jimmy Kromann, CASPER STEINMANN
     TOKYO INSTITUTE OF TECHNOLOGY: HIROYA NAKATA
     NAGOYA UNIVERSITY: YOSHIO NISHIMOTO, STEPHAN IRLE
     MOSCOW STATE UNIVERSITY: VLADIMIR MIRONOV


 PARALLEL VERSION RUNNING ON       16 PROCESSORS IN        1 NODES.

 EXECUTION OF GAMESS BEGUN Fri Aug  2 13:06:53 2019

            ECHO OF THE FIRST FEW INPUT CARDS -
 INPUT CARD>!*** FMO 5.3 (Gamess) INPUT generated by Facio 22.1.1.32 ***                    
 INPUT CARD> $CONTRL RUNTYP=ENERGY NPRINT=-5 ISPHER=1 MAXIT=200 $END                        
 INPUT CARD> $SYSTEM MWORDS=63 MEMDDI=63 $END                                               
 INPUT CARD> $GDDI NGROUP=1 $END                                                            
 INPUT CARD> $SCF DIRSCF=.TRUE. NPUNCH=0 $END                                               
 INPUT CARD>!*** NumCPU : 2  MemPerNode : 512MB                                             
 INPUT CARD> $PCM SOLVNT=WATER IEF=-10 ICOMP=2 ICAV=1 IDISP=1 IFMO=-1 $END                  
 INPUT CARD> $PCMCAV RADII=SUAHF $END                                                       
 INPUT CARD> $TESCAV NTSALL=60 $END                                                         
 INPUT CARD> $FMOPRP                                                                        
 INPUT CARD>    NAODIR=200                                                                  
 INPUT CARD>    NGRFMO(1)=1, 1, 0, 0, 0,   0, 0, 0, 0, 0                                    
 INPUT CARD>    IPIEDA=1                                                                    
 INPUT CARD>    NPRINT=9                                                                    
 INPUT CARD> $END                                                                           
 INPUT CARD> $FMO                                                                           
 INPUT CARD>      SCFTYP(1)=RHF                                                             
 INPUT CARD>      MODGRD=10                                                                 
 INPUT CARD>      MODMUL=0                                                                  
 INPUT CARD>      MAXCAO=5                                                                  
 INPUT CARD>      MAXBND=18                                                                 
 INPUT CARD>      NLAYER=1                                                                  
 INPUT CARD>      MPLEVL(1)=2                                                               
 INPUT CARD>      NFRAG=16                                                                  
 INPUT CARD>      ICHARG(1)=-1, -1, -1, -1, -1, -1, -1, 0, -1, -1, -1, -1, -1, -1,          
 INPUT CARD>-1, 0                                                                           
 INPUT CARD>      FRGNAM(1)=F1, F2, F3, F4, F5, F6, F7, F8, F9, F10, F11, F12, F13,         
 INPUT CARD>F14, F15, F16                                                                   
 INPUT CARD>      indat(1)=0                                                                
 INPUT CARD>               1   -35   0                                                      
 INPUT CARD>               36   -66   0                                                     
 INPUT CARD>               67   -100   0                                                    
 INPUT CARD>               101   -133   0                                                   
 INPUT CARD>               134   -167   0                                                   
 INPUT CARD>               168   -197   0                                                   
 INPUT CARD>               198   -231   0                                                   
 INPUT CARD>               232   -260   0                                                   
 INPUT CARD>               261   -293   0                                                   
 INPUT CARD>               294   -324   0                                                   
 INPUT CARD>               325   -358   0                                                   
 INPUT CARD>               359   -391   0                                                   
 INPUT CARD>               392   -425   0                                                   
 INPUT CARD>               426   -455   0                                                   
 INPUT CARD>               456   -489   0                                                   
 INPUT CARD>               490   -516   0                                                   
 INPUT CARD> $END                                                                           
 INPUT CARD>                                                                                
 INPUT CARD> $FMOBND                                                                        
 INPUT CARD>   -36   35       6-31G*    MINI                                                
 INPUT CARD>   -67   66       6-31G*    MINI                                                


 -------------------------------------------------------------
 GROUP DDI, PROGRAMMED BY: RYAN M. OLSON AND DMITRI G. FEDOROV
        FEDOROV ET AL., J. COMPUT. CHEM., 25 (2004) 872.
 -------------------------------------------------------------

 -------------------------------------------------------
 GDDI: INITIALIZATION COMPLETED FOR GROUP     1 OF     1
 WITH    16 PROCESSES BALTYP=DLB   global rank=        0
 -------------------------------------------------------

   63000000 WORDS OF MEMORY AVAILABLE


     RUN TITLE
     ---------
  FMO calculation                                                                

 THE POINT GROUP OF THE MOLECULE IS C1      
 THE ORDER OF THE PRINCIPAL AXIS IS     0

 ATOM   ATOMIC CHARGE
 H.1-1       1.0
 O.1-1       8.0
 C.1-1       6.0
 N.1-1       7.0
 P.1-1      15.0

     ATOMIC BASIS SET LIBRARY
     ----------------
 THE CONTRACTED PRIMITIVE FUNCTIONS HAVE BEEN UNNORMALIZED
 THE CONTRACTED BASIS FUNCTIONS ARE NOW NORMALIZED TO UNITY

  SHELL TYPE  PRIMITIVE        EXPONENT          CONTRACTION COEFFICIENT(S)

 H.1-1     

      1   S       1            18.7311370    0.033494604338
      1   S       2             2.8253944    0.234726953484
      1   S       3             0.6401217    0.813757326146

      2   S       4             0.1612778    1.000000000000

 O.1-1     

      3   S       5          5484.6716600    0.001831074430
      3   S       6           825.2349460    0.013950172200
      3   S       7           188.0469580    0.068445078098
      3   S       8            52.9645000    0.232714335992
      3   S       9            16.8975704    0.470192897984
      3   S      10             5.7996353    0.358520852987

      4   L      11            15.5396162   -0.110777549525    0.070874268231
      4   L      12             3.5999336   -0.148026262701    0.339752839147
      4   L      13             1.0137618    1.130767015354    0.727158577316

      5   L      14             0.2700058    1.000000000000    1.000000000000

      6   D      15             0.8000000    1.000000000000

 C.1-1     

      7   S      16          3047.5248800    0.001834737132
      7   S      17           457.3695180    0.014037322813
      7   S      18           103.9486850    0.068842622264
      7   S      19            29.2101553    0.232184443216
      7   S      20             9.2866630    0.467941348435
      7   S      21             3.1639270    0.362311985337

      8   L      22             7.8682723   -0.119332419775    0.068999066591
      8   L      23             1.8812885   -0.160854151696    0.316423960957
      8   L      24             0.5442493    1.143456437840    0.744308290898

      9   L      25             0.1687145    1.000000000000    1.000000000000

     10   D      26             0.8000000    1.000000000000

 N.1-1     

     11   S      27          4173.5114600    0.001834772160
     11   S      28           627.4579110    0.013994627002
     11   S      29           142.9020930    0.068586551812
     11   S      30            40.2343293    0.232240873040
     11   S      31            12.8202129    0.469069948082
     11   S      32             4.3904370    0.360455199063

     12   L      33            11.6263619   -0.114961181702    0.067579743878
     12   L      34             2.7162798   -0.169117478561    0.323907295893
     12   L      35             0.7722184    1.145851947027    0.740895139755

     13   L      36             0.2120315    1.000000000000    1.000000000000

     14   D      37             0.8000000    1.000000000000

 P.1-1     

     15   S      38         19413.3000000    0.001851598923
     15   S      39          2909.4200000    0.014206191735
     15   S      40           661.3640000    0.069999459277
     15   S      41           185.7590000    0.240078860331
     15   S      42            59.1943000    0.484761717984
     15   S      43            20.0310000    0.335199804993

     16   L      44           339.4780000   -0.002782170105    0.004564616191
     16   L      45            81.0101000   -0.036049901354    0.033693571881
     16   L      46            25.8780000   -0.116631004382    0.139754883368
     16   L      47             9.4522100    0.096832803638    0.339361716786
     16   L      48             3.6656600    0.614418023082    0.450920623685
     16   L      49             1.4674600    0.403798015170    0.238585800889

     17   L      50             2.1562300   -0.252924113863   -0.017765312733
     17   L      51             0.7489970    0.032851844678    0.274058196433
     17   L      52             0.2831450    1.081254761783    0.785421562957

     18   L      53             0.0998317    1.000000000000    1.000000000000

     19   D      54             0.5500000    1.000000000000

 TOTAL NUMBER OF BASIS SET SHELLS             =   19
 NUMBER OF CARTESIAN GAUSSIAN BASIS FUNCTIONS =   66

     $CONTRL OPTIONS
     ---------------
 SCFTYP=RHF          RUNTYP=ENERGY       EXETYP=RUN     
 MPLEVL=       0     CITYP =NONE         CCTYP =NONE         VBTYP =NONE    
 DFTTYP=NONE         TDDFT =NONE    
 MULT  =       1     ICHARG=       0     NZVAR =       0     COORD =UNIQUE  
 PP    =NONE         RELWFN=NONE         LOCAL =NONE         NUMGRD=       F
 ISPHER=       1     NOSYM =       0     MAXIT =     200     UNITS =ANGS    
 PLTORB=       F     MOLPLT=       F     AIMPAC=       F     FRIEND=        
 NPRINT=      -5     IREST =       0     GEOM  =INPUT   
 NORMF =       0     NORMP =       0     ITOL  =      24     ICUT  =      12
 INTTYP=BEST         GRDTYP=BEST         QMTTOL= 1.0E-06

     $SYSTEM OPTIONS
     ---------------
  REPLICATED MEMORY=    63000000 WORDS (ON EVERY NODE).
 DISTRIBUTED MEMDDI=          63 MILLION WORDS IN AGGREGATE,
 MEMDDI DISTRIBUTED OVER  16 PROCESSORS IS     3937500 WORDS/PROCESSOR.
 TOTAL MEMORY REQUESTED ON EACH PROCESSOR=    66937500 WORDS.
 TIMLIM=      525600.00 MINUTES, OR     365.0 DAYS.
 PARALL= T  BALTYP=  DLB     KDIAG=    0  COREFL= F
 MXSEQ2=     300 MXSEQ3=     150  mem10=         0

 ** LOOKING UP INTERNALLY STORED DATA FOR SOLVENT=WATER    **
 OPTICAL AND PHYSICAL CONSTANTS:
 EPS= 78.390; EPSINF=  1.776; RSOLV=  1.385 A; VMOL=  18.070 ML/MOL;
 TCE= .25700E-03 1/K; STEN= 71.810 DYN/CM;  DSTEN=  0.6500; CMF=  1.2770


     -----------------------------------
     INPUT FOR PCM SOLVATION CALCULATION 
     -----------------------------------
     IEF   =     -10
     ICOMP =       2     IFIELD=       0     ICAV  =       1
     IDISP =       1     IREP  =       0     IDP   =       0

     SOLVNT=WATER        EPS   = 78.3900     EPSINF=  1.7760
     VMOL  = 18.0700     TCE   =  0.00025700 STEN  = 71.8100
     DSTEN =  0.6500     CMF   =  1.2770     RSOLV =  1.3850

     NESFP =       0
     OMEGA = 40.0000     RET   =100.0000     FRO   =  0.7000

     TABS  =298.0000     IPRINT=       0

     --------------------------------
     INPUT FOR ITERATIVE C-PCM METHOD 
     --------------------------------
     IPCMIT  =         1     MXDIIS  =        50
     MXITR1  =       200     MXITR2  =       200
     THRES   = 0.100E-09     IMUL    =         3
     RCUT(1) =   20.0000     RCUT(2) =   50.0000

     IDIRCT  =         1
     IMGABI  =         0     RABI    =    4.0000
     IMGASC  =         0     RASC    =   20.0000
     THRSLS  = 0.500E-03     DENSLS  =    0.0100
     IEFPOL  =         1     REFPOL  =    0.0000

     INPUT FOR ISOTROPIC DIELECTRICS
     -------------------------------
     EPS=    78.39

          ----------------
          PROPERTIES INPUT
          ----------------

     MOMENTS            FIELD           POTENTIAL          DENSITY
 IEMOM =       1   IEFLD =       0   IEPOT =       0   IEDEN =       0
 WHERE =COMASS     WHERE =NUCLEI     WHERE =NUCLEI     WHERE =NUCLEI  
 OUTPUT=BOTH       OUTPUT=BOTH       OUTPUT=NONE       OUTPUT=BOTH    
 IEMINT=       0   IEFINT=       0                     IEDINT=       0
                                                       MORB  =       0
          EXTRAPOLATION IN EFFECT
          SOSCF IN EFFECT
 ORBITAL PRINTING OPTION: NPREO=     1 32767     2     1

     -------------------------------
     INTEGRAL TRANSFORMATION OPTIONS
     -------------------------------
     NWORD  =            0
     CUTOFF = 1.0E-10     MPTRAN =       0
     DIRTRF =       T     AOINTS =DUP     

          ----------------------
          INTEGRAL INPUT OPTIONS
          ----------------------
 NOPK  =       1 NORDER=       0 SCHWRZ=       T

 ..... DONE SETTING UP THE RUN .....
 CPU     0: STEP CPU TIME=     0.05 TOTAL CPU TIME=          0.0 (      0.0 MIN)
 TOTAL WALL CLOCK TIME=          0.1 SECONDS, CPU UTILIZATION IS    83.33%
 CPU     0: STEP CPU TIME=     0.00 TOTAL CPU TIME=          0.0 (      0.0 MIN)
 TOTAL WALL CLOCK TIME=          0.1 SECONDS, CPU UTILIZATION IS    83.33%

                    ----------------------
                    AO INTEGRAL TECHNOLOGY
                    ----------------------
     S,P,L SHELL ROTATED AXIS INTEGRALS, REPROGRAMMED BY
        KAZUYA ISHIMURA (IMS) AND JOSE SIERRA (SYNSTAR).
     S,P,D,L SHELL ROTATED AXIS INTEGRALS PROGRAMMED BY
        KAZUYA ISHIMURA (INSTITUTE FOR MOLECULAR SCIENCE).
     S,P,D,F,G SHELL TO TOTAL QUARTET ANGULAR MOMENTUM SUM 5,
        ERIC PROGRAM BY GRAHAM FLETCHER (ELORET AND NASA ADVANCED
        SUPERCOMPUTING DIVISION, AMES RESEARCH CENTER).
     S,P,D,F,G,L SHELL GENERAL RYS QUADRATURE PROGRAMMED BY
        MICHEL DUPUIS (PACIFIC NORTHWEST NATIONAL LABORATORY).
 Setting modorb=1 flag...
 Setting modorb=1 flag...

          -----------------------
          MP2 CONTROL INFORMATION
          -----------------------
          NACORE =        8  NBCORE =        8
          LMOMP2 =        F  AOINTS = DUP     
          METHOD =        2  NWORD  =               0
          MP2PRP =        F  OSPT   = NONE    
          CUTOFF = 1.00E-12  CPHFBS = BASISAO 
          CODE   = IMS     

          NUMBER OF CORE -A-  ORBITALS =     8
          NUMBER OF CORE -B-  ORBITALS =     8
          NUMBER OF OCC. -A-  ORBITALS =    18
          NUMBER OF OCC. -B-  ORBITALS =    18
          NUMBER OF MOLECULAR ORBITALS =    66
          NUMBER OF   BASIS  FUNCTIONS =    66

 CPU     0: STEP CPU TIME=     0.03 TOTAL CPU TIME=          0.1 (      0.0 MIN)
 TOTAL WALL CLOCK TIME=          0.1 SECONDS, CPU UTILIZATION IS    80.00%
 CPU     0: STEP CPU TIME=     0.00 TOTAL CPU TIME=          0.1 (      0.0 MIN)
 TOTAL WALL CLOCK TIME=          0.1 SECONDS, CPU UTILIZATION IS    80.00%

     INPUT FOR CAVITY DEFINITION 
     ---------------------------
   ATOM               COORDINATES                RADIUS       EPS
      1      8.8860      8.4070      5.3420      0.0100     78.3900
      2      7.9350      8.6020      5.4440      1.5900     78.3900
      3      7.8430      9.9650      5.8880      1.7700     78.3900
      4      8.3390     10.6350      5.1470      0.0100     78.3900
      5      8.3820     10.0750      6.8560      0.0100     78.3900
      6      6.4010     10.4510      6.0940      1.7700     78.3900
      7      6.3810     11.5500      6.2620      0.0100     78.3900
      8      5.5710     10.1650      4.9250      1.5900     78.3900
      9      4.2660      9.8120      5.3690      1.7700     78.3900
     10      3.5570     10.5110      4.8670      0.0100     78.3900
     11      3.9170      8.4340      4.9980      1.6800     78.3900
     12      2.7670      6.6150      4.5280      1.7700     78.3900
     13      4.1020      6.3120      4.2590      1.6800     78.3900
     14      4.7420      7.4270      4.5470      1.7700     78.3900
     15      5.8200      7.5820      4.4480      0.0100     78.3900
     16      0.4050      6.4890      4.7470      1.6800     78.3900
     17      0.4610      7.7310      5.2380      1.7700     78.3900
     18     -0.5020      8.1690      5.5310      0.0100     78.3900
     19      1.5220      8.5290      5.3870      1.6800     78.3900
     20      2.6490      7.9100      5.0000      1.7700     78.3900
     21      1.5610      5.8860      4.3700      1.7700     78.3900
     22      1.4790      4.6480      3.8440      1.6800     78.3900
     23      2.2930      4.1650      3.5090      0.0100     78.3900
     24      0.5800      4.2310      3.7060      0.0100     78.3900
     25      4.2150     10.0360      6.8630      1.7700     78.3900
     26      3.5190      9.3440      7.3850      0.0100     78.3900
     27      3.8460     11.3770      7.1260      1.5900     78.3900
     28      3.9380     11.5110      8.0780      0.0100     78.3900
     29      5.6610      9.7740      7.2550      1.7700     78.3900
     30      5.9020      8.6880      7.1930      0.0100     78.3900
     31      6.0590     10.3660      8.5070      1.5900     78.3900
     32      5.9000      9.5470      9.8430      2.1000     78.3900
     33      6.4720     10.3540     10.9440      1.5900     78.3900
     34      6.4760      8.2030      9.6370      1.5900     78.3900
     35      4.3500      9.3970     10.0500      1.5900     78.3900
     36      3.5470     10.5200     10.4790      1.7700     78.3900
     37      3.6860     11.3970      9.8050      0.0100     78.3900
     38      3.8380     10.8400     11.5070      0.0100     78.3900
     39      2.0480     10.1680     10.5000      1.7700     78.3900
     40      1.4370     11.0770     10.6810      0.0100     78.3900
     41      1.6260      9.6160      9.2200      1.5900     78.3900
     42      0.6450      8.6080      9.4470      1.7700     78.3900
     43     -0.2650      8.9750      8.9210      0.0100     78.3900
     44      1.0120      7.2880      8.8640      1.6800     78.3900
     45      2.3340      6.9700      8.6500      1.7700     78.3900
     46      3.0590      7.7220      8.9710      0.0100     78.3900
     47      2.6830      5.8160      8.0610      1.7700     78.3900
     48      3.7190      5.5570      7.8500      0.0100     78.3900
     49      0.0180      6.3660      8.5330      1.7700     78.3900
     50     -1.1680      6.6410      8.7590      1.5900     78.3900
     51      0.3520      5.2010      7.9440      1.6800     78.3900
     52      1.6360      4.9240      7.6780      1.7700     78.3900
     53      1.9170      3.7970      7.0340      1.6800     78.3900
     54      1.1530      3.2680      6.6610      0.0100     78.3900
     55      2.8510      3.5280      6.8020      0.0100     78.3900
     56      0.3480      8.5620     10.9360      1.7700     78.3900
     57      0.1430      7.5330     11.3070      0.0100     78.3900
     58     -0.7440      9.4160     11.2310      1.5900     78.3900
     59     -0.7650      9.4810     12.1930      0.0100     78.3900
     60      1.6360      9.1100     11.5380      1.7700     78.3900
     61      2.4300      8.3330     11.5230      0.0100     78.3900
     62      1.4680      9.7280     12.8300      1.5900     78.3900
     63      1.8230      8.9910     14.1740      2.1000     78.3900
     64      1.6400      9.9640     15.2750      1.5900     78.3900
     65      3.1580      8.3740     14.0470      1.5900     78.3900
     66      0.7500      7.8590     14.3170      1.5900     78.3900
     67     -0.6480      8.1570     14.4910      1.7700     78.3900
     68     -1.0070      8.8940     13.7410      0.0100     78.3900
     69     -0.8310      8.5950     15.4990      0.0100     78.3900
     70     -1.5100      6.8940     14.3630      1.7700     78.3900
     71     -2.5790      7.1910     14.4270      0.0100     78.3900
     72     -1.3210      6.2330     13.0720      1.5900     78.3900
     73     -1.1470      4.8450     13.2850      1.7700     78.3900
     74     -2.1720      4.4050     13.2910      0.0100     78.3900
     75     -0.2950      4.2030     12.2580      1.6800     78.3900
     76      1.0100      4.4930     11.8950      1.7700     78.3900
     77      3.9230      6.3370     12.3170      1.6800     78.3900
     78      4.8670      6.3400     11.9990      0.0100     78.3900
     79      3.6070      7.0440     12.9620      0.0100     78.3900
     80      1.7920      5.4660     12.4030      1.6800     78.3900
     81      3.0280      5.4470     11.9240      1.7700     78.3900
     82      3.4570      4.5280     11.0040      1.6800     78.3900
     83      4.4170      4.5720     10.7030      0.0100     78.3900
     84      2.6860      3.4980     10.4750      1.7700     78.3900
     85      3.1540      2.6980      9.6600      1.5900     78.3900
     86      1.3510      3.5340     10.9620      1.7700     78.3900
     87      0.2820      2.6810     10.7080      1.6800     78.3900
     88     -0.6710      3.1160     11.5010      1.7700     78.3900
     89     -1.6700      2.6780     11.5790      0.0100     78.3900
     90     -0.5370      4.6990     14.6560      1.7700     78.3900
     91      0.5510      4.9470     14.6240      0.0100     78.3900
     92     -0.7400      3.4000     15.2030      1.5900     78.3900
     93     -0.6720      2.7290     14.5090      0.0100     78.3900
     94     -1.2430      5.8180     15.4330      1.7700     78.3900
     95     -0.4900      6.2530     16.1360      0.0100     78.3900
     96     -2.4750      5.4190     16.0880      1.5900     78.3900
     97     -2.6320      5.7410     17.6220      2.1000     78.3900
     98     -3.9150      5.1790     18.0890      1.5900     78.3900
     99     -2.4300      7.1940     17.8360      1.5900     78.3900
    100     -1.4400      4.9300     18.2510      1.5900     78.3900
    101     -1.2780      4.7780     19.6740      1.7700     78.3900
    102     -2.1080      4.1790     20.1130      0.0100     78.3900
    103     -1.2520      5.7620     20.1870      0.0100     78.3900
    104      0.0450      4.0840     20.0010      1.7700     78.3900
    105      0.1810      4.0500     21.1020      0.0100     78.3900
    106      0.0370      2.7060     19.5390      1.5900     78.3900
    107      1.2390      2.4730     18.8530      1.7700     78.3900
    108      2.0210      2.2660     19.6210      0.0100     78.3900
    109      1.1080      1.3480     17.9320      1.6800     78.3900
    110      1.5560     -0.3570     16.6260      1.7700     78.3900
    111      0.1800     -0.1830     16.5800      1.6800     78.3900
    112     -0.0390      0.8430     17.3680      1.7700     78.3900
    113     -1.0180      1.2820     17.5890      0.0100     78.3900
    114      3.7560     -1.1420     16.2350      1.6800     78.3900
    115      4.1650     -0.2020     17.0890      1.7700     78.3900
    116      5.2460     -0.1600     17.2660      0.0100     78.3900
    117      3.4400      0.7040     17.7530      1.6800     78.3900
    118      2.1340      0.5720     17.4680      1.7700     78.3900
    119      2.4330     -1.2430     15.9670      1.7700     78.3900
    120      2.0410     -2.1550     15.0690      1.6800     78.3900
    121      1.0750     -2.4270     15.0050      0.0100     78.3900
    122      2.7380     -2.7300     14.6380      0.0100     78.3900
    123      1.5340      3.7860     18.1750      1.7700     78.3900
    124      0.7790      3.9870     17.3790      0.0100     78.3900
    125      2.8480      3.8780     17.6520      1.5900     78.3900
    126      3.0660      3.0650     17.1770      0.0100     78.3900
    127      1.2950      4.7300     19.3560      1.7700     78.3900
    128      1.0280      5.7390     18.9650      0.0100     78.3900
    129      2.4090      4.7710     20.2740      1.5900     78.3900
    130      2.7070      6.0250     21.1680      2.1000     78.3900
    131      2.6830      7.2670     20.3620      1.5900     78.3900
    132      3.9560      5.7570     21.9130      1.5900     78.3900
    133      1.5020      6.0640     22.1820      1.5900     78.3900
    134      1.4480      5.1690     23.3160      1.7700     78.3900
    135      2.2720      5.4060     24.0300      0.0100     78.3900
    136      1.5520      4.1050     22.9990      0.0100     78.3900
    137      0.1100      5.3440     24.0510      1.7700     78.3900
    138     -0.0610      6.4290     24.2290      0.0100     78.3900
    139     -0.9920      4.8340     23.2540      1.5900     78.3900
    140     -1.6040      3.7510     23.9320      1.7700     78.3900
    141     -2.4890      4.1840     24.4490      0.0100     78.3900
    142     -2.0400      2.7150     22.9740      1.6800     78.3900
    143     -1.3270      1.7290     22.3150      1.7700     78.3900
    144      1.6610      0.0850     21.6270      1.6800     78.3900
    145      2.2990      0.5540     22.2370      0.0100     78.3900
    146      2.0040     -0.6490     21.0370      0.0100     78.3900
    147     -0.0110      1.4500     22.4490      1.6800     78.3900
    148      0.3900      0.4700     21.6440      1.7700     78.3900
    149     -0.4520     -0.2000     20.7980      1.6800     78.3900
    150     -0.0760     -0.9340     20.2170      0.0100     78.3900
    151     -1.8020      0.0700     20.6230      1.7700     78.3900
    152     -2.4930     -0.5600     19.8150      1.5900     78.3900
    153     -2.2430      1.1160     21.4780      1.7700     78.3900
    154     -3.5010      1.6900     21.6060      1.6800     78.3900
    155     -3.3340      2.6290     22.5070      1.7700     78.3900
    156     -4.1260      3.2920     22.8710      0.0100     78.3900
    157     -0.6240      3.2760     24.9890      1.7700     78.3900
    158      0.1640      2.6110     24.5720      0.0100     78.3900
    159     -1.2760      2.6530     26.0800      1.5900     78.3900
    160     -1.8140      3.3330     26.5050      0.0100     78.3900
    161      0.0140      4.6040     25.4010      1.7700     78.3900
    162      1.0400      4.4110     25.7890      0.0100     78.3900
    163     -0.7940      5.3290     26.3440      1.5900     78.3900
    164     -0.1840      6.3790     27.3330      2.1000     78.3900
    165      0.4520      7.4840     26.5790      1.5900     78.3900
    166      0.6400      5.6850     28.3490      1.5900     78.3900
    167     -1.4980      6.9110     28.0140      1.5900     78.3900
    168     -2.3000      6.0630     28.8740      1.7700     78.3900
    169     -2.3000      6.5110     29.8950      0.0100     78.3900
    170     -1.8880      5.0320     28.9840      0.0100     78.3900
    171     -3.7770      5.9280     28.4370      1.7700     78.3900
    172     -4.3450      5.4980     29.2920      0.0100     78.3900
    173     -4.3720      7.2180     28.1020      1.5900     78.3900
    174     -4.7970      7.1920     26.7550      1.7700     78.3900
    175     -5.8730      6.9020     26.7940      0.0100     78.3900
    176     -4.5860      8.5110     26.1150      1.6800     78.3900
    177     -3.3090      8.9880     25.9240      1.7700     78.3900
    178     -2.5050      8.3540     26.3030      0.0100     78.3900
    179     -5.6840      9.2660     25.7700      1.7700     78.3900
    180     -6.8370      8.9000     25.9790      1.5900     78.3900
    181     -5.3980     10.4670     25.1740      1.6800     78.3900
    182     -6.1990     11.0240     24.9130      0.0100     78.3900
    183     -4.1520     10.9980     24.9140      1.7700     78.3900
    184     -4.0520     12.1010     24.3750      1.5900     78.3900
    185     -3.0600     10.1680     25.3340      1.7700     78.3900
    186     -2.0450     10.5240     25.1730      0.0100     78.3900
    187     -4.0400      6.0680     26.0720      1.7700     78.3900
    188     -3.0070      6.3820     25.8130      0.0100     78.3900
    189     -4.7050      5.5790     24.9220      1.5900     78.3900
    190     -5.5050      5.1310     25.2380      0.0100     78.3900
    191     -3.9970      5.0330     27.1920      1.7700     78.3900
    192     -3.1040      4.3880     27.0460      0.0100     78.3900
    193     -5.2050      4.2430     27.2720      1.5900     78.3900
    194     -5.2260      2.9010     28.0960      2.1000     78.3900
    195     -6.4910      2.8840     28.8620      1.5900     78.3900
    196     -3.9910      2.7760     28.9060      1.5900     78.3900
    197     -5.2720      1.7800     26.9830      1.5900     78.3900
    198     -6.4550      1.7070     26.1420      1.7700     78.3900
    199     -6.5820      2.6510     25.5660      0.0100     78.3900
    200     -7.3720      1.5470     26.7650      0.0100     78.3900
    201     -6.3890      0.5580     25.1200      1.7700     78.3900
    202     -7.2950      0.5670     24.4780      0.0100     78.3900
    203     -5.2460      0.7150     24.2370      1.5900     78.3900
    204     -4.8080     -0.5750     23.8160      1.7700     78.3900
    205     -4.9090     -0.6030     22.7100      0.0100     78.3900
    206     -3.3950     -0.8160     24.1540      1.6800     78.3900
    207     -2.5600     -1.7530     23.5900      1.7700     78.3900
    208     -1.9870     -4.3590     21.3640      1.6800     78.3900
    209     -2.8970     -4.5560     21.0060      0.0100     78.3900
    210     -1.2300     -4.9820     21.1520      0.0100     78.3900
    211     -2.8870     -2.6400     22.6280      1.6800     78.3900
    212     -1.8520     -3.3930     22.2550      1.7700     78.3900
    213     -0.5890     -3.2270     22.7540      1.6800     78.3900
    214      0.1470     -3.8220     22.4020      0.0100     78.3900
    215     -0.2160     -2.3100     23.7260      1.7700     78.3900
    216      0.9550     -2.2260     24.1080      1.5900     78.3900
    217     -1.3310     -1.5570     24.1870      1.7700     78.3900
    218     -1.4020     -0.5590     25.1480      1.6800     78.3900
    219     -2.6440     -0.1360     25.0870      1.7700     78.3900
    220     -3.0700      0.6870     25.6670      0.0100     78.3900
    221     -5.7360     -1.5960     24.4370      1.7700     78.3900
    222     -5.2190     -2.5390     24.7080      0.0100     78.3900
    223     -6.8070     -1.8650     23.5490      1.5900     78.3900
    224     -7.4320     -2.4200     24.0310      0.0100     78.3900
    225     -6.2290     -0.8610     25.6790      1.7700     78.3900
    226     -5.4290     -0.8020     26.4540      0.0100     78.3900
    227     -7.4940     -1.3430     26.1960      1.5900     78.3900
    228     -7.4740     -2.4400     27.3280      2.1000     78.3900
    229     -8.8650     -2.7740     27.7030      1.5900     78.3900
    230     -6.6160     -1.9430     28.4240      1.5900     78.3900
    231     -6.7940     -3.7090     26.6730      1.5900     78.3900
    232     -7.5360     -4.5280     25.7330      1.7700     78.3900
    233     -7.9380     -3.9180     24.8950      0.0100     78.3900
    234     -8.3960     -5.0240     26.2430      0.0100     78.3900
    235     -6.6660     -5.6330     25.1040      1.7700     78.3900
    236     -7.2510     -6.2020     24.3490      0.0100     78.3900
    237     -5.5160     -5.0680     24.4140      1.5900     78.3900
    238     -4.4150     -5.9620     24.5260      1.7700     78.3900
    239     -4.1480     -6.2310     23.4770      0.0100     78.3900
    240     -3.2460     -5.3300     25.2060      1.6800     78.3900
    241     -3.4030     -4.3000     26.1110      1.7700     78.3900
    242     -4.4350     -3.9940     26.2960      0.0100     78.3900
    243     -1.9930     -5.8270     24.9190      1.7700     78.3900
    244     -1.8110     -6.7700     24.1580      1.5900     78.3900
    245     -0.9560     -5.1960     25.5530      1.6800     78.3900
    246     -0.0280     -5.5360     25.3270      0.0100     78.3900
    247     -1.0300     -4.1550     26.4480      1.7700     78.3900
    248      0.0020     -3.6930     26.9310      1.5900     78.3900
    249     -2.3660     -3.7120     26.7290      1.7700     78.3900
    250     -2.5050     -2.8940     27.4330      0.0100     78.3900
    251     -4.9110     -7.2100     25.2490      1.7700     78.3900
    252     -4.1280     -7.6450     25.9050      0.0100     78.3900
    253     -5.3500     -8.1790     24.3090      1.5900     78.3900
    254     -5.8120     -8.8870     24.7880      0.0100     78.3900
    255     -6.0620     -6.6450     26.0770      1.7700     78.3900
    256     -5.6730     -6.0840     26.9510      0.0100     78.3900
    257     -7.0470     -7.6130     26.4800      1.5900     78.3900
    258     -6.6510     -8.2360     27.1190      0.0100     78.3900
    259     10.2060     -8.4100     24.5720      0.0100     78.3900
    260      9.2550     -8.5190     24.3800      1.5900     78.3900
    261      9.1060     -9.8410     23.8410      1.7700     78.3900
    262      9.4950    -10.5780     24.5810      0.0100     78.3900
    263      9.7170     -9.9270     22.9140      0.0100     78.3900
    264      7.6520    -10.2110     23.5090      1.7700     78.3900
    265      7.5940    -11.2880     23.2280      0.0100     78.3900
    266      6.7750    -10.0080     24.6600      1.5900     78.3900
    267      5.5040     -9.5770     24.1950      1.7700     78.3900
    268      4.7560    -10.3100     24.5750      0.0100     78.3900
    269      5.1690     -8.2380     24.6960      1.6800     78.3900
    270      4.0430     -6.4380     25.2780      1.7700     78.3900
    271      5.3730     -6.1900     25.6110      1.6800     78.3900
    272      5.9990     -7.2920     25.2530      1.7700     78.3900
    273      7.0710     -7.4810     25.3700      0.0100     78.3900
    274      1.6990     -6.2250     24.9680      1.6800     78.3900
    275      1.7470     -7.4230     24.3760      1.7700     78.3900
    276      0.7880     -7.8010     24.0060      0.0100     78.3900
    277      2.7890     -8.2440     24.2220      1.6800     78.3900
    278      3.9130     -7.6870     24.6970      1.7700     78.3900
    279      2.8520     -5.6890     25.4430      1.7700     78.3900
    280      2.7810     -4.4910     26.0520      1.6800     78.3900
    281      3.5890     -4.0530     26.4550      0.0100     78.3900
    282      1.8860     -4.0580     26.1680      0.0100     78.3900
    283      5.5290     -9.6190     22.6810      1.7700     78.3900
    284      4.8970     -8.8310     22.2180      0.0100     78.3900
    285      5.1160    -10.8890     22.2170      1.5900     78.3900
    286      5.1560    -10.8450     21.2530      0.0100     78.3900
    287      7.0060     -9.3780     22.3940      1.7700     78.3900
    288      7.2840     -8.3200     22.5880      0.0100     78.3900
    289      7.4660     -9.8400     21.1120      1.5900     78.3900
    290      7.3300     -8.9340     19.8330      2.1000     78.3900
    291      7.9630     -9.6500     18.7040      1.5900     78.3900
    292      7.8400     -7.5790     20.1380      1.5900     78.3900
    293      5.7840     -8.8260     19.5820      1.5900     78.3900
    294      5.0170     -9.9220     19.0370      1.7700     78.3900
    295      5.1880    -10.8640     19.6100      0.0100     78.3900
    296      5.3190    -10.1260     17.9840      0.0100     78.3900
    297      3.5040     -9.6180     19.0400      1.7700     78.3900
    298      2.9320    -10.5400     18.7930      0.0100     78.3900
    299      3.0540     -9.1780     20.3580      1.5900     78.3900
    300      2.0520     -8.1720     20.1980      1.7700     78.3900
    301      1.1620     -8.5700     20.7280      0.0100     78.3900
    302      2.4060     -6.8640     20.8300      1.6800     78.3900
    303      3.7260     -6.5240     21.0260      1.7700     78.3900
    304      4.4610     -7.2430     20.6600      0.0100     78.3900
    305      4.0680     -5.3910     21.6590      1.7700     78.3900
    306      5.1040     -5.1240     21.8600      0.0100     78.3900
    307      1.4040     -5.9610     21.1970      1.7700     78.3900
    308      0.2200     -6.2310     20.9480      1.5900     78.3900
    309      1.7320     -4.8220     21.8440      1.6800     78.3900
    310      3.0150     -4.5500     22.1270      1.7700     78.3900
    311      3.2870     -3.4880     22.8800      1.6800     78.3900
    312      2.5190     -2.9890     23.2870      0.0100     78.3900
    313      4.2160     -3.2370     23.1450      0.0100     78.3900
    314      1.7220     -8.0750     18.7190      1.7700     78.3900
    315      1.4410     -7.0490     18.4010      0.0100     78.3900
    316      0.6690     -8.9690     18.3960      1.5900     78.3900
    317      0.5880     -8.9190     17.4370      0.0100     78.3900
    318      3.0390     -8.5140     18.0800      1.7700     78.3900
    319      3.7940     -7.7010     18.1390      0.0100     78.3900
    320      2.9250     -9.0670     16.7610      1.5900     78.3900
    321      2.9860     -8.2090     15.4540      2.1000     78.3900
    322      2.9450     -9.1510     14.3100      1.5900     78.3900
    323      4.1550     -7.3020     15.5040      1.5900     78.3900
    324      1.6720     -7.3560     15.4540      1.5900     78.3900
    325      0.3760     -7.9310     15.2070      1.7700     78.3900
    326      0.1940     -8.8170     15.8580      0.0100     78.3900
    327      0.3040     -8.2740     14.1480      0.0100     78.3900
    328     -0.7510     -6.9040     15.4460      1.7700     78.3900
    329     -1.7300     -7.4320     15.3950      0.0100     78.3900
    330     -0.6520     -6.2490     16.7580      1.5900     78.3900
    331     -0.7160     -4.8370     16.5670      1.7700     78.3900
    332     -1.7980     -4.5720     16.5910      0.0100     78.3900
    333      0.0240     -4.0630     17.5830      1.6800     78.3900
    334      1.3650     -4.0890     17.9110      1.7700     78.3900
    335      4.5710     -5.3030     17.4140      1.6800     78.3900
    336      5.5040     -5.0930     17.6960      0.0100     78.3900
    337      4.4060     -6.0110     16.7140      0.0100     78.3900
    338      2.3160     -4.8660     17.3600      1.6800     78.3900
    339      3.5270     -4.6100     17.8310      1.7700     78.3900
    340      3.7770     -3.6460     18.7740      1.6800     78.3900
    341      4.7290     -3.4790     19.0470      0.0100     78.3900
    342      2.8220     -2.8020     19.3330      1.7700     78.3900
    343      3.1010     -1.9270     20.1590      1.5900     78.3900
    344      1.5220     -3.1040     18.8660      1.7700     78.3900
    345      0.3140     -2.4970     19.1620      1.6800     78.3900
    346     -0.5450     -3.0870     18.3680      1.7700     78.3900
    347     -1.6110     -2.8490     18.3190      0.0100     78.3900
    348     -0.1860     -4.5770     15.1830      1.7700     78.3900
    349      0.9250     -4.6670     15.1750      0.0100     78.3900
    350     -0.6040     -3.3210     14.6630      1.5900     78.3900
    351     -0.6070     -3.3870     13.6980      0.0100     78.3900
    352     -0.7840     -5.7490     14.4250      1.7700     78.3900
    353     -0.0710     -6.0180     13.6050      0.0100     78.3900
    354     -2.1300     -5.4910     13.9650      1.5900     78.3900
    355     -2.4390     -5.7140     12.4460      2.1000     78.3900
    356     -3.8560     -5.3710     12.1950      1.5900     78.3900
    357     -2.0050     -7.0820     12.0860      1.5900     78.3900
    358     -1.5000     -4.6460     11.7740      1.5900     78.3900
    359     -1.5540     -4.4640     10.3390      1.7700     78.3900
    360     -2.4940     -3.9460     10.0370      0.0100     78.3900
    361     -1.5160     -5.4410      9.8010      0.0100     78.3900
    362     -0.3640     -3.6350      9.8410      1.7700     78.3900
    363     -0.4070     -3.5480      8.7350      0.0100     78.3900
    364     -0.4070     -2.2800     10.3810      1.5900     78.3900
    365      0.8610     -1.9890     10.9140      1.7700     78.3900
    366      1.4950     -1.6710     10.0580      0.0100     78.3900
    367      0.7910     -0.9250     11.9160      1.6800     78.3900
    368      1.3330      0.7400     13.2440      1.7700     78.3900
    369     -0.0260      0.5200     13.4420      1.6800     78.3900
    370     -0.2970     -0.4860     12.6360      1.7700     78.3900
    371     -1.2740     -0.9650     12.5120      0.0100     78.3900
    372      3.5290      1.6320     13.3660      1.6800     78.3900
    373      3.8490      0.7700     12.4010      1.7700     78.3900
    374      4.8920      0.8130     12.0610      0.0100     78.3900
    375      3.0890     -0.1530     11.8060      1.6800     78.3900
    376      1.8360     -0.1260     12.2890      1.7700     78.3900
    377      2.2540      1.6430     13.8230      1.7700     78.3900
    378      1.9870      2.5170     14.8070      1.6800     78.3900
    379      1.0530      2.7070     15.1210      0.0100     78.3900
    380      2.6810      3.2230     14.9610      0.0100     78.3900
    381      1.3600     -3.3120     11.4420      1.7700     78.3900
    382      0.7700     -3.6200     12.3320      0.0100     78.3900
    383      2.7390     -3.3330     11.7400      1.5900     78.3900
    384      3.2210     -3.2550     10.9020      0.0100     78.3900
    385      1.0160     -4.2090     10.2540      1.7700     78.3900
    386      0.8710     -5.2490     10.6350      0.0100     78.3900
    387      1.9940     -4.1420      9.1770      1.5900     78.3900
    388      2.1470     -5.4100      8.2450      2.1000     78.3900
    389      2.3590     -6.6160      9.0770      1.5900     78.3900
    390      3.1870     -5.1010      7.2380      1.5900     78.3900
    391      0.7550     -5.5310      7.5210      1.5900     78.3900
    392      0.4480     -4.7060      6.3720      1.7700     78.3900
    393      1.1250     -4.9640      5.5240      0.0100     78.3900
    394      0.5650     -3.6230      6.6040      0.0100     78.3900
    395     -0.9950     -4.9640      5.9230      1.7700     78.3900
    396     -1.1710     -6.0630      5.8920      0.0100     78.3900
    397     -1.9520     -4.3870      6.8600      1.5900     78.3900
    398     -2.7180     -3.3980      6.1880      1.7700     78.3900
    399     -3.6650     -3.9160      5.9060      0.0100     78.3900
    400     -3.0130     -2.2480      7.0630      1.6800     78.3900
    401     -2.1880     -1.2710      7.5950      1.7700     78.3900
    402      0.9550      0.1350      8.0800      1.6800     78.3900
    403      1.3610      0.8740      8.6110      0.0100     78.3900
    404      1.5360     -0.4430      7.5050      0.0100     78.3900
    405     -0.8580     -1.1270      7.3870      1.6800     78.3900
    406     -0.3390     -0.1420      8.1200      1.7700     78.3900
    407     -1.0810      0.6610      8.9450      1.6800     78.3900
    408     -0.5990      1.3610      9.4850      0.0100     78.3900
    409     -2.4450      0.5410      9.1750      1.7700     78.3900
    410     -3.0370      1.2970      9.9540      1.5900     78.3900
    411     -3.0150     -0.5050      8.4020      1.7700     78.3900
    412     -4.3290     -0.9570      8.3470      1.6800     78.3900
    413     -4.2760     -1.9850      7.5350      1.7700     78.3900
    414     -5.1350     -2.5900      7.2370      0.0100     78.3900
    415     -1.9810     -3.0270      4.9230      1.7700     78.3900
    416     -1.1770     -2.2870      5.1230      0.0100     78.3900
    417     -2.8700     -2.5610      3.9230      1.5900     78.3900
    418     -3.4380     -3.3170      3.7280      0.0100     78.3900
    419     -1.3680     -4.3770      4.5460      1.7700     78.3900
    420     -0.4420     -4.1980      3.9460      0.0100     78.3900
    421     -2.3060     -5.2240      3.8590      1.5900     78.3900
    422     -1.8230     -6.3590      2.8970      2.1000     78.3900
    423     -1.1190     -7.4090      3.6630      1.5900     78.3900
    424     -1.1150     -5.7660      1.7390      1.5900     78.3900
    425     -3.2100     -6.9250      2.4270      1.5900     78.3900
    426     -4.0790     -6.1940      1.5330      1.7700     78.3900
    427     -4.1880     -6.7870      0.5960      0.0100     78.3900
    428     -3.6670     -5.1990      1.2340      0.0100     78.3900
    429     -5.4980     -5.9790      2.0900      1.7700     78.3900
    430     -6.1400     -5.6410      1.2430      0.0100     78.3900
    431     -6.0820     -7.2020      2.6160      1.5900     78.3900
    432     -6.4160     -6.9980      3.9700      1.7700     78.3900
    433     -7.4780     -6.6640      3.9550      0.0100     78.3900
    434     -6.2180     -8.2380      4.7470      1.6800     78.3900
    435     -4.9560     -8.7650      4.8900      1.7700     78.3900
    436     -4.1590     -8.2230      4.3750      0.0100     78.3900
    437     -7.3180     -8.8650      5.2830      1.7700     78.3900
    438     -8.4610     -8.4400      5.1420      1.5900     78.3900
    439     -7.0440    -10.0040      5.9940      1.6800     78.3900
    440     -7.8480    -10.4600      6.3960      0.0100     78.3900
    441     -5.8120    -10.5930      6.1910      1.7700     78.3900
    442     -5.7230    -11.6310      6.8490      1.5900     78.3900
    443     -4.7190     -9.8900      5.5830      1.7700     78.3900
    444     -3.7120    -10.2790      5.7160      0.0100     78.3900
    445     -5.5770     -5.8380      4.4660      1.7700     78.3900
    446     -4.5370     -6.1650      4.6840      0.0100     78.3900
    447     -6.1390     -5.1880      5.5920      1.5900     78.3900
    448     -6.9420     -4.7430      5.2800      0.0100     78.3900
    449     -5.5930     -4.9430      3.2330      1.7700     78.3900
    450     -4.6660     -4.3300      3.2330      0.0100     78.3900
    451     -6.7800     -4.1180      3.1390      1.5900     78.3900
    452     -6.7620     -2.8770      2.1650      2.1000     78.3900
    453     -8.0240     -2.8810      1.3980      1.5900     78.3900
    454     -5.5270     -2.8670      1.3490      1.5900     78.3900
    455     -6.7630     -1.6360      3.1390      1.5900     78.3900
    456     -7.9290     -1.4320      3.9790      1.7700     78.3900
    457     -8.0740     -2.2980      4.6680      0.0100     78.3900
    458     -8.8570     -1.3170      3.3630      0.0100     78.3900
    459     -7.8080     -0.1780      4.8590      1.7700     78.3900
    460     -8.7210     -0.0730      5.4860      0.0100     78.3900
    461     -6.6790     -0.2960      5.7650      1.5900     78.3900
    462     -6.2150      1.0100      6.0880      1.7700     78.3900
    463     -6.3610      1.1360      7.1860      0.0100     78.3900
    464     -4.7900      1.1800      5.7810      1.6800     78.3900
    465     -3.9530      2.1370      6.3030      1.7700     78.3900
    466     -3.4020      4.9500      8.2640      1.6800     78.3900
    467     -4.3100      5.1680      8.6160      0.0100     78.3900
    468     -2.6300      5.5540      8.4810      0.0100     78.3900
    469     -4.2960      3.1070      7.1760      1.6800     78.3900
    470     -3.2580      3.8850      7.4980      1.7700     78.3900
    471     -1.9830      3.6520      7.0570      1.6800     78.3900
    472     -1.2450      4.2570      7.3860      0.0100     78.3900
    473     -1.5970      2.6440      6.1880      1.7700     78.3900
    474     -0.4180      2.5080      5.8470      1.5900     78.3900
    475     -2.7110      1.8720      5.7620      1.7700     78.3900
    476     -2.7720      0.8040      4.8800      1.6800     78.3900
    477     -4.0250      0.4150      4.9270      1.7700     78.3900
    478     -4.4520     -0.4360      4.3860      0.0100     78.3900
    479     -7.0920      2.0010      5.3450      1.7700     78.3900
    480     -6.5270      2.8930      5.0010      0.0100     78.3900
    481     -8.1760      2.4050      6.1700      1.5900     78.3900
    482     -8.7480      2.9530      5.6200      0.0100     78.3900
    483     -7.5670      1.1630      4.1600      1.7700     78.3900
    484     -6.7400      0.9880      3.4340      0.0100     78.3900
    485     -8.7820      1.6320      3.5350      1.5900     78.3900
    486     -8.6720      2.6090      2.3040      2.1000     78.3900
    487    -10.0310      2.9340      1.8280      1.5900     78.3900
    488     -7.7490      2.0180      1.3150      1.5900     78.3900
    489     -8.0160      3.9140      2.8930      1.5900     78.3900
    490     -8.8060      4.8020      3.7250      1.7700     78.3900
    491     -9.2790      4.2550      4.5730      0.0100     78.3900
    492     -9.6270      5.2670      3.1300      0.0100     78.3900
    493     -7.9490      5.9410      4.3090      1.7700     78.3900
    494     -8.5480      6.5720      4.9970      0.0100     78.3900
    495     -6.8250      5.4100      5.0740      1.5900     78.3900
    496     -5.7100      6.2820      4.9360      1.7700     78.3900
    497     -5.4800      6.6290      5.9710      0.0100     78.3900
    498     -4.5240      5.5880      4.3510      1.6800     78.3900
    499     -4.6620      4.4940      3.5230      1.7700     78.3900
    500     -5.6900      4.1860      3.3220      0.0100     78.3900
    501     -3.2760      6.0940      4.6440      1.7700     78.3900
    502     -3.1110      7.0860      5.3450      1.5900     78.3900
    503     -2.2260      5.4030      4.1010      1.6800     78.3900
    504     -1.3050      5.7690      4.3180      0.0100     78.3900
    505     -2.2820      4.3000      3.2790      1.7700     78.3900
    506     -1.2410      3.8010      2.8530      1.5900     78.3900
    507     -3.6120      3.8420      2.9980      1.7700     78.3900
    508     -3.7390      2.9770      2.3500      0.0100     78.3900
    509     -6.1590      7.4760      4.0970      1.7700     78.3900
    510     -5.3460      7.8410      3.4380      0.0100     78.3900
    511     -6.6050      8.5270      4.9380      1.5900     78.3900
    512     -7.0780      9.1800      4.3960      0.0100     78.3900
    513     -7.2960      6.8670      3.2810      1.7700     78.3900
    514     -6.8950      6.2310      2.4690      0.0100     78.3900
    515     -8.2500      7.8190      2.7760      1.5900     78.3900
    516     -7.8170      8.3990      2.1200      0.0100     78.3900

     ----------------------------
     INPUT FOR TESSERA DEFINITION
     ----------------------------
     NTSALL  =        60     MTHALL  =         4
     MTHAUT  =         0     AUTFRE  =    2.0000
     NTSFRZ  =        60     KEEPSM  =         0
     AREAKP  =   10.0000     BONDRY  =    1.0000
     AREATL  =    0.0100

     SPHERE     INITS       METHOD
          1        60       FIXPVA
          2        60       FIXPVA
          3        60       FIXPVA
          4        60       FIXPVA
          5        60       FIXPVA
          6        60       FIXPVA
          7        60       FIXPVA
          8        60       FIXPVA
          9        60       FIXPVA
         10        60       FIXPVA
         11        60       FIXPVA
         12        60       FIXPVA
         13        60       FIXPVA
         14        60       FIXPVA
         15        60       FIXPVA
         16        60       FIXPVA
         17        60       FIXPVA
         18        60       FIXPVA
         19        60       FIXPVA
         20        60       FIXPVA
         21        60       FIXPVA
         22        60       FIXPVA
         23        60       FIXPVA
         24        60       FIXPVA
         25        60       FIXPVA
         26        60       FIXPVA
         27        60       FIXPVA
         28        60       FIXPVA
         29        60       FIXPVA
         30        60       FIXPVA
         31        60       FIXPVA
         32        60       FIXPVA
         33        60       FIXPVA
         34        60       FIXPVA
         35        60       FIXPVA
         36        60       FIXPVA
         37        60       FIXPVA
         38        60       FIXPVA
         39        60       FIXPVA
         40        60       FIXPVA
         41        60       FIXPVA
         42        60       FIXPVA
         43        60       FIXPVA
         44        60       FIXPVA
         45        60       FIXPVA
         46        60       FIXPVA
         47        60       FIXPVA
         48        60       FIXPVA
         49        60       FIXPVA
         50        60       FIXPVA
         51        60       FIXPVA
         52        60       FIXPVA
         53        60       FIXPVA
         54        60       FIXPVA
         55        60       FIXPVA
         56        60       FIXPVA
         57        60       FIXPVA
         58        60       FIXPVA
         59        60       FIXPVA
         60        60       FIXPVA
         61        60       FIXPVA
         62        60       FIXPVA
         63        60       FIXPVA
         64        60       FIXPVA
         65        60       FIXPVA
         66        60       FIXPVA
         67        60       FIXPVA
         68        60       FIXPVA
         69        60       FIXPVA
         70        60       FIXPVA
         71        60       FIXPVA
         72        60       FIXPVA
         73        60       FIXPVA
         74        60       FIXPVA
         75        60       FIXPVA
         76        60       FIXPVA
         77        60       FIXPVA
         78        60       FIXPVA
         79        60       FIXPVA
         80        60       FIXPVA
         81        60       FIXPVA
         82        60       FIXPVA
         83        60       FIXPVA
         84        60       FIXPVA
         85        60       FIXPVA
         86        60       FIXPVA
         87        60       FIXPVA
         88        60       FIXPVA
         89        60       FIXPVA
         90        60       FIXPVA
         91        60       FIXPVA
         92        60       FIXPVA
         93        60       FIXPVA
         94        60       FIXPVA
         95        60       FIXPVA
         96        60       FIXPVA
         97        60       FIXPVA
         98        60       FIXPVA
         99        60       FIXPVA
        100        60       FIXPVA
        101        60       FIXPVA
        102        60       FIXPVA
        103        60       FIXPVA
        104        60       FIXPVA
        105        60       FIXPVA
        106        60       FIXPVA
        107        60       FIXPVA
        108        60       FIXPVA
        109        60       FIXPVA
        110        60       FIXPVA
        111        60       FIXPVA
        112        60       FIXPVA
        113        60       FIXPVA
        114        60       FIXPVA
        115        60       FIXPVA
        116        60       FIXPVA
        117        60       FIXPVA
        118        60       FIXPVA
        119        60       FIXPVA
        120        60       FIXPVA
        121        60       FIXPVA
        122        60       FIXPVA
        123        60       FIXPVA
        124        60       FIXPVA
        125        60       FIXPVA
        126        60       FIXPVA
        127        60       FIXPVA
        128        60       FIXPVA
        129        60       FIXPVA
        130        60       FIXPVA
        131        60       FIXPVA
        132        60       FIXPVA
        133        60       FIXPVA
        134        60       FIXPVA
        135        60       FIXPVA
        136        60       FIXPVA
        137        60       FIXPVA
        138        60       FIXPVA
        139        60       FIXPVA
        140        60       FIXPVA
        141        60       FIXPVA
        142        60       FIXPVA
        143        60       FIXPVA
        144        60       FIXPVA
        145        60       FIXPVA
        146        60       FIXPVA
        147        60       FIXPVA
        148        60       FIXPVA
        149        60       FIXPVA
        150        60       FIXPVA
        151        60       FIXPVA
        152        60       FIXPVA
        153        60       FIXPVA
        154        60       FIXPVA
        155        60       FIXPVA
        156        60       FIXPVA
        157        60       FIXPVA
        158        60       FIXPVA
        159        60       FIXPVA
        160        60       FIXPVA
        161        60       FIXPVA
        162        60       FIXPVA
        163        60       FIXPVA
        164        60       FIXPVA
        165        60       FIXPVA
        166        60       FIXPVA
        167        60       FIXPVA
        168        60       FIXPVA
        169        60       FIXPVA
        170        60       FIXPVA
        171        60       FIXPVA
        172        60       FIXPVA
        173        60       FIXPVA
        174        60       FIXPVA
        175        60       FIXPVA
        176        60       FIXPVA
        177        60       FIXPVA
        178        60       FIXPVA
        179        60       FIXPVA
        180        60       FIXPVA
        181        60       FIXPVA
        182        60       FIXPVA
        183        60       FIXPVA
        184        60       FIXPVA
        185        60       FIXPVA
        186        60       FIXPVA
        187        60       FIXPVA
        188        60       FIXPVA
        189        60       FIXPVA
        190        60       FIXPVA
        191        60       FIXPVA
        192        60       FIXPVA
        193        60       FIXPVA
        194        60       FIXPVA
        195        60       FIXPVA
        196        60       FIXPVA
        197        60       FIXPVA
        198        60       FIXPVA
        199        60       FIXPVA
        200        60       FIXPVA
        201        60       FIXPVA
        202        60       FIXPVA
        203        60       FIXPVA
        204        60       FIXPVA
        205        60       FIXPVA
        206        60       FIXPVA
        207        60       FIXPVA
        208        60       FIXPVA
        209        60       FIXPVA
        210        60       FIXPVA
        211        60       FIXPVA
        212        60       FIXPVA
        213        60       FIXPVA
        214        60       FIXPVA
        215        60       FIXPVA
        216        60       FIXPVA
        217        60       FIXPVA
        218        60       FIXPVA
        219        60       FIXPVA
        220        60       FIXPVA
        221        60       FIXPVA
        222        60       FIXPVA
        223        60       FIXPVA
        224        60       FIXPVA
        225        60       FIXPVA
        226        60       FIXPVA
        227        60       FIXPVA
        228        60       FIXPVA
        229        60       FIXPVA
        230        60       FIXPVA
        231        60       FIXPVA
        232        60       FIXPVA
        233        60       FIXPVA
        234        60       FIXPVA
        235        60       FIXPVA
        236        60       FIXPVA
        237        60       FIXPVA
        238        60       FIXPVA
        239        60       FIXPVA
        240        60       FIXPVA
        241        60       FIXPVA
        242        60       FIXPVA
        243        60       FIXPVA
        244        60       FIXPVA
        245        60       FIXPVA
        246        60       FIXPVA
        247        60       FIXPVA
        248        60       FIXPVA
        249        60       FIXPVA
        250        60       FIXPVA
        251        60       FIXPVA
        252        60       FIXPVA
        253        60       FIXPVA
        254        60       FIXPVA
        255        60       FIXPVA
        256        60       FIXPVA
        257        60       FIXPVA
        258        60       FIXPVA
        259        60       FIXPVA
        260        60       FIXPVA
        261        60       FIXPVA
        262        60       FIXPVA
        263        60       FIXPVA
        264        60       FIXPVA
        265        60       FIXPVA
        266        60       FIXPVA
        267        60       FIXPVA
        268        60       FIXPVA
        269        60       FIXPVA
        270        60       FIXPVA
        271        60       FIXPVA
        272        60       FIXPVA
        273        60       FIXPVA
        274        60       FIXPVA
        275        60       FIXPVA
        276        60       FIXPVA
        277        60       FIXPVA
        278        60       FIXPVA
        279        60       FIXPVA
        280        60       FIXPVA
        281        60       FIXPVA
        282        60       FIXPVA
        283        60       FIXPVA
        284        60       FIXPVA
        285        60       FIXPVA
        286        60       FIXPVA
        287        60       FIXPVA
        288        60       FIXPVA
        289        60       FIXPVA
        290        60       FIXPVA
        291        60       FIXPVA
        292        60       FIXPVA
        293        60       FIXPVA
        294        60       FIXPVA
        295        60       FIXPVA
        296        60       FIXPVA
        297        60       FIXPVA
        298        60       FIXPVA
        299        60       FIXPVA
        300        60       FIXPVA
        301        60       FIXPVA
        302        60       FIXPVA
        303        60       FIXPVA
        304        60       FIXPVA
        305        60       FIXPVA
        306        60       FIXPVA
        307        60       FIXPVA
        308        60       FIXPVA
        309        60       FIXPVA
        310        60       FIXPVA
        311        60       FIXPVA
        312        60       FIXPVA
        313        60       FIXPVA
        314        60       FIXPVA
        315        60       FIXPVA
        316        60       FIXPVA
        317        60       FIXPVA
        318        60       FIXPVA
        319        60       FIXPVA
        320        60       FIXPVA
        321        60       FIXPVA
        322        60       FIXPVA
        323        60       FIXPVA
        324        60       FIXPVA
        325        60       FIXPVA
        326        60       FIXPVA
        327        60       FIXPVA
        328        60       FIXPVA
        329        60       FIXPVA
        330        60       FIXPVA
        331        60       FIXPVA
        332        60       FIXPVA
        333        60       FIXPVA
        334        60       FIXPVA
        335        60       FIXPVA
        336        60       FIXPVA
        337        60       FIXPVA
        338        60       FIXPVA
        339        60       FIXPVA
        340        60       FIXPVA
        341        60       FIXPVA
        342        60       FIXPVA
        343        60       FIXPVA
        344        60       FIXPVA
        345        60       FIXPVA
        346        60       FIXPVA
        347        60       FIXPVA
        348        60       FIXPVA
        349        60       FIXPVA
        350        60       FIXPVA
        351        60       FIXPVA
        352        60       FIXPVA
        353        60       FIXPVA
        354        60       FIXPVA
        355        60       FIXPVA
        356        60       FIXPVA
        357        60       FIXPVA
        358        60       FIXPVA
        359        60       FIXPVA
        360        60       FIXPVA
        361        60       FIXPVA
        362        60       FIXPVA
        363        60       FIXPVA
        364        60       FIXPVA
        365        60       FIXPVA
        366        60       FIXPVA
        367        60       FIXPVA
        368        60       FIXPVA
        369        60       FIXPVA
        370        60       FIXPVA
        371        60       FIXPVA
        372        60       FIXPVA
        373        60       FIXPVA
        374        60       FIXPVA
        375        60       FIXPVA
        376        60       FIXPVA
        377        60       FIXPVA
        378        60       FIXPVA
        379        60       FIXPVA
        380        60       FIXPVA
        381        60       FIXPVA
        382        60       FIXPVA
        383        60       FIXPVA
        384        60       FIXPVA
        385        60       FIXPVA
        386        60       FIXPVA
        387        60       FIXPVA
        388        60       FIXPVA
        389        60       FIXPVA
        390        60       FIXPVA
        391        60       FIXPVA
        392        60       FIXPVA
        393        60       FIXPVA
        394        60       FIXPVA
        395        60       FIXPVA
        396        60       FIXPVA
        397        60       FIXPVA
        398        60       FIXPVA
        399        60       FIXPVA
        400        60       FIXPVA
        401        60       FIXPVA
        402        60       FIXPVA
        403        60       FIXPVA
        404        60       FIXPVA
        405        60       FIXPVA
        406        60       FIXPVA
        407        60       FIXPVA
        408        60       FIXPVA
        409        60       FIXPVA
        410        60       FIXPVA
        411        60       FIXPVA
        412        60       FIXPVA
        413        60       FIXPVA
        414        60       FIXPVA
        415        60       FIXPVA
        416        60       FIXPVA
        417        60       FIXPVA
        418        60       FIXPVA
        419        60       FIXPVA
        420        60       FIXPVA
        421        60       FIXPVA
        422        60       FIXPVA
        423        60       FIXPVA
        424        60       FIXPVA
        425        60       FIXPVA
        426        60       FIXPVA
        427        60       FIXPVA
        428        60       FIXPVA
        429        60       FIXPVA
        430        60       FIXPVA
        431        60       FIXPVA
        432        60       FIXPVA
        433        60       FIXPVA
        434        60       FIXPVA
        435        60       FIXPVA
        436        60       FIXPVA
        437        60       FIXPVA
        438        60       FIXPVA
        439        60       FIXPVA
        440        60       FIXPVA
        441        60       FIXPVA
        442        60       FIXPVA
        443        60       FIXPVA
        444        60       FIXPVA
        445        60       FIXPVA
        446        60       FIXPVA
        447        60       FIXPVA
        448        60       FIXPVA
        449        60       FIXPVA
        450        60       FIXPVA
        451        60       FIXPVA
        452        60       FIXPVA
        453        60       FIXPVA
        454        60       FIXPVA
        455        60       FIXPVA
        456        60       FIXPVA
        457        60       FIXPVA
        458        60       FIXPVA
        459        60       FIXPVA
        460        60       FIXPVA
        461        60       FIXPVA
        462        60       FIXPVA
        463        60       FIXPVA
        464        60       FIXPVA
        465        60       FIXPVA
        466        60       FIXPVA
        467        60       FIXPVA
        468        60       FIXPVA
        469        60       FIXPVA
        470        60       FIXPVA
        471        60       FIXPVA
        472        60       FIXPVA
        473        60       FIXPVA
        474        60       FIXPVA
        475        60       FIXPVA
        476        60       FIXPVA
        477        60       FIXPVA
        478        60       FIXPVA
        479        60       FIXPVA
        480        60       FIXPVA
        481        60       FIXPVA
        482        60       FIXPVA
        483        60       FIXPVA
        484        60       FIXPVA
        485        60       FIXPVA
        486        60       FIXPVA
        487        60       FIXPVA
        488        60       FIXPVA
        489        60       FIXPVA
        490        60       FIXPVA
        491        60       FIXPVA
        492        60       FIXPVA
        493        60       FIXPVA
        494        60       FIXPVA
        495        60       FIXPVA
        496        60       FIXPVA
        497        60       FIXPVA
        498        60       FIXPVA
        499        60       FIXPVA
        500        60       FIXPVA
        501        60       FIXPVA
        502        60       FIXPVA
        503        60       FIXPVA
        504        60       FIXPVA
        505        60       FIXPVA
        506        60       FIXPVA
        507        60       FIXPVA
        508        60       FIXPVA
        509        60       FIXPVA
        510        60       FIXPVA
        511        60       FIXPVA
        512        60       FIXPVA
        513        60       FIXPVA
        514        60       FIXPVA
        515        60       FIXPVA
        516        60       FIXPVA

     ------------------------------
      FIXPVA TESSELLATION FOR PCM
         PEIFENG SU AND HUI LI
     UNIVERSITY OF NEBRASKA-LINCOLN
     ------------------------------


 PCM DIMENSIONS: MXSP=   516, MXTS=     20640, MEMORY=        212079

     INPUT FOR CAVITY DEFINITION 
     ---------------------------
   ATOM               COORDINATES                RADIUS       EPS
      1      8.8860      8.4070      5.3420      0.0100     78.3900
      2      7.9350      8.6020      5.4440      1.5900     78.3900
      3      7.8430      9.9650      5.8880      1.7700     78.3900
      4      8.3390     10.6350      5.1470      0.0100     78.3900
      5      8.3820     10.0750      6.8560      0.0100     78.3900
      6      6.4010     10.4510      6.0940      1.7700     78.3900
      7      6.3810     11.5500      6.2620      0.0100     78.3900
      8      5.5710     10.1650      4.9250      1.5900     78.3900
      9      4.2660      9.8120      5.3690      1.7700     78.3900
     10      3.5570     10.5110      4.8670      0.0100     78.3900
     11      3.9170      8.4340      4.9980      1.6800     78.3900
     12      2.7670      6.6150      4.5280      1.7700     78.3900
     13      4.1020      6.3120      4.2590      1.6800     78.3900
     14      4.7420      7.4270      4.5470      1.7700     78.3900
     15      5.8200      7.5820      4.4480      0.0100     78.3900
     16      0.4050      6.4890      4.7470      1.6800     78.3900
     17      0.4610      7.7310      5.2380      1.7700     78.3900
     18     -0.5020      8.1690      5.5310      0.0100     78.3900
     19      1.5220      8.5290      5.3870      1.6800     78.3900
     20      2.6490      7.9100      5.0000      1.7700     78.3900
     21      1.5610      5.8860      4.3700      1.7700     78.3900
     22      1.4790      4.6480      3.8440      1.6800     78.3900
     23      2.2930      4.1650      3.5090      0.0100     78.3900
     24      0.5800      4.2310      3.7060      0.0100     78.3900
     25      4.2150     10.0360      6.8630      1.7700     78.3900
     26      3.5190      9.3440      7.3850      0.0100     78.3900
     27      3.8460     11.3770      7.1260      1.5900     78.3900
     28      3.9380     11.5110      8.0780      0.0100     78.3900
     29      5.6610      9.7740      7.2550      1.7700     78.3900
     30      5.9020      8.6880      7.1930      0.0100     78.3900
     31      6.0590     10.3660      8.5070      1.5900     78.3900
     32      5.9000      9.5470      9.8430      2.1000     78.3900
     33      6.4720     10.3540     10.9440      1.5900     78.3900
     34      6.4760      8.2030      9.6370      1.5900     78.3900
     35      4.3500      9.3970     10.0500      1.5900     78.3900
     36      3.5470     10.5200     10.4790      1.7700     78.3900
     37      3.6860     11.3970      9.8050      0.0100     78.3900
     38      3.8380     10.8400     11.5070      0.0100     78.3900
     39      2.0480     10.1680     10.5000      1.7700     78.3900
     40      1.4370     11.0770     10.6810      0.0100     78.3900
     41      1.6260      9.6160      9.2200      1.5900     78.3900
     42      0.6450      8.6080      9.4470      1.7700     78.3900
     43     -0.2650      8.9750      8.9210      0.0100     78.3900
     44      1.0120      7.2880      8.8640      1.6800     78.3900
     45      2.3340      6.9700      8.6500      1.7700     78.3900
     46      3.0590      7.7220      8.9710      0.0100     78.3900
     47      2.6830      5.8160      8.0610      1.7700     78.3900
     48      3.7190      5.5570      7.8500      0.0100     78.3900
     49      0.0180      6.3660      8.5330      1.7700     78.3900
     50     -1.1680      6.6410      8.7590      1.5900     78.3900
     51      0.3520      5.2010      7.9440      1.6800     78.3900
     52      1.6360      4.9240      7.6780      1.7700     78.3900
     53      1.9170      3.7970      7.0340      1.6800     78.3900
     54      1.1530      3.2680      6.6610      0.0100     78.3900
     55      2.8510      3.5280      6.8020      0.0100     78.3900
     56      0.3480      8.5620     10.9360      1.7700     78.3900
     57      0.1430      7.5330     11.3070      0.0100     78.3900
     58     -0.7440      9.4160     11.2310      1.5900     78.3900
     59     -0.7650      9.4810     12.1930      0.0100     78.3900
     60      1.6360      9.1100     11.5380      1.7700     78.3900
     61      2.4300      8.3330     11.5230      0.0100     78.3900
     62      1.4680      9.7280     12.8300      1.5900     78.3900
     63      1.8230      8.9910     14.1740      2.1000     78.3900
     64      1.6400      9.9640     15.2750      1.5900     78.3900
     65      3.1580      8.3740     14.0470      1.5900     78.3900
     66      0.7500      7.8590     14.3170      1.5900     78.3900
     67     -0.6480      8.1570     14.4910      1.7700     78.3900
     68     -1.0070      8.8940     13.7410      0.0100     78.3900
     69     -0.8310      8.5950     15.4990      0.0100     78.3900
     70     -1.5100      6.8940     14.3630      1.7700     78.3900
     71     -2.5790      7.1910     14.4270      0.0100     78.3900
     72     -1.3210      6.2330     13.0720      1.5900     78.3900
     73     -1.1470      4.8450     13.2850      1.7700     78.3900
     74     -2.1720      4.4050     13.2910      0.0100     78.3900
     75     -0.2950      4.2030     12.2580      1.6800     78.3900
     76      1.0100      4.4930     11.8950      1.7700     78.3900
     77      3.9230      6.3370     12.3170      1.6800     78.3900
     78      4.8670      6.3400     11.9990      0.0100     78.3900
     79      3.6070      7.0440     12.9620      0.0100     78.3900
     80      1.7920      5.4660     12.4030      1.6800     78.3900
     81      3.0280      5.4470     11.9240      1.7700     78.3900
     82      3.4570      4.5280     11.0040      1.6800     78.3900
     83      4.4170      4.5720     10.7030      0.0100     78.3900
     84      2.6860      3.4980     10.4750      1.7700     78.3900
     85      3.1540      2.6980      9.6600      1.5900     78.3900
[...]
   472   15   1.0   0.00    0.0    0.000000    0.493558    0.543685
   473   15   6.0   0.00    0.0    0.000004    0.863958    0.872504
   474   15   8.0   5.76   12.6    0.118642   -0.752756   -0.746109
   475   15   6.0   0.00    0.0    0.000000   -0.057328   -0.050104
   476   15   7.0   6.31   12.4    0.141411   -0.598983   -0.605618
   477   15   6.0   3.93    6.9    0.014451    0.273460    0.279320
   478   15   1.0   0.00    0.0    0.000000    0.276261    0.281085
   479   15   6.0   0.00    0.0    0.000327    0.108539    0.082592
   480   15   1.0   0.00    0.0    0.000000    0.214594    0.239002
   481   15   8.0  16.17   35.4    0.100865   -0.829914   -0.847549
   482   15   1.0   0.00    0.0    0.000000    0.497996    0.519852
   483   15   6.0   1.56    2.7   -0.025266    0.152699    0.124645
   484   15   1.0   0.00    0.0    0.000000    0.242768    0.243998
   485   15   8.0   3.99    8.7    0.056062   -0.791388   -0.796386
   486   15  15.0   8.95   11.2    0.129897    1.602391    1.646770
   487   15   8.0  17.84   39.0    0.353409   -0.895948   -0.890679
   488   15   8.0  14.47   31.6    0.333594   -0.893381   -0.890008
   489   15   8.0   1.60    3.5    0.020774   -0.974819   -0.788372
   490   16   6.0  12.35   21.8   -0.108090    0.190359   -0.037754
   491   16   1.0   0.00    0.0    0.000000    0.173294    0.187609
   492   16   1.0   0.00    0.0    0.000000    0.243974    0.227763
   493   16   6.0   6.62   11.7   -0.045563    0.095996    0.155109
   494   16   1.0   0.00    0.0    0.000000    0.251922    0.224638
   495   16   8.0   2.31    5.0    0.036892   -0.725114   -0.732433
   496   16   6.0   3.34    5.9   -0.035592    0.413953    0.413462
   497   16   1.0   0.00    0.0    0.000000    0.266314    0.262640
   498   16   7.0   0.00    0.0    0.000000   -0.827051   -0.835590
   499   16   6.0   3.37    5.9   -0.008697    0.178784    0.172068
   500   16   1.0   0.00    0.0    0.000000    0.315610    0.325528
   501   16   6.0   2.49    4.4   -0.011785    1.109984    1.116100
   502   16   8.0  10.03   21.9    0.150750   -0.677003   -0.687236
   503   16   7.0   2.02    4.0    0.003923   -0.931885   -1.008577
   504   16   1.0   0.00    0.0    0.000000    0.487332    0.541004
   505   16   6.0   2.51    4.4   -0.004472    0.875314    0.879042
   506   16   8.0  13.21   28.9    0.179189   -0.726135   -0.716475
   507   16   6.0  11.40   20.1   -0.036358   -0.441094   -0.439189
   508   16   1.0   0.00    0.0    0.000000    0.267321    0.267025
   509   16   6.0   6.66   11.7   -0.061837    0.115288    0.115510
   510   16   1.0   0.00    0.0    0.000000    0.226142    0.225147
   511   16   8.0  21.14   46.2    0.039331   -0.839667   -0.841175
   512   16   1.0   0.00    0.0    0.000000    0.507537    0.507661
   513   16   6.0   5.37    9.5   -0.058714    0.162136    0.146892
   514   16   1.0   0.00    0.0    0.000000    0.212177    0.216143
   515   16   8.0  23.61   51.6   -0.011608   -0.848544   -0.852267
   516   16   1.0   0.00    0.0    0.000000    0.509287    0.508903

 Done with FMO properties.
 CPU     0: STEP CPU TIME=     0.00 TOTAL CPU TIME=      30052.8 (    500.9 MIN)
 TOTAL WALL CLOCK TIME=      35123.2 SECONDS, CPU UTILIZATION IS    85.56%
 CPU     0: STEP CPU TIME=     0.00 TOTAL CPU TIME=      30052.8 (    500.9 MIN)
 TOTAL WALL CLOCK TIME=      35123.2 SECONDS, CPU UTILIZATION IS    85.56%

 Total timing statistics in pairs (CPU,wall) for each rank, sec

    Rank   total     SCF    corr     DFT    CPHF     EFP    solv     ESP    geom
 -------------------------------------------------------------------------------
       1   30052.8   7978.6  10923.8      0.0    0.0   0.0  342.9 10121.6    0.0
       1   35123.2   9293.8  13786.7      0.0    0.0   0.0  458.3 10728.9    0.0
       2   30128.8   7993.0  11146.0      0.0    0.0   0.0  343.6  9942.8    0.0
       2   35123.2   9293.0  13787.3      0.0    0.0   0.0  458.6 10728.5    0.0
       3   30619.5   8007.9  11560.1      0.0    0.0   0.0  346.0  9986.4    0.0
       3   35123.2   9292.2  13787.3      0.0    0.0   0.0  459.1 10728.7    0.0
       4   30558.9   8089.7  11598.4      0.0    0.0   0.0  344.2  9826.3    0.0
       4   35123.2   9292.5  13787.3      0.0    0.0   0.0  458.6 10728.8    0.0
       5   30825.4   8035.3  11597.5      0.0    0.0   0.0  345.0 10133.2    0.0
       5   35123.2   9292.2  13787.3      0.0    0.0   0.0  459.2 10728.8    0.0
       6   31474.1   8293.6  12136.3      0.0    0.0   0.0  345.2  9978.2    0.0
       6   35123.2   9292.8  13787.2      0.0    0.0   0.0  458.5 10728.8    0.0
       7   31410.1   8202.7  11992.7      0.0    0.0   0.0  348.6 10125.2    0.0
       7   35123.2   9292.2  13787.3      0.0    0.0   0.0  459.0 10728.8    0.0
       8   30541.8   8087.8  11500.0      0.0    0.0   0.0  346.4  9884.0    0.0
       8   35123.2   9292.5  13787.2      0.0    0.0   0.0  458.7 10728.7    0.0
       9   31039.8   8177.0  11721.6      0.0    0.0   0.0  346.2 10055.8    0.0
       9   35123.2   9292.3  13787.3      0.0    0.0   0.0  458.9 10728.8    0.0
      10   30559.3   8117.0  11615.7      0.0    0.0   0.0  343.9  9757.6    0.0
      10   35123.2   9292.7  13787.3      0.0    0.0   0.0  458.4 10728.8    0.0
      11   31947.8   8353.6  12410.4      0.0    0.0   0.0  343.4 10108.0    0.0
      11   35123.2   9292.3  13787.3      0.0    0.0   0.0  458.8 10728.8    0.0
      12   31607.4   8289.6  12312.4      0.0    0.0   0.0  343.3  9939.7    0.0
      12   35123.2   9292.8  13787.3      0.0    0.0   0.0  458.1 10728.8    0.0
      13   31324.4   8230.0  11939.0      0.0    0.0   0.0  349.3 10061.1    0.0
      13   35123.2   9292.2  13787.3      0.0    0.0   0.0  458.9 10728.8    0.0
      14   31183.3   8226.0  12069.7      0.0    0.0   0.0  347.9  9817.3    0.0
      14   35123.2   9292.5  13787.3      0.0    0.0   0.0  458.6 10728.8    0.0
      15   30570.2   8080.7  11686.9      0.0    0.0   0.0  348.0  9727.9    0.0
      15   35123.2   9292.2  13787.3      0.0    0.0   0.0  458.9 10728.8    0.0
      16   30873.1   8164.0  11981.9      0.0    0.0   0.0  347.7  9642.3    0.0
      16   35123.2   9292.7  13787.3      0.0    0.0   0.0  458.2 10728.8    0.0
averaged   30919.8   8145.4  11762.0      0.0    0.0   0.0  345.7  9944.2    0.0
averaged   35123.2   9292.6  13787.2      0.0    0.0   0.0  458.7 10728.8    0.0

  FMO  timing statistics in pairs (CPU,wall) for each rank, sec

    Rank  FMOini FMOscf1  FMOdm1 FMOsyn1 FMOscf2  FMOes2 FMOsyn2 FMOscf3 FMOsyn3
 -------------------------------------------------------------------------------
       1    3.5   11254.4    0.5    0.0   18311.9     482.5    0.0    0.0    0.0
       1    4.9   12280.5    0.9    0.1   22259.9     576.8    0.0    0.0    0.0
       2    2.5   11123.4    0.1    0.0   18495.7     507.0    0.0    0.0    0.0
       2    4.9   12280.5    0.9    0.1   22260.0     576.7    0.0    0.0    0.0
       3    2.8   11099.5    0.3    0.0   18998.3     518.6    0.0    0.0    0.0
       3    4.9   12280.5    0.9    0.1   22259.8     576.9    0.0    0.0    0.0
       4    2.5   10969.7    0.1    0.0   19083.7     502.8    0.0    0.0    0.0
       4    4.9   12280.5    0.9    0.1   22260.0     576.7    0.0    0.0    0.0
       5    3.1   11265.5    0.3    0.0   19042.8     513.6    0.0    0.0    0.0
       5    4.9   12280.5    0.9    0.1   22259.8     576.9    0.0    0.0    0.0
       6    2.6   11021.5    0.1    0.0   19927.4     522.5    0.0    0.0    0.0
       6    4.9   12280.5    0.9    0.1   22259.9     576.8    0.0    0.0    0.0
       7    2.8   11227.4    0.2    0.0   19640.1     539.5    0.0    0.0    0.0
       7    4.9   12280.5    0.9    0.1   22259.8     576.9    0.0    0.0    0.0
       8    2.4   11021.2    0.1    0.0   18992.3     525.8    0.0    0.0    0.0
       8    4.9   12280.5    0.9    0.1   22260.0     576.7    0.0    0.0    0.0
       9    3.0   11226.9    0.4    0.0   19273.4     536.1    0.0    0.0    0.0
       9    4.9   12280.5    0.9    0.1   22259.9     576.8    0.0    0.0    0.0
      10    2.4   10930.8    0.2    0.0   19097.6     528.3    0.0    0.0    0.0
      10    4.9   12280.5    0.9    0.1   22260.0     576.7    0.0    0.0    0.0
      11    2.6   11156.1    0.2    0.0   20254.8     534.1    0.0    0.0    0.0
      11    4.9   12280.5    0.9    0.1   22259.9     576.8    0.0    0.0    0.0
      12    2.3   11055.4    0.1    0.0   20023.7     525.9    0.0    0.0    0.0
      12    4.9   12280.5    0.9    0.1   22260.2     576.5    0.0    0.0    0.0
      13    2.7   11219.1    0.4    0.0   19560.1     542.0    0.0    0.0    0.0
      13    4.9   12280.5    0.9    0.1   22259.8     576.9    0.0    0.0    0.0
      14    2.3   10977.2    0.1    0.0   19680.2     523.5    0.0    0.0    0.0
      14    4.9   12280.5    0.9    0.1   22259.9     576.8    0.0    0.0    0.0
      15    2.5   11089.8    0.2    0.0   18951.6     526.0    0.0    0.0    0.0
      15    4.9   12280.5    0.9    0.1   22259.9     576.8    0.0    0.0    0.0
      16    2.3   10940.7    0.1    0.0   19392.1     537.9    0.0    0.0    0.0
      16    4.9   12280.5    0.9    0.1   22260.1     576.6    0.0    0.0    0.0
averaged    2.7   11098.7    0.2    0.0   19295.4     522.9    0.0    0.0    0.0
averaged    4.9   12280.5    0.9    0.1   22260.0     576.7    0.0    0.0    0.0
             62808108  WORDS OF DYNAMIC MEMORY USED
 EXECUTION OF GAMESS TERMINATED NORMALLY Fri Aug  2 22:52:16 2019
 DDI: 263640 bytes (0.3 MB / 0 MWords) used by master data server.

 ----------------------------------------
 CPU timing information for all processes
 ========================================
 0: 29408.207 + 644.624 = 30052.832
 1: 29525.774 + 603.04 = 30128.778
 2: 29978.985 + 640.492 = 30619.477
 3: 29926.150 + 632.781 = 30558.931
 4: 30161.907 + 663.484 = 30825.391
 5: 30830.324 + 643.819 = 31474.144
 6: 30751.653 + 658.452 = 31410.105
 7: 29926.438 + 615.410 = 30541.848
 8: 30371.842 + 668.24 = 31039.866
 9: 29937.832 + 621.525 = 30559.358
 10: 31292.331 + 655.437 = 31947.768
 11: 30956.688 + 650.767 = 31607.455
 12: 30675.563 + 648.839 = 31324.403
 13: 30540.897 + 642.410 = 31183.307
 14: 29933.995 + 636.206 = 30570.201
 15: 30250.244 + 622.869 = 30873.113
 ----------------------------------------
 ddikick.x: exited gracefully.
----- accounting info -----
Files used on the master node gollum069.lsa.umich.edu were:
-rw-r--r-- 1 afrankz frank    24834 Aug  2 13:06 /scratch/afrankz/840480/2LX1_0/usrc/2LX1_0_minimized_charmm.F05
-rw-r--r-- 1 afrankz frank      634 Aug  2 22:52 /scratch/afrankz/840480/2LX1_0/usrc/2LX1_0_minimized_charmm.F06.001
-rw-r--r-- 1 afrankz frank      634 Aug  2 22:52 /scratch/afrankz/840480/2LX1_0/usrc/2LX1_0_minimized_charmm.F06.002
-rw-r--r-- 1 afrankz frank      634 Aug  2 22:52 /scratch/afrankz/840480/2LX1_0/usrc/2LX1_0_minimized_charmm.F06.003
-rw-r--r-- 1 afrankz frank      634 Aug  2 22:52 /scratch/afrankz/840480/2LX1_0/usrc/2LX1_0_minimized_charmm.F06.004
-rw-r--r-- 1 afrankz frank      634 Aug  2 22:52 /scratch/afrankz/840480/2LX1_0/usrc/2LX1_0_minimized_charmm.F06.005
-rw-r--r-- 1 afrankz frank      634 Aug  2 22:52 /scratch/afrankz/840480/2LX1_0/usrc/2LX1_0_minimized_charmm.F06.006
-rw-r--r-- 1 afrankz frank      634 Aug  2 22:52 /scratch/afrankz/840480/2LX1_0/usrc/2LX1_0_minimized_charmm.F06.007
-rw-r--r-- 1 afrankz frank      634 Aug  2 22:52 /scratch/afrankz/840480/2LX1_0/usrc/2LX1_0_minimized_charmm.F06.008
-rw-r--r-- 1 afrankz frank      634 Aug  2 22:52 /scratch/afrankz/840480/2LX1_0/usrc/2LX1_0_minimized_charmm.F06.009
-rw-r--r-- 1 afrankz frank      634 Aug  2 22:52 /scratch/afrankz/840480/2LX1_0/usrc/2LX1_0_minimized_charmm.F06.010
-rw-r--r-- 1 afrankz frank      634 Aug  2 22:52 /scratch/afrankz/840480/2LX1_0/usrc/2LX1_0_minimized_charmm.F06.011
-rw-r--r-- 1 afrankz frank      634 Aug  2 22:52 /scratch/afrankz/840480/2LX1_0/usrc/2LX1_0_minimized_charmm.F06.012
-rw-r--r-- 1 afrankz frank      634 Aug  2 22:52 /scratch/afrankz/840480/2LX1_0/usrc/2LX1_0_minimized_charmm.F06.013
-rw-r--r-- 1 afrankz frank      634 Aug  2 22:52 /scratch/afrankz/840480/2LX1_0/usrc/2LX1_0_minimized_charmm.F06.014
-rw-r--r-- 1 afrankz frank      634 Aug  2 22:52 /scratch/afrankz/840480/2LX1_0/usrc/2LX1_0_minimized_charmm.F06.015
-rw-r--r-- 1 afrankz frank    21906 Aug  2 22:52 /scratch/afrankz/840480/2LX1_0/usrc/2LX1_0_minimized_charmm.F07
-rw-r--r-- 1 afrankz frank        0 Aug  2 13:06 /scratch/afrankz/840480/2LX1_0/usrc/2LX1_0_minimized_charmm.F07.001
-rw-r--r-- 1 afrankz frank        0 Aug  2 13:06 /scratch/afrankz/840480/2LX1_0/usrc/2LX1_0_minimized_charmm.F07.002
-rw-r--r-- 1 afrankz frank        0 Aug  2 13:06 /scratch/afrankz/840480/2LX1_0/usrc/2LX1_0_minimized_charmm.F07.003
-rw-r--r-- 1 afrankz frank        0 Aug  2 13:06 /scratch/afrankz/840480/2LX1_0/usrc/2LX1_0_minimized_charmm.F07.004
-rw-r--r-- 1 afrankz frank        0 Aug  2 13:06 /scratch/afrankz/840480/2LX1_0/usrc/2LX1_0_minimized_charmm.F07.005
-rw-r--r-- 1 afrankz frank        0 Aug  2 13:06 /scratch/afrankz/840480/2LX1_0/usrc/2LX1_0_minimized_charmm.F07.006
-rw-r--r-- 1 afrankz frank        0 Aug  2 13:06 /scratch/afrankz/840480/2LX1_0/usrc/2LX1_0_minimized_charmm.F07.007
-rw-r--r-- 1 afrankz frank        0 Aug  2 13:06 /scratch/afrankz/840480/2LX1_0/usrc/2LX1_0_minimized_charmm.F07.008
-rw-r--r-- 1 afrankz frank        0 Aug  2 13:06 /scratch/afrankz/840480/2LX1_0/usrc/2LX1_0_minimized_charmm.F07.009
-rw-r--r-- 1 afrankz frank        0 Aug  2 13:06 /scratch/afrankz/840480/2LX1_0/usrc/2LX1_0_minimized_charmm.F07.010
-rw-r--r-- 1 afrankz frank        0 Aug  2 13:06 /scratch/afrankz/840480/2LX1_0/usrc/2LX1_0_minimized_charmm.F07.011
-rw-r--r-- 1 afrankz frank        0 Aug  2 13:06 /scratch/afrankz/840480/2LX1_0/usrc/2LX1_0_minimized_charmm.F07.012
-rw-r--r-- 1 afrankz frank        0 Aug  2 13:06 /scratch/afrankz/840480/2LX1_0/usrc/2LX1_0_minimized_charmm.F07.013
-rw-r--r-- 1 afrankz frank        0 Aug  2 13:06 /scratch/afrankz/840480/2LX1_0/usrc/2LX1_0_minimized_charmm.F07.014
-rw-r--r-- 1 afrankz frank        0 Aug  2 13:06 /scratch/afrankz/840480/2LX1_0/usrc/2LX1_0_minimized_charmm.F07.015
-rw-r--r-- 1 afrankz frank    65440 Aug  2 22:52 /scratch/afrankz/840480/2LX1_0/usrc/2LX1_0_minimized_charmm.F10.000
-rw-r--r-- 1 afrankz frank        0 Aug  2 13:06 /scratch/afrankz/840480/2LX1_0/usrc/2LX1_0_minimized_charmm.F26.000
-rw-r--r-- 1 afrankz frank        0 Aug  2 13:06 /scratch/afrankz/840480/2LX1_0/usrc/2LX1_0_minimized_charmm.F26.001
-rw-r--r-- 1 afrankz frank        0 Aug  2 13:06 /scratch/afrankz/840480/2LX1_0/usrc/2LX1_0_minimized_charmm.F26.002
-rw-r--r-- 1 afrankz frank        0 Aug  2 13:06 /scratch/afrankz/840480/2LX1_0/usrc/2LX1_0_minimized_charmm.F26.003
-rw-r--r-- 1 afrankz frank        0 Aug  2 13:06 /scratch/afrankz/840480/2LX1_0/usrc/2LX1_0_minimized_charmm.F26.004
-rw-r--r-- 1 afrankz frank        0 Aug  2 13:06 /scratch/afrankz/840480/2LX1_0/usrc/2LX1_0_minimized_charmm.F26.005
-rw-r--r-- 1 afrankz frank        0 Aug  2 13:06 /scratch/afrankz/840480/2LX1_0/usrc/2LX1_0_minimized_charmm.F26.006
-rw-r--r-- 1 afrankz frank        0 Aug  2 13:06 /scratch/afrankz/840480/2LX1_0/usrc/2LX1_0_minimized_charmm.F26.007
-rw-r--r-- 1 afrankz frank        0 Aug  2 13:06 /scratch/afrankz/840480/2LX1_0/usrc/2LX1_0_minimized_charmm.F26.008
-rw-r--r-- 1 afrankz frank        0 Aug  2 13:06 /scratch/afrankz/840480/2LX1_0/usrc/2LX1_0_minimized_charmm.F26.009
-rw-r--r-- 1 afrankz frank        0 Aug  2 13:06 /scratch/afrankz/840480/2LX1_0/usrc/2LX1_0_minimized_charmm.F26.010
-rw-r--r-- 1 afrankz frank        0 Aug  2 13:06 /scratch/afrankz/840480/2LX1_0/usrc/2LX1_0_minimized_charmm.F26.011
-rw-r--r-- 1 afrankz frank        0 Aug  2 13:06 /scratch/afrankz/840480/2LX1_0/usrc/2LX1_0_minimized_charmm.F26.012
-rw-r--r-- 1 afrankz frank        0 Aug  2 13:06 /scratch/afrankz/840480/2LX1_0/usrc/2LX1_0_minimized_charmm.F26.013
-rw-r--r-- 1 afrankz frank        0 Aug  2 13:06 /scratch/afrankz/840480/2LX1_0/usrc/2LX1_0_minimized_charmm.F26.014
-rw-r--r-- 1 afrankz frank        0 Aug  2 13:06 /scratch/afrankz/840480/2LX1_0/usrc/2LX1_0_minimized_charmm.F26.015
-rw-r--r-- 1 afrankz frank        0 Aug  2 13:06 /scratch/afrankz/840480/2LX1_0/usrc/2LX1_0_minimized_charmm.F27.000
-rw-r--r-- 1 afrankz frank        0 Aug  2 13:06 /scratch/afrankz/840480/2LX1_0/usrc/2LX1_0_minimized_charmm.F27.001
-rw-r--r-- 1 afrankz frank        0 Aug  2 13:06 /scratch/afrankz/840480/2LX1_0/usrc/2LX1_0_minimized_charmm.F27.002
-rw-r--r-- 1 afrankz frank        0 Aug  2 13:06 /scratch/afrankz/840480/2LX1_0/usrc/2LX1_0_minimized_charmm.F27.003
-rw-r--r-- 1 afrankz frank        0 Aug  2 13:06 /scratch/afrankz/840480/2LX1_0/usrc/2LX1_0_minimized_charmm.F27.004
-rw-r--r-- 1 afrankz frank        0 Aug  2 13:06 /scratch/afrankz/840480/2LX1_0/usrc/2LX1_0_minimized_charmm.F27.005
-rw-r--r-- 1 afrankz frank        0 Aug  2 13:06 /scratch/afrankz/840480/2LX1_0/usrc/2LX1_0_minimized_charmm.F27.006
-rw-r--r-- 1 afrankz frank        0 Aug  2 13:06 /scratch/afrankz/840480/2LX1_0/usrc/2LX1_0_minimized_charmm.F27.007
-rw-r--r-- 1 afrankz frank        0 Aug  2 13:06 /scratch/afrankz/840480/2LX1_0/usrc/2LX1_0_minimized_charmm.F27.008
-rw-r--r-- 1 afrankz frank        0 Aug  2 13:06 /scratch/afrankz/840480/2LX1_0/usrc/2LX1_0_minimized_charmm.F27.009
-rw-r--r-- 1 afrankz frank        0 Aug  2 13:06 /scratch/afrankz/840480/2LX1_0/usrc/2LX1_0_minimized_charmm.F27.010
-rw-r--r-- 1 afrankz frank        0 Aug  2 13:06 /scratch/afrankz/840480/2LX1_0/usrc/2LX1_0_minimized_charmm.F27.011
-rw-r--r-- 1 afrankz frank        0 Aug  2 13:06 /scratch/afrankz/840480/2LX1_0/usrc/2LX1_0_minimized_charmm.F27.012
-rw-r--r-- 1 afrankz frank        0 Aug  2 13:06 /scratch/afrankz/840480/2LX1_0/usrc/2LX1_0_minimized_charmm.F27.013
-rw-r--r-- 1 afrankz frank        0 Aug  2 13:06 /scratch/afrankz/840480/2LX1_0/usrc/2LX1_0_minimized_charmm.F27.014
-rw-r--r-- 1 afrankz frank        0 Aug  2 13:06 /scratch/afrankz/840480/2LX1_0/usrc/2LX1_0_minimized_charmm.F27.015
-rw-r--r-- 1 afrankz frank 33472512 Aug  2 16:31 /scratch/afrankz/840480/2LX1_0/usrc/2LX1_0_minimized_charmm.F40.000
-rw-r--r-- 1 afrankz frank 33472512 Aug  2 16:31 /scratch/afrankz/840480/2LX1_0/usrc/2LX1_0_minimized_charmm.F40.001
-rw-r--r-- 1 afrankz frank 33472512 Aug  2 16:31 /scratch/afrankz/840480/2LX1_0/usrc/2LX1_0_minimized_charmm.F40.002
-rw-r--r-- 1 afrankz frank 33472512 Aug  2 16:31 /scratch/afrankz/840480/2LX1_0/usrc/2LX1_0_minimized_charmm.F40.003
-rw-r--r-- 1 afrankz frank 33472512 Aug  2 16:31 /scratch/afrankz/840480/2LX1_0/usrc/2LX1_0_minimized_charmm.F40.004
-rw-r--r-- 1 afrankz frank 33472512 Aug  2 16:31 /scratch/afrankz/840480/2LX1_0/usrc/2LX1_0_minimized_charmm.F40.005
-rw-r--r-- 1 afrankz frank 33472512 Aug  2 16:31 /scratch/afrankz/840480/2LX1_0/usrc/2LX1_0_minimized_charmm.F40.006
-rw-r--r-- 1 afrankz frank 33472512 Aug  2 16:31 /scratch/afrankz/840480/2LX1_0/usrc/2LX1_0_minimized_charmm.F40.007
-rw-r--r-- 1 afrankz frank 33472512 Aug  2 16:31 /scratch/afrankz/840480/2LX1_0/usrc/2LX1_0_minimized_charmm.F40.008
-rw-r--r-- 1 afrankz frank 33472512 Aug  2 16:31 /scratch/afrankz/840480/2LX1_0/usrc/2LX1_0_minimized_charmm.F40.009
-rw-r--r-- 1 afrankz frank 33472512 Aug  2 16:31 /scratch/afrankz/840480/2LX1_0/usrc/2LX1_0_minimized_charmm.F40.010
-rw-r--r-- 1 afrankz frank 33472512 Aug  2 16:31 /scratch/afrankz/840480/2LX1_0/usrc/2LX1_0_minimized_charmm.F40.011
-rw-r--r-- 1 afrankz frank 33472512 Aug  2 16:31 /scratch/afrankz/840480/2LX1_0/usrc/2LX1_0_minimized_charmm.F40.012
-rw-r--r-- 1 afrankz frank 33472512 Aug  2 16:31 /scratch/afrankz/840480/2LX1_0/usrc/2LX1_0_minimized_charmm.F40.013
-rw-r--r-- 1 afrankz frank 33472512 Aug  2 16:31 /scratch/afrankz/840480/2LX1_0/usrc/2LX1_0_minimized_charmm.F40.014
-rw-r--r-- 1 afrankz frank 33472512 Aug  2 16:31 /scratch/afrankz/840480/2LX1_0/usrc/2LX1_0_minimized_charmm.F40.015
Fri Aug  2 22:52:20 EDT 2019
0.198u 0.180s 9:45:32.15 0.0%	0+0k 24+176io 0pf+0w
