----- GAMESS execution script 'rungms' -----
This job is running on host gollum056.lsa.umich.edu
under operating system Linux at Fri Dec 6 12:12:43 EST 2019
Available scratch disk space (Kbyte units) at beginning of the job is
Filesystem     1K-blocks   Used Available Use% Mounted on
/dev/sda4      426933580 377824 426555756   1% /scratch
GAMESS temporary binary files will be written to /scratch/hazwong/822157/4A4R_6/usrc
GAMESS supplementary output files will be written to /scratch/hazwong/822157/4A4R_6/src
Copying input file 4A4R_6_fmo_input.inp to your run's scratch directory...
This is a GDDI run, keeping various output files on local disks
 
Assuming a single but multicore node.
 

 Distributed Data Interface kickoff program.
 Initiating 16 compute processes on 1 nodes to run the following command:
 /export/apps/CentOS7/gamess/src/build//gamess.R3.x 4A4R_6_fmo_input 

          ******************************************************
          *         GAMESS VERSION = 30 SEP 2018 (R3)         *
          *             FROM IOWA STATE UNIVERSITY             *
          * M.W.SCHMIDT, K.K.BALDRIDGE, J.A.BOATZ, S.T.ELBERT, *
          *   M.S.GORDON, J.H.JENSEN, S.KOSEKI, N.MATSUNAGA,   *
          *          K.A.NGUYEN, S.J.SU, T.L.WINDUS,           *
          *       TOGETHER WITH M.DUPUIS, J.A.MONTGOMERY       *
          *         J.COMPUT.CHEM.  14, 1347-1363(1993)        *
          **************** 64 BIT LINUX VERSION ****************

  SINCE 1993, STUDENTS AND POSTDOCS WORKING AT IOWA STATE UNIVERSITY
  AND ALSO IN THEIR VARIOUS JOBS AFTER LEAVING ISU HAVE MADE IMPORTANT
  CONTRIBUTIONS TO THE CODE:
     IVANA ADAMOVIC, CHRISTINE AIKENS, YURI ALEXEEV, POOJA ARORA,
     ANDREY ASADCHEV, ROB BELL, PRADIPTA BANDYOPADHYAY, JONATHAN BENTZ,
     BRETT BODE, KURT BRORSEN, CALEB CARLIN, GALINA CHABAN, WEI CHEN,
     CHEOL HO CHOI, PAUL DAY, ALBERT DEFUSCO, NUWAN DESILVA, TIM DUDLEY,
     DMITRI FEDOROV, ALEX FINDLATER, GRAHAM FLETCHER, MARK FREITAG,
     KURT GLAESEMANN, ANASTASIA GUNINA,
     DAN KEMP, GRANT MERRILL, NORIYUKI MINEZAWA, JONATHAN MULLIN,
     TAKESHI NAGATA, SEAN NEDD, HEATHER NETZLOFF, BOSILJKA NJEGIC, RYAN OLSON,
     MIKE PAK, BUU PHAM,
     SPENCER PRUITT, LUKE ROSKOP, JIM SHOEMAKER, LYUDMILA SLIPCHENKO,
     TONY SMITH, SAROM SOK LEANG, JIE SONG, TETSUYA TAKETSUGU, SIMON WEBB,
     PENG XU, SOOHAENG YOO, FEDERICO ZAHARIEV

  ADDITIONAL CODE HAS BEEN PROVIDED BY COLLABORATORS IN OTHER GROUPS:
     IOWA STATE UNIVERSITY:
          JOE IVANIC, AARON WEST, LAIMUTIS BYTAUTAS, KLAUS RUEDENBERG
     UNIVERSITY OF TOKYO: KIMIHIKO HIRAO, TAKAHITO NAKAJIMA,
          TAKAO TSUNEDA, MUNEAKI KAMIYA, SUSUMU YANAGISAWA,
          KIYOSHI YAGI, MAHITO CHIBA, SEIKEN TOKURA, NAOAKI KAWAKAMI
     UNIVERSITY OF AARHUS: FRANK JENSEN
     UNIVERSITY OF IOWA: VISVALDAS KAIRYS, HUI LI
     NATIONAL INST. OF STANDARDS AND TECHNOLOGY: WALT STEVENS, DAVID GARMER
     UNIVERSITY OF PISA: BENEDETTA MENNUCCI, JACOPO TOMASI
     UNIVERSITY OF MEMPHIS: HENRY KURTZ, PRAKASHAN KORAMBATH
     UNIVERSITY OF ALBERTA: TOBY ZENG, MARIUSZ KLOBUKOWSKI
     UNIVERSITY OF NEW ENGLAND: MARK SPACKMAN
     MIE UNIVERSITY: HIROAKI UMEDA
     NAT. INST. OF ADVANCED INDUSTRIAL SCIENCE AND TECHNOLOGY: KAZUO KITAURA
     MICHIGAN STATE UNIVERSITY:
          KAROL KOWALSKI, MARTA WLOCH, JEFFREY GOUR, JESSE LUTZ,
          WEI LI, JUN SHEN, J. EMILIANO DEUSTUA, PIOTR PIECUCH
     UNIVERSITY OF MINNESOTA:
          YINAN SHU
     UNIVERSITY OF SILESIA: MONIKA MUSIAL, STANISLAW KUCHARSKI
     FACULTES UNIVERSITAIRES NOTRE-DAME DE LA PAIX:
          OLIVIER QUINET, BENOIT CHAMPAGNE
     UNIVERSITY OF CALIFORNIA - SANTA BARBARA: BERNARD KIRTMAN
     INSTITUTE FOR MOLECULAR SCIENCE:
          KAZUYA ISHIMURA, MICHIO KATOUDA, AND SHIGERU NAGASE
     UNIVERSITY OF NOTRE DAME: ANNA POMOGAEVA, DAN CHIPMAN
     KYUSHU UNIVERSITY:
          HARUYUKI NAKANO,
          FENG LONG GU, JACEK KORCHOWIEC, MARCIN MAKOWSKI, AND YURIKO AOKI,
          HIROTOSHI MORI AND EISAKU MIYOSHI
     PENNSYLVANIA STATE UNIVERSITY:
          TZVETELIN IORDANOV, CHET SWALINA, JONATHAN SKONE,
          SHARON HAMMES-SCHIFFER
     WASEDA UNIVERSITY:
          MASATO KOBAYASHI, TOMOKO AKAMA, TSUGUKI TOUMA,
          TAKESHI YOSHIKAWA, YASUHIRO IKABATA, JUNJI SEINO,
          YUYA NAKAJIMA, HIROMI NAKAI
     NANJING UNIVERSITY: SHUHUA LI
     UNIVERSITY OF NEBRASKA:
          PEIFENG SU, DEJUN SI, NANDUN THELLAMUREGE, YALI WANG, HUI LI
     UNIVERSITY OF ZURICH: ROBERTO PEVERATI, KIM BALDRIDGE
     N. COPERNICUS UNIVERSITY AND JACKSON STATE UNIVERSITY:
          MARIA BARYSZ
     UNIVERSITY OF COPENHAGEN: Jimmy Kromann, CASPER STEINMANN
     TOKYO INSTITUTE OF TECHNOLOGY: HIROYA NAKATA
     NAGOYA UNIVERSITY: YOSHIO NISHIMOTO, STEPHAN IRLE
     MOSCOW STATE UNIVERSITY: VLADIMIR MIRONOV


 PARALLEL VERSION RUNNING ON       16 PROCESSORS IN        1 NODES.

 EXECUTION OF GAMESS BEGUN Fri Dec  6 12:12:43 2019

            ECHO OF THE FIRST FEW INPUT CARDS -
 INPUT CARD>!*** FMO 5.3 (Gamess) INPUT generated by Facio 22.1.1.32 ***                    
 INPUT CARD> $CONTRL RUNTYP=ENERGY NPRINT=-5 ISPHER=1 MAXIT=200 $END                        
 INPUT CARD> $SYSTEM MWORDS=63 MEMDDI=63 $END                                               
 INPUT CARD> $GDDI NGROUP=1 $END                                                            
 INPUT CARD> $SCF DIRSCF=.TRUE. NPUNCH=0 $END                                               
 INPUT CARD>!*** NumCPU : 2  MemPerNode : 512MB                                             
 INPUT CARD> $PCM SOLVNT=WATER IEF=-10 ICOMP=2 ICAV=1 IDISP=1 IFMO=-1 $END                  
 INPUT CARD> $PCMCAV RADII=SUAHF $END                                                       
 INPUT CARD> $TESCAV NTSALL=60 $END                                                         
 INPUT CARD> $FMOPRP                                                                        
 INPUT CARD>    NAODIR=200                                                                  
 INPUT CARD>    NGRFMO(1)=1, 1, 0, 0, 0,   0, 0, 0, 0, 0                                    
 INPUT CARD>    IPIEDA=1                                                                    
 INPUT CARD>    NPRINT=9                                                                    
 INPUT CARD> $END                                                                           
 INPUT CARD> $FMO                                                                           
 INPUT CARD>      SCFTYP(1)=RHF                                                             
 INPUT CARD>      MODGRD=10                                                                 
 INPUT CARD>      MODMUL=0                                                                  
 INPUT CARD>      MAXCAO=5                                                                  
 INPUT CARD>      MAXBND=10                                                                 
 INPUT CARD>      NLAYER=1                                                                  
 INPUT CARD>      MPLEVL(1)=2                                                               
 INPUT CARD>      NFRAG=8                                                                   
 INPUT CARD>      ICHARG(1)=-1, -1, -1, -1, -1, -1, -1, 0                                   
 INPUT CARD>      FRGNAM(1)=F1, F2, F3, F4, F5, F6, F7, F8                                  
 INPUT CARD>      indat(1)=0                                                                
 INPUT CARD>               1   -36   0                                                      
 INPUT CARD>               37   -67   0                                                     
 INPUT CARD>               68   -97   0                                                     
 INPUT CARD>               98   -130   0                                                    
 INPUT CARD>               131   -163   0                                                   
 INPUT CARD>               164   -194   0                                                   
 INPUT CARD>               195   -228   0                                                   
 INPUT CARD>               229   -256   0                                                   
 INPUT CARD> $END                                                                           
 INPUT CARD>                                                                                
 INPUT CARD> $FMOBND                                                                        
 INPUT CARD>   -37   36       6-31G*    MINI                                                
 INPUT CARD>   -68   67       6-31G*    MINI                                                
 INPUT CARD>   -98   97       6-31G*    MINI                                                
 INPUT CARD>   -131   130       6-31G*    MINI                                              
 INPUT CARD>   -164   163       6-31G*    MINI                                              
 INPUT CARD>   -195   194       6-31G*    MINI                                              
 INPUT CARD>   -229   228       6-31G*    MINI                                              
 INPUT CARD> $END                                                                           
 INPUT CARD> $FMOHYB                                                                        
 INPUT CARD> 6-31G*      15   5                                                             
 INPUT CARD>   1 0  -0.065034   0.288264   0.000000   0.000000   0.604412                   
 INPUT CARD>         0.290129   0.000000   0.000000   0.319045  -0.017106                   


 -------------------------------------------------------------
 GROUP DDI, PROGRAMMED BY: RYAN M. OLSON AND DMITRI G. FEDOROV
        FEDOROV ET AL., J. COMPUT. CHEM., 25 (2004) 872.
 -------------------------------------------------------------

 -------------------------------------------------------
 GDDI: INITIALIZATION COMPLETED FOR GROUP     1 OF     1
 WITH    16 PROCESSES BALTYP=DLB   global rank=        0
 -------------------------------------------------------

   63000000 WORDS OF MEMORY AVAILABLE


     RUN TITLE
     ---------
  FMO calculation                                                                

 THE POINT GROUP OF THE MOLECULE IS C1      
 THE ORDER OF THE PRINCIPAL AXIS IS     0

 ATOM   ATOMIC CHARGE
 H.1-1       1.0
 O.1-1       8.0
 C.1-1       6.0
 N.1-1       7.0
 P.1-1      15.0

     ATOMIC BASIS SET LIBRARY
     ----------------
 THE CONTRACTED PRIMITIVE FUNCTIONS HAVE BEEN UNNORMALIZED
 THE CONTRACTED BASIS FUNCTIONS ARE NOW NORMALIZED TO UNITY

  SHELL TYPE  PRIMITIVE        EXPONENT          CONTRACTION COEFFICIENT(S)

 H.1-1     

      1   S       1            18.7311370    0.033494604338
      1   S       2             2.8253944    0.234726953484
      1   S       3             0.6401217    0.813757326146

      2   S       4             0.1612778    1.000000000000

 O.1-1     

      3   S       5          5484.6716600    0.001831074430
      3   S       6           825.2349460    0.013950172200
      3   S       7           188.0469580    0.068445078098
      3   S       8            52.9645000    0.232714335992
      3   S       9            16.8975704    0.470192897984
      3   S      10             5.7996353    0.358520852987

      4   L      11            15.5396162   -0.110777549525    0.070874268231
      4   L      12             3.5999336   -0.148026262701    0.339752839147
      4   L      13             1.0137618    1.130767015354    0.727158577316

      5   L      14             0.2700058    1.000000000000    1.000000000000

      6   D      15             0.8000000    1.000000000000

 C.1-1     

      7   S      16          3047.5248800    0.001834737132
      7   S      17           457.3695180    0.014037322813
      7   S      18           103.9486850    0.068842622264
      7   S      19            29.2101553    0.232184443216
      7   S      20             9.2866630    0.467941348435
      7   S      21             3.1639270    0.362311985337

      8   L      22             7.8682723   -0.119332419775    0.068999066591
      8   L      23             1.8812885   -0.160854151696    0.316423960957
      8   L      24             0.5442493    1.143456437840    0.744308290898

      9   L      25             0.1687145    1.000000000000    1.000000000000

     10   D      26             0.8000000    1.000000000000

 N.1-1     

     11   S      27          4173.5114600    0.001834772160
     11   S      28           627.4579110    0.013994627002
     11   S      29           142.9020930    0.068586551812
     11   S      30            40.2343293    0.232240873040
     11   S      31            12.8202129    0.469069948082
     11   S      32             4.3904370    0.360455199063

     12   L      33            11.6263619   -0.114961181702    0.067579743878
     12   L      34             2.7162798   -0.169117478561    0.323907295893
     12   L      35             0.7722184    1.145851947027    0.740895139755

     13   L      36             0.2120315    1.000000000000    1.000000000000

     14   D      37             0.8000000    1.000000000000

 P.1-1     

     15   S      38         19413.3000000    0.001851598923
     15   S      39          2909.4200000    0.014206191735
     15   S      40           661.3640000    0.069999459277
     15   S      41           185.7590000    0.240078860331
     15   S      42            59.1943000    0.484761717984
     15   S      43            20.0310000    0.335199804993

     16   L      44           339.4780000   -0.002782170105    0.004564616191
     16   L      45            81.0101000   -0.036049901354    0.033693571881
     16   L      46            25.8780000   -0.116631004382    0.139754883368
     16   L      47             9.4522100    0.096832803638    0.339361716786
     16   L      48             3.6656600    0.614418023082    0.450920623685
     16   L      49             1.4674600    0.403798015170    0.238585800889

     17   L      50             2.1562300   -0.252924113863   -0.017765312733
     17   L      51             0.7489970    0.032851844678    0.274058196433
     17   L      52             0.2831450    1.081254761783    0.785421562957

     18   L      53             0.0998317    1.000000000000    1.000000000000

     19   D      54             0.5500000    1.000000000000

 TOTAL NUMBER OF BASIS SET SHELLS             =   19
 NUMBER OF CARTESIAN GAUSSIAN BASIS FUNCTIONS =   66

     $CONTRL OPTIONS
     ---------------
 SCFTYP=RHF          RUNTYP=ENERGY       EXETYP=RUN     
 MPLEVL=       0     CITYP =NONE         CCTYP =NONE         VBTYP =NONE    
 DFTTYP=NONE         TDDFT =NONE    
 MULT  =       1     ICHARG=       0     NZVAR =       0     COORD =UNIQUE  
 PP    =NONE         RELWFN=NONE         LOCAL =NONE         NUMGRD=       F
 ISPHER=       1     NOSYM =       0     MAXIT =     200     UNITS =ANGS    
 PLTORB=       F     MOLPLT=       F     AIMPAC=       F     FRIEND=        
 NPRINT=      -5     IREST =       0     GEOM  =INPUT   
 NORMF =       0     NORMP =       0     ITOL  =      24     ICUT  =      12
 INTTYP=BEST         GRDTYP=BEST         QMTTOL= 1.0E-06

     $SYSTEM OPTIONS
     ---------------
  REPLICATED MEMORY=    63000000 WORDS (ON EVERY NODE).
 DISTRIBUTED MEMDDI=          63 MILLION WORDS IN AGGREGATE,
 MEMDDI DISTRIBUTED OVER  16 PROCESSORS IS     3937500 WORDS/PROCESSOR.
 TOTAL MEMORY REQUESTED ON EACH PROCESSOR=    66937500 WORDS.
 TIMLIM=      525600.00 MINUTES, OR     365.0 DAYS.
 PARALL= T  BALTYP=  DLB     KDIAG=    0  COREFL= F
 MXSEQ2=     300 MXSEQ3=     150  mem10=         0

 ** LOOKING UP INTERNALLY STORED DATA FOR SOLVENT=WATER    **
 OPTICAL AND PHYSICAL CONSTANTS:
 EPS= 78.390; EPSINF=  1.776; RSOLV=  1.385 A; VMOL=  18.070 ML/MOL;
 TCE= .25700E-03 1/K; STEN= 71.810 DYN/CM;  DSTEN=  0.6500; CMF=  1.2770


     -----------------------------------
     INPUT FOR PCM SOLVATION CALCULATION 
     -----------------------------------
     IEF   =     -10
     ICOMP =       2     IFIELD=       0     ICAV  =       1
     IDISP =       1     IREP  =       0     IDP   =       0

     SOLVNT=WATER        EPS   = 78.3900     EPSINF=  1.7760
     VMOL  = 18.0700     TCE   =  0.00025700 STEN  = 71.8100
     DSTEN =  0.6500     CMF   =  1.2770     RSOLV =  1.3850

     NESFP =       0
     OMEGA = 40.0000     RET   =100.0000     FRO   =  0.7000

     TABS  =298.0000     IPRINT=       0

     --------------------------------
     INPUT FOR ITERATIVE C-PCM METHOD 
     --------------------------------
     IPCMIT  =         1     MXDIIS  =        50
     MXITR1  =       200     MXITR2  =       200
     THRES   = 0.100E-09     IMUL    =         3
     RCUT(1) =   20.0000     RCUT(2) =   50.0000

     IDIRCT  =         1
     IMGABI  =         0     RABI    =    4.0000
     IMGASC  =         0     RASC    =   20.0000
     THRSLS  = 0.500E-03     DENSLS  =    0.0100
     IEFPOL  =         1     REFPOL  =    0.0000

     INPUT FOR ISOTROPIC DIELECTRICS
     -------------------------------
     EPS=    78.39

          ----------------
          PROPERTIES INPUT
          ----------------

     MOMENTS            FIELD           POTENTIAL          DENSITY
 IEMOM =       1   IEFLD =       0   IEPOT =       0   IEDEN =       0
 WHERE =COMASS     WHERE =NUCLEI     WHERE =NUCLEI     WHERE =NUCLEI  
 OUTPUT=BOTH       OUTPUT=BOTH       OUTPUT=NONE       OUTPUT=BOTH    
 IEMINT=       0   IEFINT=       0                     IEDINT=       0
                                                       MORB  =       0
          EXTRAPOLATION IN EFFECT
          SOSCF IN EFFECT
 ORBITAL PRINTING OPTION: NPREO=     1 32767     2     1

     -------------------------------
     INTEGRAL TRANSFORMATION OPTIONS
     -------------------------------
     NWORD  =            0
     CUTOFF = 1.0E-10     MPTRAN =       0
     DIRTRF =       T     AOINTS =DUP     

          ----------------------
          INTEGRAL INPUT OPTIONS
          ----------------------
 NOPK  =       1 NORDER=       0 SCHWRZ=       T

 ..... DONE SETTING UP THE RUN .....
 CPU     0: STEP CPU TIME=     0.04 TOTAL CPU TIME=          0.0 (      0.0 MIN)
 TOTAL WALL CLOCK TIME=          0.1 SECONDS, CPU UTILIZATION IS    57.14%
 CPU     0: STEP CPU TIME=     0.00 TOTAL CPU TIME=          0.0 (      0.0 MIN)
 TOTAL WALL CLOCK TIME=          0.1 SECONDS, CPU UTILIZATION IS    57.14%

                    ----------------------
                    AO INTEGRAL TECHNOLOGY
                    ----------------------
     S,P,L SHELL ROTATED AXIS INTEGRALS, REPROGRAMMED BY
        KAZUYA ISHIMURA (IMS) AND JOSE SIERRA (SYNSTAR).
     S,P,D,L SHELL ROTATED AXIS INTEGRALS PROGRAMMED BY
        KAZUYA ISHIMURA (INSTITUTE FOR MOLECULAR SCIENCE).
     S,P,D,F,G SHELL TO TOTAL QUARTET ANGULAR MOMENTUM SUM 5,
        ERIC PROGRAM BY GRAHAM FLETCHER (ELORET AND NASA ADVANCED
        SUPERCOMPUTING DIVISION, AMES RESEARCH CENTER).
     S,P,D,F,G,L SHELL GENERAL RYS QUADRATURE PROGRAMMED BY
        MICHEL DUPUIS (PACIFIC NORTHWEST NATIONAL LABORATORY).
 Setting modorb=1 flag...
 Setting modorb=1 flag...

          -----------------------
          MP2 CONTROL INFORMATION
          -----------------------
          NACORE =        8  NBCORE =        8
          LMOMP2 =        F  AOINTS = DUP     
          METHOD =        2  NWORD  =               0
          MP2PRP =        F  OSPT   = NONE    
          CUTOFF = 1.00E-12  CPHFBS = BASISAO 
          CODE   = IMS     

          NUMBER OF CORE -A-  ORBITALS =     8
          NUMBER OF CORE -B-  ORBITALS =     8
          NUMBER OF OCC. -A-  ORBITALS =    18
          NUMBER OF OCC. -B-  ORBITALS =    18
          NUMBER OF MOLECULAR ORBITALS =    66
          NUMBER OF   BASIS  FUNCTIONS =    66

 CPU     0: STEP CPU TIME=     0.02 TOTAL CPU TIME=          0.1 (      0.0 MIN)
 TOTAL WALL CLOCK TIME=          0.1 SECONDS, CPU UTILIZATION IS    54.55%
 CPU     0: STEP CPU TIME=     0.00 TOTAL CPU TIME=          0.1 (      0.0 MIN)
 TOTAL WALL CLOCK TIME=          0.1 SECONDS, CPU UTILIZATION IS    54.55%

     INPUT FOR CAVITY DEFINITION 
     ---------------------------
   ATOM               COORDINATES                RADIUS       EPS
      1      1.2060      3.7730     14.1100      0.0100     78.3900
      2      1.3110      4.5410     13.5180      1.5900     78.3900
      3      2.6630      4.9900     13.6810      1.7700     78.3900
      4      3.3430      4.1090     13.6930      0.0100     78.3900
      5      2.7420      5.4950     14.6700      0.0100     78.3900
      6      3.1280      5.9610     12.5930      1.7700     78.3900
      7      4.1100      6.4070     12.8680      0.0100     78.3900
      8      3.3190      5.2410     11.3350      1.5900     78.3900
      9      2.7590      5.9950     10.2710      1.7700     78.3900
     10      3.5070      6.0310      9.4490      0.0100     78.3900
     11      1.5180      5.3800      9.7730      1.6800     78.3900
     12      0.9160      5.6020      8.5650      1.7700     78.3900
     13      0.8510      7.1360      5.4670      1.6800     78.3900
     14      1.6560      7.7300      5.4720      0.0100     78.3900
     15      0.2430      7.1160      4.6680      0.0100     78.3900
     16      1.3600      6.4240      7.5990      1.6800     78.3900
     17      0.5730      6.4020      6.5260      1.7700     78.3900
     18     -0.5330      5.5990      6.4240      1.6800     78.3900
     19     -1.1040      5.6620      5.5940      0.0100     78.3900
     20     -1.0150      4.7420      7.4030      1.7700     78.3900
     21     -2.0200      4.0360      7.2530      1.5900     78.3900
     22     -0.1960      4.7780      8.5520      1.7700     78.3900
     23     -0.3040      4.0690      9.7330      1.6800     78.3900
     24      0.7380      4.4490     10.4220      1.7700     78.3900
     25      1.0110      4.0510     11.3950      0.0100     78.3900
     26      2.5300      7.3840     10.8070      1.7700     78.3900
     27      1.7140      7.9050     10.2770      0.0100     78.3900
     28      3.7340      8.1310     10.7190      1.5900     78.3900
     29      4.4020      7.7290     11.2950      0.0100     78.3900
     30      2.1410      7.0890     12.2520      1.7700     78.3900
     31      1.1110      6.6650     12.2890      0.0100     78.3900
     32      2.3140      8.1810     13.1750      1.5900     78.3900
     33      1.1250      9.1710     13.4700      2.1000     78.3900
     34      1.6330     10.2320     14.3730      1.5900     78.3900
     35     -0.0460      8.3970     13.9380      1.5900     78.3900
     36      0.7370      9.7910     12.0730      1.5900     78.3900
     37      1.6520     10.6540     11.3710      1.7700     78.3900
     38      2.6560     10.1960     11.2680      0.0100     78.3900
     39      1.7810     11.6030     11.9350      0.0100     78.3900
     40      1.1460     10.9920      9.9630      1.7700     78.3900
     41      1.8760     11.6540      9.4500      0.0100     78.3900
     42      1.0170      9.7990      9.1380      1.5900     78.3900
     43     -0.1650      9.8730      8.3660      1.7700     78.3900
     44      0.1680      9.7110      7.3140      0.0100     78.3900
     45     -1.1580      8.8160      8.7000      1.6800     78.3900
     46     -1.0940      8.1240      9.8890      1.7700     78.3900
     47     -0.2970      8.4190     10.5710      0.0100     78.3900
     48     -1.9580      7.1390     10.1710      1.7700     78.3900
     49     -1.9070      6.5580     11.0880      0.0100     78.3900
     50     -2.1490      8.5030      7.7780      1.7700     78.3900
     51     -2.2000      9.1290      6.7090      1.5900     78.3900
     52     -3.0270      7.5200      8.0490      1.6800     78.3900
     53     -2.9460      6.8270      9.1950      1.7700     78.3900
     54     -3.8150      5.8430      9.3990      1.6800     78.3900
     55     -4.5310      5.7230      8.7090      0.0100     78.3900
     56     -3.8450      5.3160     10.2490      0.0100     78.3900
     57     -0.7030     11.2810      8.5030      1.7700     78.3900
     58     -1.8080     11.3320      8.4270      0.0100     78.3900
     59     -0.1120     12.0930      7.5020      1.5900     78.3900
     60      0.8390     12.1530      7.6740      0.0100     78.3900
     61     -0.2240     11.6590      9.9060      1.7700     78.3900
     62     -0.8490     11.1430     10.6730      0.0100     78.3900
     63     -0.0680     13.0790     10.1500      1.5900     78.3900
     64     -1.2360     13.8380     10.8770      2.1000     78.3900
     65     -0.8110     15.2470     11.0630      1.5900     78.3900
     66     -1.5740     13.0990     12.1130      1.5900     78.3900
     67     -2.4350     13.7220      9.8750      1.5900     78.3900
     68     -2.3630     14.3530      8.5790      1.7700     78.3900
     69     -1.4920     13.9970      7.9900      0.0100     78.3900
     70     -2.2630     15.4560      8.7000      0.0100     78.3900
     71     -3.6330     14.0760      7.7700      1.7700     78.3900
     72     -3.6610     14.7000      6.8560      0.0100     78.3900
     73     -3.6830     12.6910      7.3310      1.5900     78.3900
     74     -5.0300     12.2420      7.3280      1.7700     78.3900
     75     -5.2440     11.9860      6.2650      0.0100     78.3900
     76     -5.2050     11.0440      8.1850      1.6800     78.3900
     77     -4.4000     10.8580      9.2880      1.7700     78.3900
     78     -3.6520     11.6360      9.4550      0.0100     78.3900
     79     -6.2070     10.1500      7.8830      1.7700     78.3900
     80     -6.9780     10.3040      6.9400      1.5900     78.3900
     81     -6.2680      9.0580      8.7060      1.6800     78.3900
     82     -7.0100      8.4050      8.5180      0.0100     78.3900
     83     -5.5120      8.8090      9.8280      1.7700     78.3900
     84     -5.7270      7.8080     10.5090      1.5900     78.3900
     85     -4.5020      9.7880     10.0880      1.7700     78.3900
     86     -3.8340      9.6360     10.9300      0.0100     78.3900
     87     -5.9110     13.4100      7.7580      1.7700     78.3900
     88     -6.7550     13.0950      8.4100      0.0100     78.3900
     89     -6.4110     14.0660      6.6080      1.5900     78.3900
     90     -7.2750     13.6600      6.4020      0.0100     78.3900
     91     -4.9310     14.2680      8.5470      1.7700     78.3900
     92     -4.7860     13.7970      9.5490      0.0100     78.3900
     93     -5.2490     15.6740      8.6150      1.5900     78.3900
     94     -5.8270     16.2560      9.9500      2.1000     78.3900
     95     -6.1080     17.6930      9.7400      1.5900     78.3900
     96     -4.9550     15.9130     11.0910      1.5900     78.3900
     97     -7.1890     15.4910     10.1040      1.5900     78.3900
     98     -8.1080     15.8120     11.1700      1.7700     78.3900
     99     -7.9150     16.8130     11.6270      0.0100     78.3900
    100     -8.0060     15.0550     11.9810      0.0100     78.3900
    101     -9.5550     15.8010     10.6720      1.7700     78.3900
    102    -10.2670     15.8920     11.5180      0.0100     78.3900
    103     -9.7680     16.9680      9.8240      1.5900     78.3900
    104    -10.5860     16.6130      8.7230      1.7700     78.3900
    105    -11.4490     17.3170      8.7220      0.0100     78.3900
    106     -9.8470     16.7550      7.4570      1.6800     78.3900
    107     -9.2940     17.1350      5.3610      1.7700     78.3900
    108     -8.1050     16.9440      6.0440      1.6800     78.3900
    109     -8.4840     16.7090      7.2740      1.7700     78.3900
    110     -7.8090     16.5100      8.1010      0.0100     78.3900
    111    -10.8700     17.5780      3.6550      1.6800     78.3900
    112    -11.8120     17.4080      4.5880      1.7700     78.3900
    113    -12.8450     17.5310      4.2370      0.0100     78.3900
    114    -11.6730     17.1280      5.8910      1.6800     78.3900
    115    -10.3750     17.0180      6.2170      1.7700     78.3900
    116     -9.5680     17.4370      4.0100      1.7700     78.3900
    117     -8.6020     17.5780      3.0820      1.6800     78.3900
    118     -7.6480     17.3640      3.2970      0.0100     78.3900
    119     -8.8610     17.6390      2.1170      0.0100     78.3900
    120    -11.0920     15.2050      8.9570      1.7700     78.3900
    121    -11.2160     14.6500      8.0090      0.0100     78.3900
    122    -12.3260     15.2280      9.6530      1.5900     78.3900
    123    -12.5420     14.3040      9.8530      0.0100     78.3900
    124     -9.9770     14.5990      9.8050      1.7700     78.3900
    125     -9.1160     14.3380      9.1450      0.0100     78.3900
    126    -10.4110     13.5060     10.6390      1.5900     78.3900
    127     -9.7100     12.1010     10.6640      2.1000     78.3900
    128     -9.8850     11.5360     12.0200      1.5900     78.3900
    129     -8.3230     12.2010     10.1630      1.5900     78.3900
    130    -10.5580     11.2460      9.6520      1.5900     78.3900
    131    -11.9480     10.9310      9.8830      1.7700     78.3900
    132    -12.3990     11.5470     10.6990      0.0100     78.3900
    133    -12.0350      9.8650     10.1840      0.0100     78.3900
    134    -12.8050     11.1360      8.6220      1.7700     78.3900
    135    -13.8860     11.0440      8.8650      0.0100     78.3900
    136    -12.5870     12.4740      8.0820      1.5900     78.3900
    137    -12.5440     12.4140      6.6700      1.7700     78.3900
    138    -13.2880     13.1540      6.2930      0.0100     78.3900
    139    -11.2130     12.7730      6.1650      1.6800     78.3900
    140     -9.5730     13.5810      4.9490      1.7700     78.3900
    141     -8.9930     13.0940      6.1060      1.6800     78.3900
    142     -9.9940     12.6090      6.7840      1.7700     78.3900
    143     -9.8840     12.1390      7.7550      0.0100     78.3900
    144     -9.8770     14.5030      2.8030      1.6800     78.3900
    145    -11.1790     14.2570      2.9650      1.7700     78.3900
    146    -11.8150     14.5680      2.1300      0.0100     78.3900
    147    -11.8220     13.7290      4.0140      1.6800     78.3900
    148    -10.9430     13.3890      4.9700      1.7700     78.3900
    149     -9.0210     14.1750      3.7990      1.7700     78.3900
    150     -7.7050     14.4340      3.6630      1.6800     78.3900
    151     -7.0670     14.3820      4.4320      0.0100     78.3900
    152     -7.3680     14.8190      2.8000      0.0100     78.3900
    153    -12.9670     11.0240      6.2680      1.7700     78.3900
    154    -12.4860     10.6890      5.3290      0.0100     78.3900
    155    -14.3760     10.9820      6.1460      1.5900     78.3900
    156    -14.6250     10.0500      6.1140      0.0100     78.3900
    157    -12.4910     10.1900      7.4530      1.7700     78.3900
    158    -11.3840     10.0660      7.4330      0.0100     78.3900
    159    -13.1970      8.9400      7.6240      1.5900     78.3900
    160    -12.5870      7.6210      7.0120      2.1000     78.3900
    161    -13.4370      6.4720      7.3960      1.5900     78.3900
    162    -11.1590      7.5470      7.3810      1.5900     78.3900
    163    -12.6880      7.8230      5.4660      1.5900     78.3900
    164    -13.9220      7.9360      4.7400      1.7700     78.3900
    165    -14.6090      8.6650      5.2130      0.0100     78.3900
    166    -14.4480      6.9550      4.7250      0.0100     78.3900
    167    -13.6570      8.3620      3.2870      1.7700     78.3900
    168    -14.5960      8.3580      2.6960      0.0100     78.3900
    169    -13.1310      9.7190      3.2530      1.5900     78.3900
    170    -12.1390      9.8210      2.2460      1.7700     78.3900
    171    -12.4940     10.6290      1.5640      0.0100     78.3900
    172    -10.8000     10.1790      2.8000      1.6800     78.3900
    173    -10.3950      9.6420      4.0010      1.7700     78.3900
    174    -11.1040      8.9830      4.4880      0.0100     78.3900
    175     -9.2180      9.9510      4.5520      1.7700     78.3900
    176     -8.9060      9.5670      5.5230      0.0100     78.3900
    177     -9.9270     11.0040      2.0910      1.7700     78.3900
    178    -10.2710     11.4540      0.9870      1.5900     78.3900
    179     -8.7210     11.3080      2.6250      1.6800     78.3900
    180     -8.3660     10.8300      3.8270      1.7700     78.3900
    181     -7.2120     11.2110      4.3530      1.6800     78.3900
    182     -7.0120     10.9540      5.3050      0.0100     78.3900
    183     -6.6660     11.9030      3.8860      0.0100     78.3900
    184    -12.1310      8.5120      1.4820      1.7700     78.3900
    185    -11.1250      8.2760      1.1090      0.0100     78.3900
    186    -13.0120      8.5550      0.3810      1.5900     78.3900
    187    -13.0330      7.6580      0.0100      0.0100     78.3900
    188    -12.6080      7.5170      2.5420      1.7700     78.3900
    189    -11.7780      7.2980      3.2530      0.0100     78.3900
    190    -13.2280      6.3090      2.0410      1.5900     78.3900
    191    -12.3080      5.1170      1.5750      2.1000     78.3900
    192    -13.1710      4.0560      1.0090      1.5900     78.3900
    193    -11.4130      4.7280      2.6850      1.5900     78.3900
    194    -11.4710      5.7150      0.3780      1.5900     78.3900
    195    -10.1250      5.2380      0.1080      1.7700     78.3900
    196    -10.0990      4.8050     -0.9170      0.0100     78.3900
    197     -9.7950      4.4280      0.8020      0.0100     78.3900
    198     -9.0760      6.3570      0.1610      1.7700     78.3900
    199     -9.2470      7.0540     -0.6860      0.0100     78.3900
    200     -9.2050      7.1290      1.3780      1.5900     78.3900
    201     -7.9380      7.5750      1.7990      1.7700     78.3900
    202     -7.9970      8.6830      1.8960      0.0100     78.3900
    203     -7.5880      6.9990      3.0890      1.6800     78.3900
    204     -6.5490      7.3870      3.8840      1.7700     78.3900
    205     -3.8060      9.4130      4.4840      1.6800     78.3900
    206     -3.7240      9.9630      3.6560      0.0100     78.3900
    207     -3.1170      9.4920      5.2110      0.0100     78.3900
    208     -5.6690      8.3650      3.6120      1.6800     78.3900
    209     -4.7620      8.5100      4.5750      1.7700     78.3900
    210     -4.7680      7.7580      5.7210      1.6800     78.3900
    211     -4.0370      7.9000      6.4010      0.0100     78.3900
    212     -5.6730      6.7520      6.0320      1.7700     78.3900
    213     -5.6260      6.1160      7.0890      1.5900     78.3900
    214     -6.6190      6.5740      4.9960      1.7700     78.3900
    215     -7.6760      5.6800      4.8960      1.6800     78.3900
    216     -8.2340      5.9730      3.7470      1.7700     78.3900
    217     -9.1200      5.4890      3.3240      0.0100     78.3900
    218     -6.9590      7.2010      0.7210      1.7700     78.3900
    219     -5.9340      7.0130      1.1040      0.0100     78.3900
    220     -6.9290      8.2480     -0.2300      1.5900     78.3900
    221     -7.7870      8.3080     -0.6720      0.0100     78.3900
    222     -7.6010      5.9310      0.1620      1.7700     78.3900
    223     -7.5000      5.0870      0.8840      0.0100     78.3900
    224     -7.1960      5.5650     -1.1680      1.5900     78.3900
    225     -5.8800      4.7350     -1.4270      2.1000     78.3900
    226     -5.8950      3.5110     -0.5910      1.5900     78.3900
    227     -5.7310      4.5330     -2.8840      1.5900     78.3900
    228     -4.6670      5.6170     -0.9730      1.5900     78.3900
    229     -4.3810      6.8900     -1.5920      1.7700     78.3900
    230     -5.2740      7.5390     -1.6360      0.0100     78.3900
    231     -4.0740      6.7480     -2.6500      0.0100     78.3900
    232     -3.2680      7.6680     -0.8700      1.7700     78.3900
    233     -3.2600      8.7310     -1.2080      0.0100     78.3900
    234     -3.4150      7.6600      0.5810      1.5900     78.3900
    235     -2.3470      6.9440      1.1700      1.7700     78.3900
    236     -1.6520      7.7310      1.5450      0.0100     78.3900
    237     -2.8170      6.0650      2.2680      1.6800     78.3900
    238     -3.9300      5.2800      2.0900      1.7700     78.3900
    239     -4.4400      5.3980      1.1470      0.0100     78.3900
    240     -4.3690      4.4440      3.0400      1.7700     78.3900
    241     -5.2440      3.8070      2.9080      0.0100     78.3900
    242     -2.1210      6.0010      3.4600      1.7700     78.3900
    243     -1.1080      6.7020      3.6090      1.5900     78.3900
    244     -2.5450      5.1690      4.4320      1.6800     78.3900
    245     -3.6270      4.3940      4.2500      1.7700     78.3900
    246     -3.9900      3.5780      5.2330      1.6800     78.3900
    247     -3.4480      3.6330      6.0750      0.0100     78.3900
    248     -4.8000      2.9880      5.1930      0.0100     78.3900
    249     -1.6460      6.1640      0.0730      1.7700     78.3900
    250     -2.1390      5.1780     -0.0740      0.0100     78.3900
    251     -0.2590      5.9870      0.3290      1.5900     78.3900
    252      0.1600      6.8660      0.3570      0.0100     78.3900
    253     -1.9010      7.0410     -1.1540      1.7700     78.3900
    254     -2.0030      6.3840     -2.0460      0.0100     78.3900
    255     -0.8800      8.0230     -1.4070      1.5900     78.3900
    256     -0.0630      7.5630     -1.6610      0.0100     78.3900

     ----------------------------
     INPUT FOR TESSERA DEFINITION
     ----------------------------
     NTSALL  =        60     MTHALL  =         4
     MTHAUT  =         0     AUTFRE  =    2.0000
     NTSFRZ  =        60     KEEPSM  =         0
     AREAKP  =   10.0000     BONDRY  =    1.0000
     AREATL  =    0.0100

     SPHERE     INITS       METHOD
          1        60       FIXPVA
          2        60       FIXPVA
          3        60       FIXPVA
          4        60       FIXPVA
          5        60       FIXPVA
          6        60       FIXPVA
          7        60       FIXPVA
          8        60       FIXPVA
          9        60       FIXPVA
         10        60       FIXPVA
         11        60       FIXPVA
         12        60       FIXPVA
         13        60       FIXPVA
         14        60       FIXPVA
         15        60       FIXPVA
         16        60       FIXPVA
         17        60       FIXPVA
         18        60       FIXPVA
         19        60       FIXPVA
         20        60       FIXPVA
         21        60       FIXPVA
         22        60       FIXPVA
         23        60       FIXPVA
         24        60       FIXPVA
         25        60       FIXPVA
         26        60       FIXPVA
         27        60       FIXPVA
         28        60       FIXPVA
         29        60       FIXPVA
         30        60       FIXPVA
         31        60       FIXPVA
         32        60       FIXPVA
         33        60       FIXPVA
         34        60       FIXPVA
         35        60       FIXPVA
         36        60       FIXPVA
         37        60       FIXPVA
         38        60       FIXPVA
         39        60       FIXPVA
         40        60       FIXPVA
         41        60       FIXPVA
         42        60       FIXPVA
         43        60       FIXPVA
         44        60       FIXPVA
         45        60       FIXPVA
         46        60       FIXPVA
         47        60       FIXPVA
         48        60       FIXPVA
         49        60       FIXPVA
         50        60       FIXPVA
         51        60       FIXPVA
         52        60       FIXPVA
         53        60       FIXPVA
         54        60       FIXPVA
         55        60       FIXPVA
         56        60       FIXPVA
         57        60       FIXPVA
         58        60       FIXPVA
         59        60       FIXPVA
         60        60       FIXPVA
         61        60       FIXPVA
         62        60       FIXPVA
         63        60       FIXPVA
         64        60       FIXPVA
         65        60       FIXPVA
         66        60       FIXPVA
         67        60       FIXPVA
         68        60       FIXPVA
         69        60       FIXPVA
         70        60       FIXPVA
         71        60       FIXPVA
         72        60       FIXPVA
         73        60       FIXPVA
         74        60       FIXPVA
         75        60       FIXPVA
         76        60       FIXPVA
         77        60       FIXPVA
         78        60       FIXPVA
         79        60       FIXPVA
         80        60       FIXPVA
         81        60       FIXPVA
         82        60       FIXPVA
         83        60       FIXPVA
         84        60       FIXPVA
         85        60       FIXPVA
         86        60       FIXPVA
         87        60       FIXPVA
         88        60       FIXPVA
         89        60       FIXPVA
         90        60       FIXPVA
         91        60       FIXPVA
         92        60       FIXPVA
         93        60       FIXPVA
         94        60       FIXPVA
         95        60       FIXPVA
         96        60       FIXPVA
         97        60       FIXPVA
         98        60       FIXPVA
         99        60       FIXPVA
        100        60       FIXPVA
        101        60       FIXPVA
        102        60       FIXPVA
        103        60       FIXPVA
        104        60       FIXPVA
        105        60       FIXPVA
        106        60       FIXPVA
        107        60       FIXPVA
        108        60       FIXPVA
        109        60       FIXPVA
        110        60       FIXPVA
        111        60       FIXPVA
        112        60       FIXPVA
        113        60       FIXPVA
        114        60       FIXPVA
        115        60       FIXPVA
        116        60       FIXPVA
        117        60       FIXPVA
        118        60       FIXPVA
        119        60       FIXPVA
        120        60       FIXPVA
        121        60       FIXPVA
        122        60       FIXPVA
        123        60       FIXPVA
        124        60       FIXPVA
        125        60       FIXPVA
        126        60       FIXPVA
        127        60       FIXPVA
        128        60       FIXPVA
        129        60       FIXPVA
        130        60       FIXPVA
        131        60       FIXPVA
        132        60       FIXPVA
        133        60       FIXPVA
        134        60       FIXPVA
        135        60       FIXPVA
        136        60       FIXPVA
        137        60       FIXPVA
        138        60       FIXPVA
        139        60       FIXPVA
        140        60       FIXPVA
        141        60       FIXPVA
        142        60       FIXPVA
        143        60       FIXPVA
        144        60       FIXPVA
        145        60       FIXPVA
        146        60       FIXPVA
        147        60       FIXPVA
        148        60       FIXPVA
        149        60       FIXPVA
        150        60       FIXPVA
        151        60       FIXPVA
        152        60       FIXPVA
        153        60       FIXPVA
        154        60       FIXPVA
        155        60       FIXPVA
        156        60       FIXPVA
        157        60       FIXPVA
        158        60       FIXPVA
        159        60       FIXPVA
        160        60       FIXPVA
        161        60       FIXPVA
        162        60       FIXPVA
        163        60       FIXPVA
        164        60       FIXPVA
        165        60       FIXPVA
        166        60       FIXPVA
        167        60       FIXPVA
        168        60       FIXPVA
        169        60       FIXPVA
        170        60       FIXPVA
        171        60       FIXPVA
        172        60       FIXPVA
        173        60       FIXPVA
        174        60       FIXPVA
        175        60       FIXPVA
        176        60       FIXPVA
        177        60       FIXPVA
        178        60       FIXPVA
        179        60       FIXPVA
        180        60       FIXPVA
        181        60       FIXPVA
        182        60       FIXPVA
        183        60       FIXPVA
        184        60       FIXPVA
        185        60       FIXPVA
        186        60       FIXPVA
        187        60       FIXPVA
        188        60       FIXPVA
        189        60       FIXPVA
        190        60       FIXPVA
        191        60       FIXPVA
        192        60       FIXPVA
        193        60       FIXPVA
        194        60       FIXPVA
        195        60       FIXPVA
        196        60       FIXPVA
        197        60       FIXPVA
        198        60       FIXPVA
        199        60       FIXPVA
        200        60       FIXPVA
        201        60       FIXPVA
        202        60       FIXPVA
        203        60       FIXPVA
        204        60       FIXPVA
        205        60       FIXPVA
        206        60       FIXPVA
        207        60       FIXPVA
        208        60       FIXPVA
        209        60       FIXPVA
        210        60       FIXPVA
        211        60       FIXPVA
        212        60       FIXPVA
        213        60       FIXPVA
        214        60       FIXPVA
        215        60       FIXPVA
        216        60       FIXPVA
        217        60       FIXPVA
        218        60       FIXPVA
        219        60       FIXPVA
        220        60       FIXPVA
        221        60       FIXPVA
        222        60       FIXPVA
        223        60       FIXPVA
        224        60       FIXPVA
        225        60       FIXPVA
        226        60       FIXPVA
        227        60       FIXPVA
        228        60       FIXPVA
        229        60       FIXPVA
        230        60       FIXPVA
        231        60       FIXPVA
        232        60       FIXPVA
        233        60       FIXPVA
        234        60       FIXPVA
        235        60       FIXPVA
        236        60       FIXPVA
        237        60       FIXPVA
        238        60       FIXPVA
        239        60       FIXPVA
        240        60       FIXPVA
        241        60       FIXPVA
        242        60       FIXPVA
        243        60       FIXPVA
        244        60       FIXPVA
        245        60       FIXPVA
        246        60       FIXPVA
        247        60       FIXPVA
        248        60       FIXPVA
        249        60       FIXPVA
        250        60       FIXPVA
        251        60       FIXPVA
        252        60       FIXPVA
        253        60       FIXPVA
        254        60       FIXPVA
        255        60       FIXPVA
        256        60       FIXPVA

     ------------------------------
      FIXPVA TESSELLATION FOR PCM
         PEIFENG SU AND HUI LI
     UNIVERSITY OF NEBRASKA-LINCOLN
     ------------------------------


 PCM DIMENSIONS: MXSP=   256, MXTS=     10240, MEMORY=        105219

     INPUT FOR CAVITY DEFINITION 
     ---------------------------
   ATOM               COORDINATES                RADIUS       EPS
      1      1.2060      3.7730     14.1100      0.0100     78.3900
      2      1.3110      4.5410     13.5180      1.5900     78.3900
      3      2.6630      4.9900     13.6810      1.7700     78.3900
      4      3.3430      4.1090     13.6930      0.0100     78.3900
      5      2.7420      5.4950     14.6700      0.0100     78.3900
      6      3.1280      5.9610     12.5930      1.7700     78.3900
      7      4.1100      6.4070     12.8680      0.0100     78.3900
      8      3.3190      5.2410     11.3350      1.5900     78.3900
      9      2.7590      5.9950     10.2710      1.7700     78.3900
     10      3.5070      6.0310      9.4490      0.0100     78.3900
     11      1.5180      5.3800      9.7730      1.6800     78.3900
     12      0.9160      5.6020      8.5650      1.7700     78.3900
     13      0.8510      7.1360      5.4670      1.6800     78.3900
     14      1.6560      7.7300      5.4720      0.0100     78.3900
     15      0.2430      7.1160      4.6680      0.0100     78.3900
     16      1.3600      6.4240      7.5990      1.6800     78.3900
     17      0.5730      6.4020      6.5260      1.7700     78.3900
     18     -0.5330      5.5990      6.4240      1.6800     78.3900
     19     -1.1040      5.6620      5.5940      0.0100     78.3900
     20     -1.0150      4.7420      7.4030      1.7700     78.3900
     21     -2.0200      4.0360      7.2530      1.5900     78.3900
     22     -0.1960      4.7780      8.5520      1.7700     78.3900
     23     -0.3040      4.0690      9.7330      1.6800     78.3900
     24      0.7380      4.4490     10.4220      1.7700     78.3900
     25      1.0110      4.0510     11.3950      0.0100     78.3900
     26      2.5300      7.3840     10.8070      1.7700     78.3900
     27      1.7140      7.9050     10.2770      0.0100     78.3900
     28      3.7340      8.1310     10.7190      1.5900     78.3900
     29      4.4020      7.7290     11.2950      0.0100     78.3900
     30      2.1410      7.0890     12.2520      1.7700     78.3900
     31      1.1110      6.6650     12.2890      0.0100     78.3900
     32      2.3140      8.1810     13.1750      1.5900     78.3900
     33      1.1250      9.1710     13.4700      2.1000     78.3900
     34      1.6330     10.2320     14.3730      1.5900     78.3900
     35     -0.0460      8.3970     13.9380      1.5900     78.3900
     36      0.7370      9.7910     12.0730      1.5900     78.3900
     37      1.6520     10.6540     11.3710      1.7700     78.3900
     38      2.6560     10.1960     11.2680      0.0100     78.3900
     39      1.7810     11.6030     11.9350      0.0100     78.3900
     40      1.1460     10.9920      9.9630      1.7700     78.3900
     41      1.8760     11.6540      9.4500      0.0100     78.3900
     42      1.0170      9.7990      9.1380      1.5900     78.3900
     43     -0.1650      9.8730      8.3660      1.7700     78.3900
     44      0.1680      9.7110      7.3140      0.0100     78.3900
     45     -1.1580      8.8160      8.7000      1.6800     78.3900
     46     -1.0940      8.1240      9.8890      1.7700     78.3900
     47     -0.2970      8.4190     10.5710      0.0100     78.3900
     48     -1.9580      7.1390     10.1710      1.7700     78.3900
     49     -1.9070      6.5580     11.0880      0.0100     78.3900
     50     -2.1490      8.5030      7.7780      1.7700     78.3900
     51     -2.2000      9.1290      6.7090      1.5900     78.3900
     52     -3.0270      7.5200      8.0490      1.6800     78.3900
     53     -2.9460      6.8270      9.1950      1.7700     78.3900
     54     -3.8150      5.8430      9.3990      1.6800     78.3900
     55     -4.5310      5.7230      8.7090      0.0100     78.3900
     56     -3.8450      5.3160     10.2490      0.0100     78.3900
     57     -0.7030     11.2810      8.5030      1.7700     78.3900
     58     -1.8080     11.3320      8.4270      0.0100     78.3900
     59     -0.1120     12.0930      7.5020      1.5900     78.3900
     60      0.8390     12.1530      7.6740      0.0100     78.3900
     61     -0.2240     11.6590      9.9060      1.7700     78.3900
     62     -0.8490     11.1430     10.6730      0.0100     78.3900
     63     -0.0680     13.0790     10.1500      1.5900     78.3900
     64     -1.2360     13.8380     10.8770      2.1000     78.3900
     65     -0.8110     15.2470     11.0630      1.5900     78.3900
     66     -1.5740     13.0990     12.1130      1.5900     78.3900
     67     -2.4350     13.7220      9.8750      1.5900     78.3900
     68     -2.3630     14.3530      8.5790      1.7700     78.3900
     69     -1.4920     13.9970      7.9900      0.0100     78.3900
     70     -2.2630     15.4560      8.7000      0.0100     78.3900
     71     -3.6330     14.0760      7.7700      1.7700     78.3900
     72     -3.6610     14.7000      6.8560      0.0100     78.3900
     73     -3.6830     12.6910      7.3310      1.5900     78.3900
     74     -5.0300     12.2420      7.3280      1.7700     78.3900
     75     -5.2440     11.9860      6.2650      0.0100     78.3900
     76     -5.2050     11.0440      8.1850      1.6800     78.3900
     77     -4.4000     10.8580      9.2880      1.7700     78.3900
     78     -3.6520     11.6360      9.4550      0.0100     78.3900
     79     -6.2070     10.1500      7.8830      1.7700     78.3900
     80     -6.9780     10.3040      6.9400      1.5900     78.3900
     81     -6.2680      9.0580      8.7060      1.6800     78.3900
     82     -7.0100      8.4050      8.5180      0.0100     78.3900
     83     -5.5120      8.8090      9.8280      1.7700     78.3900
     84     -5.7270      7.8080     10.5090      1.5900     78.3900
     85     -4.5020      9.7880     10.0880      1.7700     78.3900
     86     -3.8340      9.6360     10.9300      0.0100     78.3900
     87     -5.9110     13.4100      7.7580      1.7700     78.3900
     88     -6.7550     13.0950      8.4100      0.0100     78.3900
     89     -6.4110     14.0660      6.6080      1.5900     78.3900
     90     -7.2750     13.6600      6.4020      0.0100     78.3900
     91     -4.9310     14.2680      8.5470      1.7700     78.3900
     92     -4.7860     13.7970      9.5490      0.0100     78.3900
     93     -5.2490     15.6740      8.6150      1.5900     78.3900
     94     -5.8270     16.2560      9.9500      2.1000     78.3900
     95     -6.1080     17.6930      9.7400      1.5900     78.3900
     96     -4.9550     15.9130     11.0910      1.5900     78.3900
     97     -7.1890     15.4910     10.1040      1.5900     78.3900
     98     -8.1080     15.8120     11.1700      1.7700     78.3900
     99     -7.9150     16.8130     11.6270      0.0100     78.3900
    100     -8.0060     15.0550     11.9810      0.0100     78.3900
    101     -9.5550     15.8010     10.6720      1.7700     78.3900
    102    -10.2670     15.8920     11.5180      0.0100     78.3900
    103     -9.7680     16.9680      9.8240      1.5900     78.3900
    104    -10.5860     16.6130      8.7230      1.7700     78.3900
    105    -11.4490     17.3170      8.7220      0.0100     78.3900
    106     -9.8470     16.7550      7.4570      1.6800     78.3900
    107     -9.2940     17.1350      5.3610      1.7700     78.3900
    108     -8.1050     16.9440      6.0440      1.6800     78.3900
    109     -8.4840     16.7090      7.2740      1.7700     78.3900
    110     -7.8090     16.5100      8.1010      0.0100     78.3900
    111    -10.8700     17.5780      3.6550      1.6800     78.3900
    112    -11.8120     17.4080      4.5880      1.7700     78.3900
    113    -12.8450     17.5310      4.2370      0.0100     78.3900
    114    -11.6730     17.1280      5.8910      1.6800     78.3900
    115    -10.3750     17.0180      6.2170      1.7700     78.3900
    116     -9.5680     17.4370      4.0100      1.7700     78.3900
    117     -8.6020     17.5780      3.0820      1.6800     78.3900
    118     -7.6480     17.3640      3.2970      0.0100     78.3900
    119     -8.8610     17.6390      2.1170      0.0100     78.3900
    120    -11.0920     15.2050      8.9570      1.7700     78.3900
    121    -11.2160     14.6500      8.0090      0.0100     78.3900
    122    -12.3260     15.2280      9.6530      1.5900     78.3900
    123    -12.5420     14.3040      9.8530      0.0100     78.3900
    124     -9.9770     14.5990      9.8050      1.7700     78.3900
    125     -9.1160     14.3380      9.1450      0.0100     78.3900
    126    -10.4110     13.5060     10.6390      1.5900     78.3900
    127     -9.7100     12.1010     10.6640      2.1000     78.3900
    128     -9.8850     11.5360     12.0200      1.5900     78.3900
    129     -8.3230     12.2010     10.1630      1.5900     78.3900
    130    -10.5580     11.2460      9.6520      1.5900     78.3900
    131    -11.9480     10.9310      9.8830      1.7700     78.3900
    132    -12.3990     11.5470     10.6990      0.0100     78.3900
    133    -12.0350      9.8650     10.1840      0.0100     78.3900
    134    -12.8050     11.1360      8.6220      1.7700     78.3900
    135    -13.8860     11.0440      8.8650      0.0100     78.3900
    136    -12.5870     12.4740      8.0820      1.5900     78.3900
    137    -12.5440     12.4140      6.6700      1.7700     78.3900
    138    -13.2880     13.1540      6.2930      0.0100     78.3900
    139    -11.2130     12.7730      6.1650      1.6800     78.3900
    140     -9.5730     13.5810      4.9490      1.7700     78.3900
    141     -8.9930     13.0940      6.1060      1.6800     78.3900
    142     -9.9940     12.6090      6.7840      1.7700     78.3900
    143     -9.8840     12.1390      7.7550      0.0100     78.3900
    144     -9.8770     14.5030      2.8030      1.6800     78.3900
    145    -11.1790     14.2570      2.9650      1.7700     78.3900
    146    -11.8150     14.5680      2.1300      0.0100     78.3900
    147    -11.8220     13.7290      4.0140      1.6800     78.3900
    148    -10.9430     13.3890      4.9700      1.7700     78.3900
    149     -9.0210     14.1750      3.7990      1.7700     78.3900
    150     -7.7050     14.4340      3.6630      1.6800     78.3900
    151     -7.0670     14.3820      4.4320      0.0100     78.3900
    152     -7.3680     14.8190      2.8000      0.0100     78.3900
    153    -12.9670     11.0240      6.2680      1.7700     78.3900
    154    -12.4860     10.6890      5.3290      0.0100     78.3900
    155    -14.3760     10.9820      6.1460      1.5900     78.3900
    156    -14.6250     10.0500      6.1140      0.0100     78.3900
    157    -12.4910     10.1900      7.4530      1.7700     78.3900
    158    -11.3840     10.0660      7.4330      0.0100     78.3900
    159    -13.1970      8.9400      7.6240      1.5900     78.3900
    160    -12.5870      7.6210      7.0120      2.1000     78.3900
    161    -13.4370      6.4720      7.3960      1.5900     78.3900
    162    -11.1590      7.5470      7.3810      1.5900     78.3900
    163    -12.6880      7.8230      5.4660      1.5900     78.3900
    164    -13.9220      7.9360      4.7400      1.7700     78.3900
    165    -14.6090      8.6650      5.2130      0.0100     78.3900
    166    -14.4480      6.9550      4.7250      0.0100     78.3900
    167    -13.6570      8.3620      3.2870      1.7700     78.3900
    168    -14.5960      8.3580      2.6960      0.0100     78.3900
    169    -13.1310      9.7190      3.2530      1.5900     78.3900
    170    -12.1390      9.8210      2.2460      1.7700     78.3900
    171    -12.4940     10.6290      1.5640      0.0100     78.3900
    172    -10.8000     10.1790      2.8000      1.6800     78.3900
    173    -10.3950      9.6420      4.0010      1.7700     78.3900
    174    -11.1040      8.9830      4.4880      0.0100     78.3900
    175     -9.2180      9.9510      4.5520      1.7700     78.3900
    176     -8.9060      9.5670      5.5230      0.0100     78.3900
    177     -9.9270     11.0040      2.0910      1.7700     78.3900
    178    -10.2710     11.4540      0.9870      1.5900     78.3900
    179     -8.7210     11.3080      2.6250      1.6800     78.3900
    180     -8.3660     10.8300      3.8270      1.7700     78.3900
    181     -7.2120     11.2110      4.3530      1.6800     78.3900
    182     -7.0120     10.9540      5.3050      0.0100     78.3900
    183     -6.6660     11.9030      3.8860      0.0100     78.3900
    184    -12.1310      8.5120      1.4820      1.7700     78.3900
    185    -11.1250      8.2760      1.1090      0.0100     78.3900
    186    -13.0120      8.5550      0.3810      1.5900     78.3900
    187    -13.0330      7.6580      0.0100      0.0100     78.3900
    188    -12.6080      7.5170      2.5420      1.7700     78.3900
    189    -11.7780      7.2980      3.2530      0.0100     78.3900
    190    -13.2280      6.3090      2.0410      1.5900     78.3900
    191    -12.3080      5.1170      1.5750      2.1000     78.3900
    192    -13.1710      4.0560      1.0090      1.5900     78.3900
    193    -11.4130      4.7280      2.6850      1.5900     78.3900
    194    -11.4710      5.7150      0.3780      1.5900     78.3900
    195    -10.1250      5.2380      0.1080      1.7700     78.3900
    196    -10.0990      4.8050     -0.9170      0.0100     78.3900
    197     -9.7950      4.4280      0.8020      0.0100     78.3900
    198     -9.0760      6.3570      0.1610      1.7700     78.3900
    199     -9.2470      7.0540     -0.6860      0.0100     78.3900
    200     -9.2050      7.1290      1.3780      1.5900     78.3900
    201     -7.9380      7.5750      1.7990      1.7700     78.3900
    202     -7.9970      8.6830      1.8960      0.0100     78.3900
    203     -7.5880      6.9990      3.0890      1.6800     78.3900
    204     -6.5490      7.3870      3.8840      1.7700     78.3900
    205     -3.8060      9.4130      4.4840      1.6800     78.3900
    206     -3.7240      9.9630      3.6560      0.0100     78.3900
    207     -3.1170      9.4920      5.2110      0.0100     78.3900
    208     -5.6690      8.3650      3.6120      1.6800     78.3900
    209     -4.7620      8.5100      4.5750      1.7700     78.3900
    210     -4.7680      7.7580      5.7210      1.6800     78.3900
    211     -4.0370      7.9000      6.4010      0.0100     78.3900
    212     -5.6730      6.7520      6.0320      1.7700     78.3900
    213     -5.6260      6.1160      7.0890      1.5900     78.3900
    214     -6.6190      6.5740      4.9960      1.7700     78.3900
    215     -7.6760      5.6800      4.8960      1.6800     78.3900
    216     -8.2340      5.9730      3.7470      1.7700     78.3900
    217     -9.1200      5.4890      3.3240      0.0100     78.3900
    218     -6.9590      7.2010      0.7210      1.7700     78.3900
    219     -5.9340      7.0130      1.1040      0.0100     78.3900
    220     -6.9290      8.2480     -0.2300      1.5900     78.3900
    221     -7.7870      8.3080     -0.6720      0.0100     78.3900
    222     -7.6010      5.9310      0.1620      1.7700     78.3900
    223     -7.5000      5.0870      0.8840      0.0100     78.3900
    224     -7.1960      5.5650     -1.1680      1.5900     78.3900
    225     -5.8800      4.7350     -1.4270      2.1000     78.3900
    226     -5.8950      3.5110     -0.5910      1.5900     78.3900
    227     -5.7310      4.5330     -2.8840      1.5900     78.3900
    228     -4.6670      5.6170     -0.9730      1.5900     78.3900
    229     -4.3810      6.8900     -1.5920      1.7700     78.3900
    230     -5.2740      7.5390     -1.6360      0.0100     78.3900
    231     -4.0740      6.7480     -2.6500      0.0100     78.3900
    232     -3.2680      7.6680     -0.8700      1.7700     78.3900
    233     -3.2600      8.7310     -1.2080      0.0100     78.3900
    234     -3.4150      7.6600      0.5810      1.5900     78.3900
    235     -2.3470      6.9440      1.1700      1.7700     78.3900
    236     -1.6520      7.7310      1.5450      0.0100     78.3900
    237     -2.8170      6.0650      2.2680      1.6800     78.3900
    238     -3.9300      5.2800      2.0900      1.7700     78.3900
    239     -4.4400      5.3980      1.1470      0.0100     78.3900
    240     -4.3690      4.4440      3.0400      1.7700     78.3900
    241     -5.2440      3.8070      2.9080      0.0100     78.3900
    242     -2.1210      6.0010      3.4600      1.7700     78.3900
    243     -1.1080      6.7020      3.6090      1.5900     78.3900
    244     -2.5450      5.1690      4.4320      1.6800     78.3900
    245     -3.6270      4.3940      4.2500      1.7700     78.3900
    246     -3.9900      3.5780      5.2330      1.6800     78.3900
    247     -3.4480      3.6330      6.0750      0.0100     78.3900
    248     -4.8000      2.9880      5.1930      0.0100     78.3900
    249     -1.6460      6.1640      0.0730      1.7700     78.3900
    250     -2.1390      5.1780     -0.0740      0.0100     78.3900
    251     -0.2590      5.9870      0.3290      1.5900     78.3900
    252      0.1600      6.8660      0.3570      0.0100     78.3900
    253     -1.9010      7.0410     -1.1540      1.7700     78.3900
    254     -2.0030      6.3840     -2.0460      0.0100     78.3900
    255     -0.8800      8.0230     -1.4070      1.5900     78.3900
    256     -0.0630      7.5630     -1.6610      0.0100     78.3900

 CREATION OF A NEW CAVITY WITH THE ORIGINAL SPHERE
 SIZES FOR THE COMPUTATION OF THE CAVITATION ENERGY.

     INPUT FOR CAVITY DEFINITION 
     ---------------------------
   ATOM               COORDINATES                RADIUS       EPS
      1      1.2060      3.7730     14.1100      0.0100     78.3900
      2      1.3110      4.5410     13.5180      1.5900     78.3900
      3      2.6630      4.9900     13.6810      1.7700     78.3900
      4      3.3430      4.1090     13.6930      0.0100     78.3900
      5      2.7420      5.4950     14.6700      0.0100     78.3900
      6      3.1280      5.9610     12.5930      1.7700     78.3900
      7      4.1100      6.4070     12.8680      0.0100     78.3900
      8      3.3190      5.2410     11.3350      1.5900     78.3900
      9      2.7590      5.9950     10.2710      1.7700     78.3900
     10      3.5070      6.0310      9.4490      0.0100     78.3900
     11      1.5180      5.3800      9.7730      1.6800     78.3900
     12      0.9160      5.6020      8.5650      1.7700     78.3900
     13      0.8510      7.1360      5.4670      1.6800     78.3900
     14      1.6560      7.7300      5.4720      0.0100     78.3900
     15      0.2430      7.1160      4.6680      0.0100     78.3900
     16      1.3600      6.4240      7.5990      1.6800     78.3900
     17      0.5730      6.4020      6.5260      1.7700     78.3900
     18     -0.5330      5.5990      6.4240      1.6800     78.3900
     19     -1.1040      5.6620      5.5940      0.0100     78.3900
     20     -1.0150      4.7420      7.4030      1.7700     78.3900
     21     -2.0200      4.0360      7.2530      1.5900     78.3900
     22     -0.1960      4.7780      8.5520      1.7700     78.3900
     23     -0.3040      4.0690      9.7330      1.6800     78.3900
     24      0.7380      4.4490     10.4220      1.7700     78.3900
     25      1.0110      4.0510     11.3950      0.0100     78.3900
     26      2.5300      7.3840     10.8070      1.7700     78.3900
     27      1.7140      7.9050     10.2770      0.0100     78.3900
     28      3.7340      8.1310     10.7190      1.5900     78.3900
     29      4.4020      7.7290     11.2950      0.0100     78.3900
     30      2.1410      7.0890     12.2520      1.7700     78.3900
     31      1.1110      6.6650     12.2890      0.0100     78.3900
     32      2.3140      8.1810     13.1750      1.5900     78.3900
     33      1.1250      9.1710     13.4700      2.1000     78.3900
     34      1.6330     10.2320     14.3730      1.5900     78.3900
     35     -0.0460      8.3970     13.9380      1.5900     78.3900
     36      0.7370      9.7910     12.0730      1.5900     78.3900
     37      1.6520     10.6540     11.3710      1.7700     78.3900
     38      2.6560     10.1960     11.2680      0.0100     78.3900
     39      1.7810     11.6030     11.9350      0.0100     78.3900
     40      1.1460     10.9920      9.9630      1.7700     78.3900
     41      1.8760     11.6540      9.4500      0.0100     78.3900
     42      1.0170      9.7990      9.1380      1.5900     78.3900
     43     -0.1650      9.8730      8.3660      1.7700     78.3900
     44      0.1680      9.7110      7.3140      0.0100     78.3900
     45     -1.1580      8.8160      8.7000      1.6800     78.3900
     46     -1.0940      8.1240      9.8890      1.7700     78.3900
     47     -0.2970      8.4190     10.5710      0.0100     78.3900
     48     -1.9580      7.1390     10.1710      1.7700     78.3900
     49     -1.9070      6.5580     11.0880      0.0100     78.3900
     50     -2.1490      8.5030      7.7780      1.7700     78.3900
     51     -2.2000      9.1290      6.7090      1.5900     78.3900
     52     -3.0270      7.5200      8.0490      1.6800     78.3900
     53     -2.9460      6.8270      9.1950      1.7700     78.3900
     54     -3.8150      5.8430      9.3990      1.6800     78.3900
     55     -4.5310      5.7230      8.7090      0.0100     78.3900
     56     -3.8450      5.3160     10.2490      0.0100     78.3900
     57     -0.7030     11.2810      8.5030      1.7700     78.3900
     58     -1.8080     11.3320      8.4270      0.0100     78.3900
     59     -0.1120     12.0930      7.5020      1.5900     78.3900
     60      0.8390     12.1530      7.6740      0.0100     78.3900
     61     -0.2240     11.6590      9.9060      1.7700     78.3900
     62     -0.8490     11.1430     10.6730      0.0100     78.3900
     63     -0.0680     13.0790     10.1500      1.5900     78.3900
     64     -1.2360     13.8380     10.8770      2.1000     78.3900
     65     -0.8110     15.2470     11.0630      1.5900     78.3900
     66     -1.5740     13.0990     12.1130      1.5900     78.3900
     67     -2.4350     13.7220      9.8750      1.5900     78.3900
     68     -2.3630     14.3530      8.5790      1.7700     78.3900
     69     -1.4920     13.9970      7.9900      0.0100     78.3900
     70     -2.2630     15.4560      8.7000      0.0100     78.3900
     71     -3.6330     14.0760      7.7700      1.7700     78.3900
     72     -3.6610     14.7000      6.8560      0.0100     78.3900
     73     -3.6830     12.6910      7.3310      1.5900     78.3900
     74     -5.0300     12.2420      7.3280      1.7700     78.3900
     75     -5.2440     11.9860      6.2650      0.0100     78.3900
     76     -5.2050     11.0440      8.1850      1.6800     78.3900
     77     -4.4000     10.8580      9.2880      1.7700     78.3900
     78     -3.6520     11.6360      9.4550      0.0100     78.3900
     79     -6.2070     10.1500      7.8830      1.7700     78.3900
     80     -6.9780     10.3040      6.9400      1.5900     78.3900
     81     -6.2680      9.0580      8.7060      1.6800     78.3900
     82     -7.0100      8.4050      8.5180      0.0100     78.3900
     83     -5.5120      8.8090      9.8280      1.7700     78.3900
     84     -5.7270      7.8080     10.5090      1.5900     78.3900
     85     -4.5020      9.7880     10.0880      1.7700     78.3900
     86     -3.8340      9.6360     10.9300      0.0100     78.3900
     87     -5.9110     13.4100      7.7580      1.7700     78.3900
     88     -6.7550     13.0950      8.4100      0.0100     78.3900
     89     -6.4110     14.0660      6.6080      1.5900     78.3900
     90     -7.2750     13.6600      6.4020      0.0100     78.3900
     91     -4.9310     14.2680      8.5470      1.7700     78.3900
     92     -4.7860     13.7970      9.5490      0.0100     78.3900
     93     -5.2490     15.6740      8.6150      1.5900     78.3900
     94     -5.8270     16.2560      9.9500      2.1000     78.3900
     95     -6.1080     17.6930      9.7400      1.5900     78.3900
     96     -4.9550     15.9130     11.0910      1.5900     78.3900
     97     -7.1890     15.4910     10.1040      1.5900     78.3900
     98     -8.1080     15.8120     11.1700      1.7700     78.3900
     99     -7.9150     16.8130     11.6270      0.0100     78.3900
    100     -8.0060     15.0550     11.9810      0.0100     78.3900
    101     -9.5550     15.8010     10.6720      1.7700     78.3900
    102    -10.2670     15.8920     11.5180      0.0100     78.3900
    103     -9.7680     16.9680      9.8240      1.5900     78.3900
    104    -10.5860     16.6130      8.7230      1.7700     78.3900
    105    -11.4490     17.3170      8.7220      0.0100     78.3900
    106     -9.8470     16.7550      7.4570      1.6800     78.3900
    107     -9.2940     17.1350      5.3610      1.7700     78.3900
    108     -8.1050     16.9440      6.0440      1.6800     78.3900
    109     -8.4840     16.7090      7.2740      1.7700     78.3900
    110     -7.8090     16.5100      8.1010      0.0100     78.3900
    111    -10.8700     17.5780      3.6550      1.6800     78.3900
    112    -11.8120     17.4080      4.5880      1.7700     78.3900
    113    -12.8450     17.5310      4.2370      0.0100     78.3900
    114    -11.6730     17.1280      5.8910      1.6800     78.3900
    115    -10.3750     17.0180      6.2170      1.7700     78.3900
    116     -9.5680     17.4370      4.0100      1.7700     78.3900
    117     -8.6020     17.5780      3.0820      1.6800     78.3900
    118     -7.6480     17.3640      3.2970      0.0100     78.3900
    119     -8.8610     17.6390      2.1170      0.0100     78.3900
    120    -11.0920     15.2050      8.9570      1.7700     78.3900
    121    -11.2160     14.6500      8.0090      0.0100     78.3900
    122    -12.3260     15.2280      9.6530      1.5900     78.3900
    123    -12.5420     14.3040      9.8530      0.0100     78.3900
    124     -9.9770     14.5990      9.8050      1.7700     78.3900
    125     -9.1160     14.3380      9.1450      0.0100     78.3900
    126    -10.4110     13.5060     10.6390      1.5900     78.3900
    127     -9.7100     12.1010     10.6640      2.1000     78.3900
    128     -9.8850     11.5360     12.0200      1.5900     78.3900
    129     -8.3230     12.2010     10.1630      1.5900     78.3900
    130    -10.5580     11.2460      9.6520      1.5900     78.3900
    131    -11.9480     10.9310      9.8830      1.7700     78.3900
    132    -12.3990     11.5470     10.6990      0.0100     78.3900
    133    -12.0350      9.8650     10.1840      0.0100     78.3900
    134    -12.8050     11.1360      8.6220      1.7700     78.3900
    135    -13.8860     11.0440      8.8650      0.0100     78.3900
    136    -12.5870     12.4740      8.0820      1.5900     78.3900
    137    -12.5440     12.4140      6.6700      1.7700     78.3900
    138    -13.2880     13.1540      6.2930      0.0100     78.3900
    139    -11.2130     12.7730      6.1650      1.6800     78.3900
    140     -9.5730     13.5810      4.9490      1.7700     78.3900
    141     -8.9930     13.0940      6.1060      1.6800     78.3900
    142     -9.9940     12.6090      6.7840      1.7700     78.3900
    143     -9.8840     12.1390      7.7550      0.0100     78.3900
    144     -9.8770     14.5030      2.8030      1.6800     78.3900
    145    -11.1790     14.2570      2.9650      1.7700     78.3900
    146    -11.8150     14.5680      2.1300      0.0100     78.3900
    147    -11.8220     13.7290      4.0140      1.6800     78.3900
    148    -10.9430     13.3890      4.9700      1.7700     78.3900
    149     -9.0210     14.1750      3.7990      1.7700     78.3900
    150     -7.7050     14.4340      3.6630      1.6800     78.3900
    151     -7.0670     14.3820      4.4320      0.0100     78.3900
    152     -7.3680     14.8190      2.8000      0.0100     78.3900
    153    -12.9670     11.0240      6.2680      1.7700     78.3900
    154    -12.4860     10.6890      5.3290      0.0100     78.3900
    155    -14.3760     10.9820      6.1460      1.5900     78.3900
    156    -14.6250     10.0500      6.1140      0.0100     78.3900
    157    -12.4910     10.1900      7.4530      1.7700     78.3900
    158    -11.3840     10.0660      7.4330      0.0100     78.3900
    159    -13.1970      8.9400      7.6240      1.5900     78.3900
    160    -12.5870      7.6210      7.0120      2.1000     78.3900
    161    -13.4370      6.4720      7.3960      1.5900     78.3900
    162    -11.1590      7.5470      7.3810      1.5900     78.3900
    163    -12.6880      7.8230      5.4660      1.5900     78.3900
    164    -13.9220      7.9360      4.7400      1.7700     78.3900
    165    -14.6090      8.6650      5.2130      0.0100     78.3900
    166    -14.4480      6.9550      4.7250      0.0100     78.3900
    167    -13.6570      8.3620      3.2870      1.7700     78.3900
    168    -14.5960      8.3580      2.6960      0.0100     78.3900
    169    -13.1310      9.7190      3.2530      1.5900     78.3900
    170    -12.1390      9.8210      2.2460      1.7700     78.3900
    171    -12.4940     10.6290      1.5640      0.0100     78.3900
    172    -10.8000     10.1790      2.8000      1.6800     78.3900
    173    -10.3950      9.6420      4.0010      1.7700     78.3900
    174    -11.1040      8.9830      4.4880      0.0100     78.3900
    175     -9.2180      9.9510      4.5520      1.7700     78.3900
    176     -8.9060      9.5670      5.5230      0.0100     78.3900
    177     -9.9270     11.0040      2.0910      1.7700     78.3900
    178    -10.2710     11.4540      0.9870      1.5900     78.3900
    179     -8.7210     11.3080      2.6250      1.6800     78.3900
    180     -8.3660     10.8300      3.8270      1.7700     78.3900
    181     -7.2120     11.2110      4.3530      1.6800     78.3900
    182     -7.0120     10.9540      5.3050      0.0100     78.3900
    183     -6.6660     11.9030      3.8860      0.0100     78.3900
    184    -12.1310      8.5120      1.4820      1.7700     78.3900
    185    -11.1250      8.2760      1.1090      0.0100     78.3900
    186    -13.0120      8.5550      0.3810      1.5900     78.3900
    187    -13.0330      7.6580      0.0100      0.0100     78.3900
    188    -12.6080      7.5170      2.5420      1.7700     78.3900
    189    -11.7780      7.2980      3.2530      0.0100     78.3900
    190    -13.2280      6.3090      2.0410      1.5900     78.3900
    191    -12.3080      5.1170      1.5750      2.1000     78.3900
    192    -13.1710      4.0560      1.0090      1.5900     78.3900
    193    -11.4130      4.7280      2.6850      1.5900     78.3900
    194    -11.4710      5.7150      0.3780      1.5900     78.3900
    195    -10.1250      5.2380      0.1080      1.7700     78.3900
    196    -10.0990      4.8050     -0.9170      0.0100     78.3900
    197     -9.7950      4.4280      0.8020      0.0100     78.3900
    198     -9.0760      6.3570      0.1610      1.7700     78.3900
    199     -9.2470      7.0540     -0.6860      0.0100     78.3900
    200     -9.2050      7.1290      1.3780      1.5900     78.3900
    201     -7.9380      7.5750      1.7990      1.7700     78.3900
    202     -7.9970      8.6830      1.8960      0.0100     78.3900
    203     -7.5880      6.9990      3.0890      1.6800     78.3900
    204     -6.5490      7.3870      3.8840      1.7700     78.3900
    205     -3.8060      9.4130      4.4840      1.6800     78.3900
    206     -3.7240      9.9630      3.6560      0.0100     78.3900
    207     -3.1170      9.4920      5.2110      0.0100     78.3900
    208     -5.6690      8.3650      3.6120      1.6800     78.3900
    209     -4.7620      8.5100      4.5750      1.7700     78.3900
    210     -4.7680      7.7580      5.7210      1.6800     78.3900
    211     -4.0370      7.9000      6.4010      0.0100     78.3900
    212     -5.6730      6.7520      6.0320      1.7700     78.3900
    213     -5.6260      6.1160      7.0890      1.5900     78.3900
    214     -6.6190      6.5740      4.9960      1.7700     78.3900
    215     -7.6760      5.6800      4.8960      1.6800     78.3900
    216     -8.2340      5.9730      3.7470      1.7700     78.3900
    217     -9.1200      5.4890      3.3240      0.0100     78.3900
    218     -6.9590      7.2010      0.7210      1.7700     78.3900
    219     -5.9340      7.0130      1.1040      0.0100     78.3900
[...]
   204    7   6.0   0.00    0.0    0.000000    0.706149    0.710056
   205    7   7.0  10.31   20.2   -0.098418   -0.968373   -1.036945
   206    7   1.0   0.00    0.0    0.000000    0.441494    0.436323
   207    7   1.0   0.00    0.0    0.000000    0.467636    0.507128
   208    7   7.0   2.08    4.1    0.049711   -0.740407   -0.746345
   209    7   6.0   0.00    0.0    0.000000    0.978340    0.990074
   210    7   7.0   0.00    0.0    0.000000   -0.925573   -1.021868
   211    7   1.0   0.00    0.0    0.000000    0.480139    0.552093
   212    7   6.0   0.94    1.7    0.008444    0.872922    0.883698
   213    7   8.0   7.87   17.2    0.139358   -0.750142   -0.744870
   214    7   6.0   0.74    1.3    0.008685   -0.054859   -0.053645
   215    7   7.0  10.04   19.7    0.192314   -0.610154   -0.614777
   216    7   6.0   5.04    8.9    0.014917    0.256012    0.248034
   217    7   1.0   0.00    0.0    0.000000    0.303759    0.300589
   218    7   6.0   0.00    0.0    0.000000    0.119365    0.099617
   219    7   1.0   0.00    0.0    0.000000    0.238438    0.264184
   220    7   8.0  14.35   31.4   -0.002181   -0.844454   -0.836222
   221    7   1.0   0.00    0.0    0.000000    0.512339    0.513051
   222    7   6.0   1.83    3.2   -0.037098    0.152502    0.107149
   223    7   1.0   0.00    0.0    0.000000    0.237025    0.238097
   224    7   8.0   4.75   10.4    0.068538   -0.780000   -0.784889
   225    7  15.0   7.68    9.6    0.118788    1.590012    1.669858
   226    7   8.0  15.77   34.5    0.338076   -0.900439   -0.908002
   227    7   8.0  18.25   39.9    0.378272   -0.899778   -0.892382
   228    7   8.0   0.22    0.5    0.003506   -0.966649   -0.794601
   229    8   6.0  12.24   21.6   -0.050253    0.148764   -0.045252
   230    8   1.0   0.00    0.0    0.000000    0.237327    0.227894
   231    8   1.0   0.00    0.0    0.000000    0.228362    0.210168
   232    8   6.0   6.31   11.1   -0.045584    0.092785    0.130714
   233    8   1.0   0.00    0.0    0.000000    0.257201    0.232179
   234    8   8.0   3.17    6.9    0.056813   -0.714752   -0.723695
   235    8   6.0   3.14    5.5   -0.036176    0.427781    0.422812
   236    8   1.0   0.00    0.0    0.000000    0.246339    0.243105
   237    8   7.0   0.00    0.0   -0.000008   -0.806484   -0.825458
   238    8   6.0   2.83    5.0    0.003150    0.192142    0.166402
   239    8   1.0   0.00    0.0    0.000000    0.306617    0.336251
   240    8   6.0   8.24   14.5   -0.037195   -0.385634   -0.397666
   241    8   1.0   0.00    0.0    0.000000    0.266336    0.268974
   242    8   6.0   1.89    3.3    0.000343    1.048616    1.075991
   243    8   8.0   7.50   16.4    0.117956   -0.815978   -0.787504
   244    8   7.0   2.56    5.0    0.032235   -0.816744   -0.829546
   245    8   6.0   1.89    3.3   -0.000935    0.694508    0.715688
   246    8   7.0  16.94   33.2   -0.091667   -0.949233   -0.995291
   247    8   1.0   0.00    0.0    0.000000    0.466571    0.497568
   248    8   1.0   0.00    0.0    0.000000    0.447446    0.445212
   249    8   6.0   5.36    9.5   -0.043868    0.129454    0.131448
   250    8   1.0   0.00    0.0    0.000000    0.243107    0.240347
   251    8   8.0  19.04   41.6    0.034892   -0.840745   -0.842187
   252    8   1.0   0.00    0.0    0.000000    0.501986    0.501882
   253    8   6.0   7.08   12.5   -0.050167    0.122599    0.119868
   254    8   1.0   0.00    0.0    0.000000    0.213346    0.219454
   255    8   8.0  22.50   49.2    0.007094   -0.853678   -0.856970
   256    8   1.0   0.00    0.0    0.000000    0.505695    0.506081

 Done with FMO properties.
 CPU     0: STEP CPU TIME=     0.01 TOTAL CPU TIME=      12474.4 (    207.9 MIN)
 TOTAL WALL CLOCK TIME=      28910.2 SECONDS, CPU UTILIZATION IS    43.15%
 CPU     0: STEP CPU TIME=     0.00 TOTAL CPU TIME=      12474.4 (    207.9 MIN)
 TOTAL WALL CLOCK TIME=      28910.2 SECONDS, CPU UTILIZATION IS    43.15%

 Total timing statistics in pairs (CPU,wall) for each rank, sec

    Rank   total     SCF    corr     DFT    CPHF     EFP    solv     ESP    geom
 -------------------------------------------------------------------------------
       1   12474.4   3666.8   5009.4      0.0    0.0   0.0   83.9  3532.2    0.0
       1   28910.3   7998.4  13118.8      0.0    0.0   0.0  263.7  7093.7    0.0
       2   12550.5   3610.2   5170.7      0.0    0.0   0.0   84.8  3514.6    0.0
       2   28910.3   7974.2  13123.8      0.0    0.0   0.0  263.8  7093.4    0.0
       3   12340.8   3640.4   4921.0      0.0    0.0   0.0   85.2  3515.7    0.0
       3   28910.3   7974.4  13123.7      0.0    0.0   0.0  264.0  7093.3    0.0
       4   12254.5   3599.2   4871.0      0.0    0.0   0.0   84.6  3517.8    0.0
       4   28910.3   7974.8  13123.7      0.0    0.0   0.0  263.4  7093.2    0.0
       5   12675.4   3674.4   5252.7      0.0    0.0   0.0   84.4  3498.8    0.0
       5   28910.3   7974.6  13123.7      0.0    0.0   0.0  263.8  7093.4    0.0
       6   12083.7   3606.3   4726.6      0.0    0.0   0.0   84.0  3490.4    0.0
       6   28910.3   7974.9  13123.9      0.0    0.0   0.0  263.1  7093.3    0.0
       7   12422.4   3642.9   5017.4      0.0    0.0   0.0   84.3  3502.3    0.0
       7   28910.3   7974.7  13123.7      0.0    0.0   0.0  263.4  7093.3    0.0
       8   11734.9   3579.7   4440.5      0.0    0.0   0.0   84.1  3458.3    0.0
       8   28910.3   7974.9  13123.7      0.0    0.0   0.0  262.8  7093.3    0.0
       9   12216.9   3665.0   4838.7      0.0    0.0   0.0   83.2  3462.2    0.0
       9   28910.3   7975.4  13123.7      0.0    0.0   0.0  263.0  7093.2    0.0
      10   11977.1   3609.6   4603.9      0.0    0.0   0.0   83.6  3508.0    0.0
      10   28910.3   7975.5  13123.7      0.0    0.0   0.0  262.9  7093.2    0.0
      11   12433.0   3655.0   5013.9      0.0    0.0   0.0   83.0  3513.2    0.0
      11   28910.3   7976.3  13123.7      0.0    0.0   0.0  262.3  7093.1    0.0
      12   12005.2   3603.4   4687.0      0.0    0.0   0.0   83.1  3460.7    0.0
      12   28910.3   7976.0  13123.6      0.0    0.0   0.0  262.1  7093.0    0.0
      13   12251.7   3647.6   4913.4      0.0    0.0   0.0   82.9  3442.4    0.0
      13   28910.3   7976.2  13123.6      0.0    0.0   0.0  262.2  7093.1    0.0
      14   12143.4   3604.6   4842.0      0.0    0.0   0.0   83.3  3454.7    0.0
      14   28910.3   7976.1  13123.6      0.0    0.0   0.0  262.2  7092.9    0.0
      15   12060.9   3638.6   4769.2      0.0    0.0   0.0   82.7  3400.6    0.0
      15   28910.3   7976.1  13123.6      0.0    0.0   0.0  262.0  7093.0    0.0
      16   12155.5   3611.2   4800.2      0.0    0.0   0.0   82.8  3484.8    0.0
      16   28910.3   7976.6  13123.6      0.0    0.0   0.0  261.3  7093.0    0.0
averaged   12236.3   3628.4   4867.3      0.0    0.0   0.0   83.8  3484.8    0.0
averaged   28910.3   7976.8  13123.4      0.0    0.0   0.0  262.9  7093.2    0.0

  FMO  timing statistics in pairs (CPU,wall) for each rank, sec

    Rank  FMOini FMOscf1  FMOdm1 FMOsyn1 FMOscf2  FMOes2 FMOsyn2 FMOscf3 FMOsyn3
 -------------------------------------------------------------------------------
       1    1.6    4683.7    0.2    0.0    7661.1     127.7    0.0    0.0    0.0
       1    4.0   10059.0    0.4    0.1   18595.9     250.7    0.0    0.0    0.0
       2    1.2    4724.4    0.1    0.0    7706.1     118.8    0.0    0.0    0.0
       2    4.0   10059.0    0.4    0.1   18600.3     246.3    0.0    0.0    0.0
       3    1.3    4705.2    0.1    0.0    7508.3     125.9    0.0    0.0    0.0
       3    4.0   10059.0    0.4    0.1   18599.9     246.6    0.0    0.0    0.0
       4    1.2    4769.4    0.1    0.0    7353.7     130.1    0.0    0.0    0.0
       4    4.0   10059.0    0.4    0.1   18600.1     246.5    0.0    0.0    0.0
       5    1.4    4697.5    0.2    0.0    7863.8     112.4    0.0    0.0    0.0
       5    4.0   10059.0    0.4    0.1   18600.1     246.5    0.0    0.0    0.0
       6    1.2    4718.6    0.1    0.0    7238.0     125.8    0.0    0.0    0.0
       6    4.0   10059.0    0.4    0.1   18600.5     246.1    0.0    0.0    0.0
       7    1.3    4708.2    0.1    0.0    7589.3     123.4    0.0    0.0    0.0
       7    4.0   10059.0    0.4    0.0   18599.6     247.0    0.0    0.0    0.0
       8    1.1    4665.9    0.1    0.0    6945.9     121.9    0.0    0.0    0.0
       8    4.0   10059.0    0.4    0.0   18600.8     245.7    0.0    0.0    0.0
       9    1.4    4627.7    0.2    0.0    7471.7     115.9    0.0    0.0    0.0
       9    4.0   10059.0    0.4    0.1   18599.8     246.8    0.0    0.0    0.0
      10    1.1    4721.8    0.1    0.0    7132.8     121.4    0.0    0.0    0.0
      10    4.0   10059.0    0.4    0.1   18599.3     247.3    0.0    0.0    0.0
      11    1.2    4686.1    0.2    0.0    7628.1     117.4    0.0    0.0    0.0
      11    4.0   10059.0    0.4    0.1   18599.5     247.1    0.0    0.0    0.0
      12    1.1    4652.7    0.1    0.0    7229.9     121.4    0.0    0.0    0.0
      12    4.0   10059.0    0.4    0.1   18600.5     246.1    0.0    0.0    0.0
      13    1.3    4694.1    0.1    0.0    7441.7     114.4    0.0    0.0    0.0
      13    4.0   10059.0    0.4    0.1   18601.1     245.5    0.0    0.0    0.0
      14    1.1    4683.2    0.1    0.0    7350.6     108.4    0.0    0.0    0.0
      14    4.0   10059.0    0.4    0.0   18599.7     246.9    0.0    0.0    0.0
      15    1.2    4638.5    0.1    0.0    7301.6     119.5    0.0    0.0    0.0
      15    4.0   10059.0    0.4    0.0   18599.6     246.9    0.0    0.0    0.0
      16    1.1    4676.4    0.0    0.0    7350.6     127.4    0.0    0.0    0.0
      16    4.0   10059.0    0.4    0.0   18600.6     246.0    0.0    0.0    0.0
averaged    1.2    4690.8    0.1    0.0    7423.3     120.7    0.0    0.0    0.0
averaged    4.0   10059.0    0.4    0.0   18599.8     246.7    0.0    0.0    0.0
             62777869  WORDS OF DYNAMIC MEMORY USED
 EXECUTION OF GAMESS TERMINATED NORMALLY Fri Dec  6 20:14:33 2019
 DDI: 263640 bytes (0.3 MB / 0 MWords) used by master data server.

 ----------------------------------------
 CPU timing information for all processes
 ========================================
 0: 12163.551 + 310.819 = 12474.370
 1: 12257.733 + 292.792 = 12550.525
 2: 12047.683 + 293.118 = 12340.802
 3: 11974.410 + 280.104 = 12254.515
 4: 12354.470 + 320.905 = 12675.376
 5: 11806.70 + 277.680 = 12083.750
 6: 12139.863 + 282.563 = 12422.427
 7: 11481.379 + 253.544 = 11734.924
 8: 11937.250 + 279.674 = 12216.924
 9: 11718.107 + 259.49 = 11977.157
 10: 12151.344 + 281.631 = 12432.975
 11: 11742.119 + 263.104 = 12005.224
 12: 11957.299 + 294.437 = 12251.737
 13: 11870.702 + 272.744 = 12143.446
 14: 11785.105 + 275.798 = 12060.904
 15: 11878.893 + 276.662 = 12155.555
 ----------------------------------------
 ddikick.x: exited gracefully.
----- accounting info -----
Files used on the master node gollum056.lsa.umich.edu were:
-rw-r--r-- 1 hazwong frank    13386 Dec  6 12:12 /scratch/hazwong/822157/4A4R_6/usrc/4A4R_6_fmo_input.F05
-rw-r--r-- 1 hazwong frank      634 Dec  6 20:14 /scratch/hazwong/822157/4A4R_6/usrc/4A4R_6_fmo_input.F06.001
-rw-r--r-- 1 hazwong frank      634 Dec  6 20:14 /scratch/hazwong/822157/4A4R_6/usrc/4A4R_6_fmo_input.F06.002
-rw-r--r-- 1 hazwong frank      634 Dec  6 20:14 /scratch/hazwong/822157/4A4R_6/usrc/4A4R_6_fmo_input.F06.003
-rw-r--r-- 1 hazwong frank      634 Dec  6 20:14 /scratch/hazwong/822157/4A4R_6/usrc/4A4R_6_fmo_input.F06.004
-rw-r--r-- 1 hazwong frank      634 Dec  6 20:14 /scratch/hazwong/822157/4A4R_6/usrc/4A4R_6_fmo_input.F06.005
-rw-r--r-- 1 hazwong frank      634 Dec  6 20:14 /scratch/hazwong/822157/4A4R_6/usrc/4A4R_6_fmo_input.F06.006
-rw-r--r-- 1 hazwong frank      634 Dec  6 20:14 /scratch/hazwong/822157/4A4R_6/usrc/4A4R_6_fmo_input.F06.007
-rw-r--r-- 1 hazwong frank      634 Dec  6 20:14 /scratch/hazwong/822157/4A4R_6/usrc/4A4R_6_fmo_input.F06.008
-rw-r--r-- 1 hazwong frank      634 Dec  6 20:14 /scratch/hazwong/822157/4A4R_6/usrc/4A4R_6_fmo_input.F06.009
-rw-r--r-- 1 hazwong frank      634 Dec  6 20:14 /scratch/hazwong/822157/4A4R_6/usrc/4A4R_6_fmo_input.F06.010
-rw-r--r-- 1 hazwong frank      634 Dec  6 20:14 /scratch/hazwong/822157/4A4R_6/usrc/4A4R_6_fmo_input.F06.011
-rw-r--r-- 1 hazwong frank      634 Dec  6 20:14 /scratch/hazwong/822157/4A4R_6/usrc/4A4R_6_fmo_input.F06.012
-rw-r--r-- 1 hazwong frank      634 Dec  6 20:14 /scratch/hazwong/822157/4A4R_6/usrc/4A4R_6_fmo_input.F06.013
-rw-r--r-- 1 hazwong frank      634 Dec  6 20:14 /scratch/hazwong/822157/4A4R_6/usrc/4A4R_6_fmo_input.F06.014
-rw-r--r-- 1 hazwong frank      634 Dec  6 20:14 /scratch/hazwong/822157/4A4R_6/usrc/4A4R_6_fmo_input.F06.015
-rw-r--r-- 1 hazwong frank     6172 Dec  6 20:14 /scratch/hazwong/822157/4A4R_6/usrc/4A4R_6_fmo_input.F07
-rw-r--r-- 1 hazwong frank        0 Dec  6 12:12 /scratch/hazwong/822157/4A4R_6/usrc/4A4R_6_fmo_input.F07.001
-rw-r--r-- 1 hazwong frank        0 Dec  6 12:12 /scratch/hazwong/822157/4A4R_6/usrc/4A4R_6_fmo_input.F07.002
-rw-r--r-- 1 hazwong frank        0 Dec  6 12:12 /scratch/hazwong/822157/4A4R_6/usrc/4A4R_6_fmo_input.F07.003
-rw-r--r-- 1 hazwong frank        0 Dec  6 12:12 /scratch/hazwong/822157/4A4R_6/usrc/4A4R_6_fmo_input.F07.004
-rw-r--r-- 1 hazwong frank        0 Dec  6 12:12 /scratch/hazwong/822157/4A4R_6/usrc/4A4R_6_fmo_input.F07.005
-rw-r--r-- 1 hazwong frank        0 Dec  6 12:12 /scratch/hazwong/822157/4A4R_6/usrc/4A4R_6_fmo_input.F07.006
-rw-r--r-- 1 hazwong frank        0 Dec  6 12:12 /scratch/hazwong/822157/4A4R_6/usrc/4A4R_6_fmo_input.F07.007
-rw-r--r-- 1 hazwong frank        0 Dec  6 12:12 /scratch/hazwong/822157/4A4R_6/usrc/4A4R_6_fmo_input.F07.008
-rw-r--r-- 1 hazwong frank        0 Dec  6 12:12 /scratch/hazwong/822157/4A4R_6/usrc/4A4R_6_fmo_input.F07.009
-rw-r--r-- 1 hazwong frank        0 Dec  6 12:12 /scratch/hazwong/822157/4A4R_6/usrc/4A4R_6_fmo_input.F07.010
-rw-r--r-- 1 hazwong frank        0 Dec  6 12:12 /scratch/hazwong/822157/4A4R_6/usrc/4A4R_6_fmo_input.F07.011
-rw-r--r-- 1 hazwong frank        0 Dec  6 12:12 /scratch/hazwong/822157/4A4R_6/usrc/4A4R_6_fmo_input.F07.012
-rw-r--r-- 1 hazwong frank        0 Dec  6 12:12 /scratch/hazwong/822157/4A4R_6/usrc/4A4R_6_fmo_input.F07.013
-rw-r--r-- 1 hazwong frank        0 Dec  6 12:12 /scratch/hazwong/822157/4A4R_6/usrc/4A4R_6_fmo_input.F07.014
-rw-r--r-- 1 hazwong frank        0 Dec  6 12:12 /scratch/hazwong/822157/4A4R_6/usrc/4A4R_6_fmo_input.F07.015
-rw-r--r-- 1 hazwong frank    65440 Dec  6 20:14 /scratch/hazwong/822157/4A4R_6/usrc/4A4R_6_fmo_input.F10.000
-rw-r--r-- 1 hazwong frank        0 Dec  6 12:12 /scratch/hazwong/822157/4A4R_6/usrc/4A4R_6_fmo_input.F26.000
-rw-r--r-- 1 hazwong frank        0 Dec  6 12:12 /scratch/hazwong/822157/4A4R_6/usrc/4A4R_6_fmo_input.F26.001
-rw-r--r-- 1 hazwong frank        0 Dec  6 12:12 /scratch/hazwong/822157/4A4R_6/usrc/4A4R_6_fmo_input.F26.002
-rw-r--r-- 1 hazwong frank        0 Dec  6 12:12 /scratch/hazwong/822157/4A4R_6/usrc/4A4R_6_fmo_input.F26.003
-rw-r--r-- 1 hazwong frank        0 Dec  6 12:12 /scratch/hazwong/822157/4A4R_6/usrc/4A4R_6_fmo_input.F26.004
-rw-r--r-- 1 hazwong frank        0 Dec  6 12:12 /scratch/hazwong/822157/4A4R_6/usrc/4A4R_6_fmo_input.F26.005
-rw-r--r-- 1 hazwong frank        0 Dec  6 12:12 /scratch/hazwong/822157/4A4R_6/usrc/4A4R_6_fmo_input.F26.006
-rw-r--r-- 1 hazwong frank        0 Dec  6 12:12 /scratch/hazwong/822157/4A4R_6/usrc/4A4R_6_fmo_input.F26.007
-rw-r--r-- 1 hazwong frank        0 Dec  6 12:12 /scratch/hazwong/822157/4A4R_6/usrc/4A4R_6_fmo_input.F26.008
-rw-r--r-- 1 hazwong frank        0 Dec  6 12:12 /scratch/hazwong/822157/4A4R_6/usrc/4A4R_6_fmo_input.F26.009
-rw-r--r-- 1 hazwong frank        0 Dec  6 12:12 /scratch/hazwong/822157/4A4R_6/usrc/4A4R_6_fmo_input.F26.010
-rw-r--r-- 1 hazwong frank        0 Dec  6 12:12 /scratch/hazwong/822157/4A4R_6/usrc/4A4R_6_fmo_input.F26.011
-rw-r--r-- 1 hazwong frank        0 Dec  6 12:12 /scratch/hazwong/822157/4A4R_6/usrc/4A4R_6_fmo_input.F26.012
-rw-r--r-- 1 hazwong frank        0 Dec  6 12:12 /scratch/hazwong/822157/4A4R_6/usrc/4A4R_6_fmo_input.F26.013
-rw-r--r-- 1 hazwong frank        0 Dec  6 12:12 /scratch/hazwong/822157/4A4R_6/usrc/4A4R_6_fmo_input.F26.014
-rw-r--r-- 1 hazwong frank        0 Dec  6 12:12 /scratch/hazwong/822157/4A4R_6/usrc/4A4R_6_fmo_input.F26.015
-rw-r--r-- 1 hazwong frank        0 Dec  6 12:12 /scratch/hazwong/822157/4A4R_6/usrc/4A4R_6_fmo_input.F27.000
-rw-r--r-- 1 hazwong frank        0 Dec  6 12:12 /scratch/hazwong/822157/4A4R_6/usrc/4A4R_6_fmo_input.F27.001
-rw-r--r-- 1 hazwong frank        0 Dec  6 12:12 /scratch/hazwong/822157/4A4R_6/usrc/4A4R_6_fmo_input.F27.002
-rw-r--r-- 1 hazwong frank        0 Dec  6 12:12 /scratch/hazwong/822157/4A4R_6/usrc/4A4R_6_fmo_input.F27.003
-rw-r--r-- 1 hazwong frank        0 Dec  6 12:12 /scratch/hazwong/822157/4A4R_6/usrc/4A4R_6_fmo_input.F27.004
-rw-r--r-- 1 hazwong frank        0 Dec  6 12:12 /scratch/hazwong/822157/4A4R_6/usrc/4A4R_6_fmo_input.F27.005
-rw-r--r-- 1 hazwong frank        0 Dec  6 12:12 /scratch/hazwong/822157/4A4R_6/usrc/4A4R_6_fmo_input.F27.006
-rw-r--r-- 1 hazwong frank        0 Dec  6 12:12 /scratch/hazwong/822157/4A4R_6/usrc/4A4R_6_fmo_input.F27.007
-rw-r--r-- 1 hazwong frank        0 Dec  6 12:12 /scratch/hazwong/822157/4A4R_6/usrc/4A4R_6_fmo_input.F27.008
-rw-r--r-- 1 hazwong frank        0 Dec  6 12:12 /scratch/hazwong/822157/4A4R_6/usrc/4A4R_6_fmo_input.F27.009
-rw-r--r-- 1 hazwong frank        0 Dec  6 12:12 /scratch/hazwong/822157/4A4R_6/usrc/4A4R_6_fmo_input.F27.010
-rw-r--r-- 1 hazwong frank        0 Dec  6 12:12 /scratch/hazwong/822157/4A4R_6/usrc/4A4R_6_fmo_input.F27.011
-rw-r--r-- 1 hazwong frank        0 Dec  6 12:12 /scratch/hazwong/822157/4A4R_6/usrc/4A4R_6_fmo_input.F27.012
-rw-r--r-- 1 hazwong frank        0 Dec  6 12:12 /scratch/hazwong/822157/4A4R_6/usrc/4A4R_6_fmo_input.F27.013
-rw-r--r-- 1 hazwong frank        0 Dec  6 12:12 /scratch/hazwong/822157/4A4R_6/usrc/4A4R_6_fmo_input.F27.014
-rw-r--r-- 1 hazwong frank        0 Dec  6 12:12 /scratch/hazwong/822157/4A4R_6/usrc/4A4R_6_fmo_input.F27.015
-rw-r--r-- 1 hazwong frank 16236544 Dec  6 15:00 /scratch/hazwong/822157/4A4R_6/usrc/4A4R_6_fmo_input.F40.000
-rw-r--r-- 1 hazwong frank 16236544 Dec  6 15:00 /scratch/hazwong/822157/4A4R_6/usrc/4A4R_6_fmo_input.F40.001
-rw-r--r-- 1 hazwong frank 16236544 Dec  6 15:00 /scratch/hazwong/822157/4A4R_6/usrc/4A4R_6_fmo_input.F40.002
-rw-r--r-- 1 hazwong frank 16236544 Dec  6 15:00 /scratch/hazwong/822157/4A4R_6/usrc/4A4R_6_fmo_input.F40.003
-rw-r--r-- 1 hazwong frank 16236544 Dec  6 15:00 /scratch/hazwong/822157/4A4R_6/usrc/4A4R_6_fmo_input.F40.004
-rw-r--r-- 1 hazwong frank 16236544 Dec  6 15:00 /scratch/hazwong/822157/4A4R_6/usrc/4A4R_6_fmo_input.F40.005
-rw-r--r-- 1 hazwong frank 16236544 Dec  6 15:00 /scratch/hazwong/822157/4A4R_6/usrc/4A4R_6_fmo_input.F40.006
-rw-r--r-- 1 hazwong frank 16236544 Dec  6 15:00 /scratch/hazwong/822157/4A4R_6/usrc/4A4R_6_fmo_input.F40.007
-rw-r--r-- 1 hazwong frank 16236544 Dec  6 15:00 /scratch/hazwong/822157/4A4R_6/usrc/4A4R_6_fmo_input.F40.008
-rw-r--r-- 1 hazwong frank 16236544 Dec  6 15:00 /scratch/hazwong/822157/4A4R_6/usrc/4A4R_6_fmo_input.F40.009
-rw-r--r-- 1 hazwong frank 16236544 Dec  6 15:00 /scratch/hazwong/822157/4A4R_6/usrc/4A4R_6_fmo_input.F40.010
-rw-r--r-- 1 hazwong frank 16236544 Dec  6 15:00 /scratch/hazwong/822157/4A4R_6/usrc/4A4R_6_fmo_input.F40.011
-rw-r--r-- 1 hazwong frank 16236544 Dec  6 15:00 /scratch/hazwong/822157/4A4R_6/usrc/4A4R_6_fmo_input.F40.012
-rw-r--r-- 1 hazwong frank 16236544 Dec  6 15:00 /scratch/hazwong/822157/4A4R_6/usrc/4A4R_6_fmo_input.F40.013
-rw-r--r-- 1 hazwong frank 16236544 Dec  6 15:00 /scratch/hazwong/822157/4A4R_6/usrc/4A4R_6_fmo_input.F40.014
-rw-r--r-- 1 hazwong frank 16236544 Dec  6 15:00 /scratch/hazwong/822157/4A4R_6/usrc/4A4R_6_fmo_input.F40.015
Fri Dec  6 20:14:37 EST 2019
0.189u 0.075s 8:01:53.77 0.0%	0+0k 1120+128io 18pf+0w
