----- GAMESS execution script 'rungms' -----
This job is running on host gollum048.lsa.umich.edu
under operating system Linux at Sat Nov 16 17:51:56 EST 2019
Available scratch disk space (Kbyte units) at beginning of the job is
Filesystem     1K-blocks  Used Available Use% Mounted on
/dev/sda4      426933580 33292 426900288   1% /scratch
GAMESS temporary binary files will be written to /scratch/hazwong/636415/4A4R_5/usrc
GAMESS supplementary output files will be written to /scratch/hazwong/636415/4A4R_5/src
Copying input file 4A4R_5_fmo_input.inp to your run's scratch directory...
This is a GDDI run, keeping various output files on local disks
 
Assuming a single but multicore node.
 

 Distributed Data Interface kickoff program.
 Initiating 16 compute processes on 1 nodes to run the following command:
 /export/apps/CentOS7/gamess/src/build//gamess.R3.x 4A4R_5_fmo_input 

          ******************************************************
          *         GAMESS VERSION = 30 SEP 2018 (R3)         *
          *             FROM IOWA STATE UNIVERSITY             *
          * M.W.SCHMIDT, K.K.BALDRIDGE, J.A.BOATZ, S.T.ELBERT, *
          *   M.S.GORDON, J.H.JENSEN, S.KOSEKI, N.MATSUNAGA,   *
          *          K.A.NGUYEN, S.J.SU, T.L.WINDUS,           *
          *       TOGETHER WITH M.DUPUIS, J.A.MONTGOMERY       *
          *         J.COMPUT.CHEM.  14, 1347-1363(1993)        *
          **************** 64 BIT LINUX VERSION ****************

  SINCE 1993, STUDENTS AND POSTDOCS WORKING AT IOWA STATE UNIVERSITY
  AND ALSO IN THEIR VARIOUS JOBS AFTER LEAVING ISU HAVE MADE IMPORTANT
  CONTRIBUTIONS TO THE CODE:
     IVANA ADAMOVIC, CHRISTINE AIKENS, YURI ALEXEEV, POOJA ARORA,
     ANDREY ASADCHEV, ROB BELL, PRADIPTA BANDYOPADHYAY, JONATHAN BENTZ,
     BRETT BODE, KURT BRORSEN, CALEB CARLIN, GALINA CHABAN, WEI CHEN,
     CHEOL HO CHOI, PAUL DAY, ALBERT DEFUSCO, NUWAN DESILVA, TIM DUDLEY,
     DMITRI FEDOROV, ALEX FINDLATER, GRAHAM FLETCHER, MARK FREITAG,
     KURT GLAESEMANN, ANASTASIA GUNINA,
     DAN KEMP, GRANT MERRILL, NORIYUKI MINEZAWA, JONATHAN MULLIN,
     TAKESHI NAGATA, SEAN NEDD, HEATHER NETZLOFF, BOSILJKA NJEGIC, RYAN OLSON,
     MIKE PAK, BUU PHAM,
     SPENCER PRUITT, LUKE ROSKOP, JIM SHOEMAKER, LYUDMILA SLIPCHENKO,
     TONY SMITH, SAROM SOK LEANG, JIE SONG, TETSUYA TAKETSUGU, SIMON WEBB,
     PENG XU, SOOHAENG YOO, FEDERICO ZAHARIEV

  ADDITIONAL CODE HAS BEEN PROVIDED BY COLLABORATORS IN OTHER GROUPS:
     IOWA STATE UNIVERSITY:
          JOE IVANIC, AARON WEST, LAIMUTIS BYTAUTAS, KLAUS RUEDENBERG
     UNIVERSITY OF TOKYO: KIMIHIKO HIRAO, TAKAHITO NAKAJIMA,
          TAKAO TSUNEDA, MUNEAKI KAMIYA, SUSUMU YANAGISAWA,
          KIYOSHI YAGI, MAHITO CHIBA, SEIKEN TOKURA, NAOAKI KAWAKAMI
     UNIVERSITY OF AARHUS: FRANK JENSEN
     UNIVERSITY OF IOWA: VISVALDAS KAIRYS, HUI LI
     NATIONAL INST. OF STANDARDS AND TECHNOLOGY: WALT STEVENS, DAVID GARMER
     UNIVERSITY OF PISA: BENEDETTA MENNUCCI, JACOPO TOMASI
     UNIVERSITY OF MEMPHIS: HENRY KURTZ, PRAKASHAN KORAMBATH
     UNIVERSITY OF ALBERTA: TOBY ZENG, MARIUSZ KLOBUKOWSKI
     UNIVERSITY OF NEW ENGLAND: MARK SPACKMAN
     MIE UNIVERSITY: HIROAKI UMEDA
     NAT. INST. OF ADVANCED INDUSTRIAL SCIENCE AND TECHNOLOGY: KAZUO KITAURA
     MICHIGAN STATE UNIVERSITY:
          KAROL KOWALSKI, MARTA WLOCH, JEFFREY GOUR, JESSE LUTZ,
          WEI LI, JUN SHEN, J. EMILIANO DEUSTUA, PIOTR PIECUCH
     UNIVERSITY OF MINNESOTA:
          YINAN SHU
     UNIVERSITY OF SILESIA: MONIKA MUSIAL, STANISLAW KUCHARSKI
     FACULTES UNIVERSITAIRES NOTRE-DAME DE LA PAIX:
          OLIVIER QUINET, BENOIT CHAMPAGNE
     UNIVERSITY OF CALIFORNIA - SANTA BARBARA: BERNARD KIRTMAN
     INSTITUTE FOR MOLECULAR SCIENCE:
          KAZUYA ISHIMURA, MICHIO KATOUDA, AND SHIGERU NAGASE
     UNIVERSITY OF NOTRE DAME: ANNA POMOGAEVA, DAN CHIPMAN
     KYUSHU UNIVERSITY:
          HARUYUKI NAKANO,
          FENG LONG GU, JACEK KORCHOWIEC, MARCIN MAKOWSKI, AND YURIKO AOKI,
          HIROTOSHI MORI AND EISAKU MIYOSHI
     PENNSYLVANIA STATE UNIVERSITY:
          TZVETELIN IORDANOV, CHET SWALINA, JONATHAN SKONE,
          SHARON HAMMES-SCHIFFER
     WASEDA UNIVERSITY:
          MASATO KOBAYASHI, TOMOKO AKAMA, TSUGUKI TOUMA,
          TAKESHI YOSHIKAWA, YASUHIRO IKABATA, JUNJI SEINO,
          YUYA NAKAJIMA, HIROMI NAKAI
     NANJING UNIVERSITY: SHUHUA LI
     UNIVERSITY OF NEBRASKA:
          PEIFENG SU, DEJUN SI, NANDUN THELLAMUREGE, YALI WANG, HUI LI
     UNIVERSITY OF ZURICH: ROBERTO PEVERATI, KIM BALDRIDGE
     N. COPERNICUS UNIVERSITY AND JACKSON STATE UNIVERSITY:
          MARIA BARYSZ
     UNIVERSITY OF COPENHAGEN: Jimmy Kromann, CASPER STEINMANN
     TOKYO INSTITUTE OF TECHNOLOGY: HIROYA NAKATA
     NAGOYA UNIVERSITY: YOSHIO NISHIMOTO, STEPHAN IRLE
     MOSCOW STATE UNIVERSITY: VLADIMIR MIRONOV


 PARALLEL VERSION RUNNING ON       16 PROCESSORS IN        1 NODES.

 EXECUTION OF GAMESS BEGUN Sat Nov 16 17:51:56 2019

            ECHO OF THE FIRST FEW INPUT CARDS -
 INPUT CARD>!*** FMO 5.3 (Gamess) INPUT generated by Facio 22.1.1.32 ***                    
 INPUT CARD> $CONTRL RUNTYP=ENERGY NPRINT=-5 ISPHER=1 MAXIT=200 $END                        
 INPUT CARD> $SYSTEM MWORDS=63 MEMDDI=63 $END                                               
 INPUT CARD> $GDDI NGROUP=1 $END                                                            
 INPUT CARD> $SCF DIRSCF=.TRUE. NPUNCH=0 $END                                               
 INPUT CARD>!*** NumCPU : 2  MemPerNode : 512MB                                             
 INPUT CARD> $PCM SOLVNT=WATER IEF=-10 ICOMP=2 ICAV=1 IDISP=1 IFMO=-1 $END                  
 INPUT CARD> $PCMCAV RADII=SUAHF $END                                                       
 INPUT CARD> $TESCAV NTSALL=60 $END                                                         
 INPUT CARD> $FMOPRP                                                                        
 INPUT CARD>    NAODIR=200                                                                  
 INPUT CARD>    NGRFMO(1)=1, 1, 0, 0, 0,   0, 0, 0, 0, 0                                    
 INPUT CARD>    IPIEDA=1                                                                    
 INPUT CARD>    NPRINT=9                                                                    
 INPUT CARD> $END                                                                           
 INPUT CARD> $FMO                                                                           
 INPUT CARD>      SCFTYP(1)=RHF                                                             
 INPUT CARD>      MODGRD=10                                                                 
 INPUT CARD>      MODMUL=0                                                                  
 INPUT CARD>      MAXCAO=5                                                                  
 INPUT CARD>      MAXBND=10                                                                 
 INPUT CARD>      NLAYER=1                                                                  
 INPUT CARD>      MPLEVL(1)=2                                                               
 INPUT CARD>      NFRAG=8                                                                   
 INPUT CARD>      ICHARG(1)=-1, -1, -1, -1, -1, -1, -1, 0                                   
 INPUT CARD>      FRGNAM(1)=F1, F2, F3, F4, F5, F6, F7, F8                                  
 INPUT CARD>      indat(1)=0                                                                
 INPUT CARD>               1   -36   0                                                      
 INPUT CARD>               37   -67   0                                                     
 INPUT CARD>               68   -97   0                                                     
 INPUT CARD>               98   -130   0                                                    
 INPUT CARD>               131   -163   0                                                   
 INPUT CARD>               164   -194   0                                                   
 INPUT CARD>               195   -228   0                                                   
 INPUT CARD>               229   -256   0                                                   
 INPUT CARD> $END                                                                           
 INPUT CARD>                                                                                
 INPUT CARD> $FMOBND                                                                        
 INPUT CARD>   -37   36       6-31G*    MINI                                                
 INPUT CARD>   -68   67       6-31G*    MINI                                                
 INPUT CARD>   -98   97       6-31G*    MINI                                                
 INPUT CARD>   -131   130       6-31G*    MINI                                              
 INPUT CARD>   -164   163       6-31G*    MINI                                              
 INPUT CARD>   -195   194       6-31G*    MINI                                              
 INPUT CARD>   -229   228       6-31G*    MINI                                              
 INPUT CARD> $END                                                                           
 INPUT CARD> $FMOHYB                                                                        
 INPUT CARD> 6-31G*      15   5                                                             
 INPUT CARD>   1 0  -0.065034   0.288264   0.000000   0.000000   0.604412                   
 INPUT CARD>         0.290129   0.000000   0.000000   0.319045  -0.017106                   


 -------------------------------------------------------------
 GROUP DDI, PROGRAMMED BY: RYAN M. OLSON AND DMITRI G. FEDOROV
        FEDOROV ET AL., J. COMPUT. CHEM., 25 (2004) 872.
 -------------------------------------------------------------

 -------------------------------------------------------
 GDDI: INITIALIZATION COMPLETED FOR GROUP     1 OF     1
 WITH    16 PROCESSES BALTYP=DLB   global rank=        0
 -------------------------------------------------------

   63000000 WORDS OF MEMORY AVAILABLE


     RUN TITLE
     ---------
  FMO calculation                                                                

 THE POINT GROUP OF THE MOLECULE IS C1      
 THE ORDER OF THE PRINCIPAL AXIS IS     0

 ATOM   ATOMIC CHARGE
 H.1-1       1.0
 O.1-1       8.0
 C.1-1       6.0
 N.1-1       7.0
 P.1-1      15.0

     ATOMIC BASIS SET LIBRARY
     ----------------
 THE CONTRACTED PRIMITIVE FUNCTIONS HAVE BEEN UNNORMALIZED
 THE CONTRACTED BASIS FUNCTIONS ARE NOW NORMALIZED TO UNITY

  SHELL TYPE  PRIMITIVE        EXPONENT          CONTRACTION COEFFICIENT(S)

 H.1-1     

      1   S       1            18.7311370    0.033494604338
      1   S       2             2.8253944    0.234726953484
      1   S       3             0.6401217    0.813757326146

      2   S       4             0.1612778    1.000000000000

 O.1-1     

      3   S       5          5484.6716600    0.001831074430
      3   S       6           825.2349460    0.013950172200
      3   S       7           188.0469580    0.068445078098
      3   S       8            52.9645000    0.232714335992
      3   S       9            16.8975704    0.470192897984
      3   S      10             5.7996353    0.358520852987

      4   L      11            15.5396162   -0.110777549525    0.070874268231
      4   L      12             3.5999336   -0.148026262701    0.339752839147
      4   L      13             1.0137618    1.130767015354    0.727158577316

      5   L      14             0.2700058    1.000000000000    1.000000000000

      6   D      15             0.8000000    1.000000000000

 C.1-1     

      7   S      16          3047.5248800    0.001834737132
      7   S      17           457.3695180    0.014037322813
      7   S      18           103.9486850    0.068842622264
      7   S      19            29.2101553    0.232184443216
      7   S      20             9.2866630    0.467941348435
      7   S      21             3.1639270    0.362311985337

      8   L      22             7.8682723   -0.119332419775    0.068999066591
      8   L      23             1.8812885   -0.160854151696    0.316423960957
      8   L      24             0.5442493    1.143456437840    0.744308290898

      9   L      25             0.1687145    1.000000000000    1.000000000000

     10   D      26             0.8000000    1.000000000000

 N.1-1     

     11   S      27          4173.5114600    0.001834772160
     11   S      28           627.4579110    0.013994627002
     11   S      29           142.9020930    0.068586551812
     11   S      30            40.2343293    0.232240873040
     11   S      31            12.8202129    0.469069948082
     11   S      32             4.3904370    0.360455199063

     12   L      33            11.6263619   -0.114961181702    0.067579743878
     12   L      34             2.7162798   -0.169117478561    0.323907295893
     12   L      35             0.7722184    1.145851947027    0.740895139755

     13   L      36             0.2120315    1.000000000000    1.000000000000

     14   D      37             0.8000000    1.000000000000

 P.1-1     

     15   S      38         19413.3000000    0.001851598923
     15   S      39          2909.4200000    0.014206191735
     15   S      40           661.3640000    0.069999459277
     15   S      41           185.7590000    0.240078860331
     15   S      42            59.1943000    0.484761717984
     15   S      43            20.0310000    0.335199804993

     16   L      44           339.4780000   -0.002782170105    0.004564616191
     16   L      45            81.0101000   -0.036049901354    0.033693571881
     16   L      46            25.8780000   -0.116631004382    0.139754883368
     16   L      47             9.4522100    0.096832803638    0.339361716786
     16   L      48             3.6656600    0.614418023082    0.450920623685
     16   L      49             1.4674600    0.403798015170    0.238585800889

     17   L      50             2.1562300   -0.252924113863   -0.017765312733
     17   L      51             0.7489970    0.032851844678    0.274058196433
     17   L      52             0.2831450    1.081254761783    0.785421562957

     18   L      53             0.0998317    1.000000000000    1.000000000000

     19   D      54             0.5500000    1.000000000000

 TOTAL NUMBER OF BASIS SET SHELLS             =   19
 NUMBER OF CARTESIAN GAUSSIAN BASIS FUNCTIONS =   66

     $CONTRL OPTIONS
     ---------------
 SCFTYP=RHF          RUNTYP=ENERGY       EXETYP=RUN     
 MPLEVL=       0     CITYP =NONE         CCTYP =NONE         VBTYP =NONE    
 DFTTYP=NONE         TDDFT =NONE    
 MULT  =       1     ICHARG=       0     NZVAR =       0     COORD =UNIQUE  
 PP    =NONE         RELWFN=NONE         LOCAL =NONE         NUMGRD=       F
 ISPHER=       1     NOSYM =       0     MAXIT =     200     UNITS =ANGS    
 PLTORB=       F     MOLPLT=       F     AIMPAC=       F     FRIEND=        
 NPRINT=      -5     IREST =       0     GEOM  =INPUT   
 NORMF =       0     NORMP =       0     ITOL  =      24     ICUT  =      12
 INTTYP=BEST         GRDTYP=BEST         QMTTOL= 1.0E-06

     $SYSTEM OPTIONS
     ---------------
  REPLICATED MEMORY=    63000000 WORDS (ON EVERY NODE).
 DISTRIBUTED MEMDDI=          63 MILLION WORDS IN AGGREGATE,
 MEMDDI DISTRIBUTED OVER  16 PROCESSORS IS     3937500 WORDS/PROCESSOR.
 TOTAL MEMORY REQUESTED ON EACH PROCESSOR=    66937500 WORDS.
 TIMLIM=      525600.00 MINUTES, OR     365.0 DAYS.
 PARALL= T  BALTYP=  DLB     KDIAG=    0  COREFL= F
 MXSEQ2=     300 MXSEQ3=     150  mem10=         0

 ** LOOKING UP INTERNALLY STORED DATA FOR SOLVENT=WATER    **
 OPTICAL AND PHYSICAL CONSTANTS:
 EPS= 78.390; EPSINF=  1.776; RSOLV=  1.385 A; VMOL=  18.070 ML/MOL;
 TCE= .25700E-03 1/K; STEN= 71.810 DYN/CM;  DSTEN=  0.6500; CMF=  1.2770


     -----------------------------------
     INPUT FOR PCM SOLVATION CALCULATION 
     -----------------------------------
     IEF   =     -10
     ICOMP =       2     IFIELD=       0     ICAV  =       1
     IDISP =       1     IREP  =       0     IDP   =       0

     SOLVNT=WATER        EPS   = 78.3900     EPSINF=  1.7760
     VMOL  = 18.0700     TCE   =  0.00025700 STEN  = 71.8100
     DSTEN =  0.6500     CMF   =  1.2770     RSOLV =  1.3850

     NESFP =       0
     OMEGA = 40.0000     RET   =100.0000     FRO   =  0.7000

     TABS  =298.0000     IPRINT=       0

     --------------------------------
     INPUT FOR ITERATIVE C-PCM METHOD 
     --------------------------------
     IPCMIT  =         1     MXDIIS  =        50
     MXITR1  =       200     MXITR2  =       200
     THRES   = 0.100E-09     IMUL    =         3
     RCUT(1) =   20.0000     RCUT(2) =   50.0000

     IDIRCT  =         1
     IMGABI  =         0     RABI    =    4.0000
     IMGASC  =         0     RASC    =   20.0000
     THRSLS  = 0.500E-03     DENSLS  =    0.0100
     IEFPOL  =         1     REFPOL  =    0.0000

     INPUT FOR ISOTROPIC DIELECTRICS
     -------------------------------
     EPS=    78.39

          ----------------
          PROPERTIES INPUT
          ----------------

     MOMENTS            FIELD           POTENTIAL          DENSITY
 IEMOM =       1   IEFLD =       0   IEPOT =       0   IEDEN =       0
 WHERE =COMASS     WHERE =NUCLEI     WHERE =NUCLEI     WHERE =NUCLEI  
 OUTPUT=BOTH       OUTPUT=BOTH       OUTPUT=NONE       OUTPUT=BOTH    
 IEMINT=       0   IEFINT=       0                     IEDINT=       0
                                                       MORB  =       0
          EXTRAPOLATION IN EFFECT
          SOSCF IN EFFECT
 ORBITAL PRINTING OPTION: NPREO=     1 32767     2     1

     -------------------------------
     INTEGRAL TRANSFORMATION OPTIONS
     -------------------------------
     NWORD  =            0
     CUTOFF = 1.0E-10     MPTRAN =       0
     DIRTRF =       T     AOINTS =DUP     

          ----------------------
          INTEGRAL INPUT OPTIONS
          ----------------------
 NOPK  =       1 NORDER=       0 SCHWRZ=       T

 ..... DONE SETTING UP THE RUN .....
 CPU     0: STEP CPU TIME=     0.03 TOTAL CPU TIME=          0.0 (      0.0 MIN)
 TOTAL WALL CLOCK TIME=          0.1 SECONDS, CPU UTILIZATION IS    50.00%
 CPU     0: STEP CPU TIME=     0.00 TOTAL CPU TIME=          0.0 (      0.0 MIN)
 TOTAL WALL CLOCK TIME=          0.1 SECONDS, CPU UTILIZATION IS    50.00%

                    ----------------------
                    AO INTEGRAL TECHNOLOGY
                    ----------------------
     S,P,L SHELL ROTATED AXIS INTEGRALS, REPROGRAMMED BY
        KAZUYA ISHIMURA (IMS) AND JOSE SIERRA (SYNSTAR).
     S,P,D,L SHELL ROTATED AXIS INTEGRALS PROGRAMMED BY
        KAZUYA ISHIMURA (INSTITUTE FOR MOLECULAR SCIENCE).
     S,P,D,F,G SHELL TO TOTAL QUARTET ANGULAR MOMENTUM SUM 5,
        ERIC PROGRAM BY GRAHAM FLETCHER (ELORET AND NASA ADVANCED
        SUPERCOMPUTING DIVISION, AMES RESEARCH CENTER).
     S,P,D,F,G,L SHELL GENERAL RYS QUADRATURE PROGRAMMED BY
        MICHEL DUPUIS (PACIFIC NORTHWEST NATIONAL LABORATORY).
 Setting modorb=1 flag...
 Setting modorb=1 flag...

          -----------------------
          MP2 CONTROL INFORMATION
          -----------------------
          NACORE =        8  NBCORE =        8
          LMOMP2 =        F  AOINTS = DUP     
          METHOD =        2  NWORD  =               0
          MP2PRP =        F  OSPT   = NONE    
          CUTOFF = 1.00E-12  CPHFBS = BASISAO 
          CODE   = IMS     

          NUMBER OF CORE -A-  ORBITALS =     8
          NUMBER OF CORE -B-  ORBITALS =     8
          NUMBER OF OCC. -A-  ORBITALS =    18
          NUMBER OF OCC. -B-  ORBITALS =    18
          NUMBER OF MOLECULAR ORBITALS =    66
          NUMBER OF   BASIS  FUNCTIONS =    66

 CPU     0: STEP CPU TIME=     0.03 TOTAL CPU TIME=          0.1 (      0.0 MIN)
 TOTAL WALL CLOCK TIME=          0.1 SECONDS, CPU UTILIZATION IS    66.67%
 CPU     0: STEP CPU TIME=     0.00 TOTAL CPU TIME=          0.1 (      0.0 MIN)
 TOTAL WALL CLOCK TIME=          0.1 SECONDS, CPU UTILIZATION IS    66.67%

     INPUT FOR CAVITY DEFINITION 
     ---------------------------
   ATOM               COORDINATES                RADIUS       EPS
      1     -2.5050      4.1180     15.8100      0.0100     78.3900
      2     -2.0820      4.4070     14.9810      1.5900     78.3900
      3     -0.6650      4.3570     15.2110      1.7700     78.3900
      4     -0.3770      3.3190     15.4930      0.0100     78.3900
      5     -0.3970      5.0240     16.0600      0.0100     78.3900
      6      0.1510      4.7680     13.9840      1.7700     78.3900
      7      1.2390      4.7400     14.2170      0.0100     78.3900
      8     -0.0840      3.8340     12.8840      1.5900     78.3900
      9     -0.1280      4.5640     11.6670      1.7700     78.3900
     10      0.6260      4.1020     10.9900      0.0100     78.3900
     11     -1.4440      4.4720     11.0240      1.6800     78.3900
     12     -1.7160      4.7340      9.7100      1.7700     78.3900
     13     -0.6570      5.7390      6.5740      1.6800     78.3900
     14      0.3160      5.9040      6.7140      0.0100     78.3900
     15     -1.0480      5.8710      5.6590      0.0100     78.3900
     16     -0.8280      5.1450      8.7920      1.6800     78.3900
     17     -1.3820      5.3280      7.5960      1.7700     78.3900
     18     -2.7030      5.0740      7.3360      1.6800     78.3900
     19     -3.0360      5.2180      6.3960      0.0100     78.3900
     20     -3.6420      4.6290      8.2590      1.7700     78.3900
     21     -4.8170      4.4220      7.9360      1.5900     78.3900
     22     -3.0630      4.4700      9.5480      1.7700     78.3900
     23     -3.6340      4.0640     10.7500      1.6800     78.3900
     24     -2.6310      4.0770     11.5990      1.7700     78.3900
     25     -2.6890      3.8090     12.6580      0.0100     78.3900
     26      0.2810      5.9870     11.9690      1.7700     78.3900
     27     -0.1980      6.7220     11.2910      0.0100     78.3900
     28      1.6870      6.0990     11.8820      1.5900     78.3900
     29      1.9040      6.9640     12.2500      0.0100     78.3900
     30     -0.1830      6.1560     13.4100      1.7700     78.3900
     31     -1.2930      6.2630     13.4510      0.0100     78.3900
     32      0.5140      7.1890     14.1590      1.5900     78.3900
     33     -0.0550      8.6640     14.1090      2.1000     78.3900
     34     -1.4750      8.6460     14.5190      1.5900     78.3900
     35      0.8390      9.5660     14.8680      1.5900     78.3900
     36      0.0470      9.0410     12.5830      1.5900     78.3900
     37      1.3420      9.4110     12.0370      1.7700     78.3900
     38      2.0780      8.5820     12.1330      0.0100     78.3900
     39      1.7670     10.2890     12.5790      0.0100     78.3900
     40      1.2460      9.7940     10.5540      1.7700     78.3900
     41      2.2600      9.9980     10.1400      0.0100     78.3900
     42      0.6750      8.7070      9.7760      1.5900     78.3900
     43     -0.1510      9.2520      8.7560      1.7700     78.3900
     44      0.2660      8.8650      7.8010      0.0100     78.3900
     45     -1.5690      8.8120      8.8630      1.6800     78.3900
     46     -2.0650      8.3600     10.0640      1.7700     78.3900
     47     -1.3630      8.3620     10.8970      0.0100     78.3900
     48     -3.3250      7.9220     10.1810      1.7700     78.3900
     49     -3.7220      7.5330     11.1150      0.0100     78.3900
     50     -2.4100      8.8860      7.7570      1.7700     78.3900
     51     -1.9720      9.3510      6.6910      1.5900     78.3900
     52     -3.6830      8.4400      7.8550      1.6800     78.3900
     53     -4.1470      7.9590      9.0200      1.7700     78.3900
     54     -5.3960      7.5030      9.0740      1.6800     78.3900
     55     -5.9610      7.5240      8.2450      0.0100     78.3900
     56     -5.7880      7.1040      9.9060      0.0100     78.3900
     57      0.0130     10.7640      8.7890      1.7700     78.3900
     58     -0.9140     11.2910      8.5000      0.0100     78.3900
     59      1.0760     11.1660      7.9370      1.5900     78.3900
     60      1.2450     12.1080      8.1070      0.0100     78.3900
     61      0.3480     10.9960     10.2560      1.7700     78.3900
     62     -0.5640     10.8710     10.8860      0.0100     78.3900
     63      1.0650     12.2160     10.5320      1.5900     78.3900
     64      0.2580     13.5060     10.9370      2.1000     78.3900
     65     -0.7740     13.1360     11.9330      1.5900     78.3900
     66      1.2320     14.5420     11.3460      1.5900     78.3900
     67     -0.4370     13.9920      9.6070      1.5900     78.3900
     68     -1.7000     14.7130      9.6710      1.7700     78.3900
     69     -1.5200     15.8020      9.5170      0.0100     78.3900
     70     -2.2090     14.6140     10.6590      0.0100     78.3900
     71     -2.7090     14.2170      8.6120      1.7700     78.3900
     72     -2.4140     14.5380      7.5910      0.0100     78.3900
     73     -2.7490     12.7600      8.6150      1.5900     78.3900
     74     -4.0830     12.3000      8.5530      1.7700     78.3900
     75     -4.1050     11.5720      7.7070      0.0100     78.3900
     76     -4.4870     11.6150      9.8160      1.6800     78.3900
     77     -3.7110     11.6850     10.9600      1.7700     78.3900
     78     -2.8010     12.2870     10.8890      0.0100     78.3900
     79     -5.6160     10.8250      9.7810      1.7700     78.3900
     80     -6.2860     10.6740      8.7650      1.5900     78.3900
     81     -5.9160     10.1900     10.9590      1.6800     78.3900
     82     -6.7390      9.6030     10.9610      0.0100     78.3900
     83     -5.1850     10.2000     12.1260      1.7700     78.3900
     84     -5.5530      9.5290     13.0880      1.5900     78.3900
     85     -4.0150     11.0210     12.0840      1.7700     78.3900
     86     -3.3810     11.0590     12.9640      0.0100     78.3900
     87     -4.9470     13.5060      8.2140      1.7700     78.3900
     88     -5.9740     13.4280      8.6300      0.0100     78.3900
     89     -5.0110     13.6770      6.8080      1.5900     78.3900
     90     -5.6630     13.0440      6.4590      0.0100     78.3900
     91     -4.1680     14.6290      8.8810      1.7700     78.3900
     92     -4.3180     14.5710      9.9870      0.0100     78.3900
     93     -4.4240     15.9400      8.3330      1.5900     78.3900
     94     -5.2810     16.9790      9.1380      2.1000     78.3900
     95     -4.7510     17.0500     10.5170      1.5900     78.3900
     96     -5.2760     18.2550      8.3910      1.5900     78.3900
     97     -6.7430     16.3970      9.1380      1.5900     78.3900
     98     -7.7130     16.9790     10.0470      1.7700     78.3900
     99     -7.7800     18.0860      9.9210      0.0100     78.3900
    100     -7.4210     16.7750     11.1030      0.0100     78.3900
    101     -9.1130     16.3800      9.8230      1.7700     78.3900
    102     -9.7900     16.6630     10.6600      0.0100     78.3900
    103     -9.7000     16.9440      8.6140      1.5900     78.3900
    104    -10.4660     15.9480      7.9540      1.7700     78.3900
    105    -11.4970     16.3630      7.8630      0.0100     78.3900
    106     -9.9410     15.6750      6.6170      1.6800     78.3900
    107     -9.7860     15.2920      4.4600      1.7700     78.3900
    108     -8.4850     15.4490      4.9210      1.6800     78.3900
    109     -8.6300     15.6670      6.2060      1.7700     78.3900
    110     -7.8170     15.8450      6.9160      0.0100     78.3900
    111    -11.6660     14.9350      3.0610      1.6800     78.3900
    112    -12.4060     15.0360      4.1680      1.7700     78.3900
    113    -13.4850     14.9180      4.0200      0.0100     78.3900
    114    -12.0250     15.2890      5.4250      1.6800     78.3900
    115    -10.6890     15.4110      5.4990      1.7700     78.3900
    116    -10.3200     15.0750      3.1730      1.7700     78.3900
    117     -9.5720     15.0580      2.0590      1.6800     78.3900
    118     -8.5770     14.9740      2.1090      0.0100     78.3900
    119    -10.0010     14.8060      1.1910      0.0100     78.3900
    120    -10.5000     14.7190      8.8280      1.7700     78.3900
    121    -10.5010     13.7800      8.2310      0.0100     78.3900
    122    -11.6420     14.7550      9.6660      1.5900     78.3900
    123    -11.5450     14.0040     10.2880      0.0100     78.3900
    124     -9.1970     14.8520      9.6270      1.7700     78.3900
    125     -8.3360     14.5460      8.9920      0.0100     78.3900
    126     -9.1450     14.1770     10.9080      1.5900     78.3900
    127     -9.5990     12.6710     11.0360      2.1000     78.3900
    128     -8.7950     11.9990     12.0740      1.5900     78.3900
    129    -11.0650     12.6980     11.2500      1.5900     78.3900
    130     -9.3080     11.9900      9.6440      1.5900     78.3900
    131     -9.7370     10.6170      9.4150      1.7700     78.3900
    132     -9.9920     10.0680     10.3550      0.0100     78.3900
    133     -8.8750     10.0690      8.9790      0.0100     78.3900
    134    -10.9520     10.5060      8.4610      1.7700     78.3900
    135    -11.8850     10.7560      9.0100      0.0100     78.3900
    136    -10.8170     11.4150      7.3370      1.5900     78.3900
    137    -10.3380     10.7020      6.2180      1.7700     78.3900
    138    -11.1710     10.7120      5.4820      0.0100     78.3900
    139     -9.1460     11.3220      5.6570      1.6800     78.3900
    140     -7.6780     12.1960      4.2800      1.7700     78.3900
    141     -7.1070     12.2540      5.5500      1.6800     78.3900
    142     -8.0230     11.7280      6.3300      1.7700     78.3900
    143     -7.9510     11.6270      7.4160      0.0100     78.3900
    144     -8.0470     12.3980      1.9450      1.6800     78.3900
    145     -9.2170     11.7890      2.1580      1.7700     78.3900
    146     -9.8380     11.6280      1.2680      0.0100     78.3900
    147     -9.7550     11.3760      3.3080      1.6800     78.3900
    148     -8.9270     11.6090      4.3360      1.7700     78.3900
    149     -7.2400     12.6330      3.0100      1.7700     78.3900
    150     -6.0940     13.3050      2.8040      1.6800     78.3900
    151     -5.4890     13.5700      3.5540      0.0100     78.3900
    152     -5.8530     13.5910      1.8730      0.0100     78.3900
    153    -10.0870      9.2820      6.6410      1.7700     78.3900
    154     -9.0450      9.1510      7.0080      0.0100     78.3900
    155    -10.3190      8.4330      5.5540      1.5900     78.3900
    156    -10.3510      7.5160      5.8650      0.0100     78.3900
    157    -11.0750      9.1110      7.8010      1.7700     78.3900
    158    -10.6650      8.3680      8.5260      0.0100     78.3900
    159    -12.4560      8.7780      7.4660      1.5900     78.3900
    160    -12.8400      7.3260      6.9620      2.1000     78.3900
    161    -11.7090      6.4170      7.2630      1.5900     78.3900
    162    -14.1530      6.9410      7.5170      1.5900     78.3900
    163    -12.9670      7.4800      5.3990      1.5900     78.3900
    164    -13.6300      6.5120      4.5650      1.7700     78.3900
    165    -14.6580      6.3220      4.9530      0.0100     78.3900
    166    -13.0890      5.5390      4.5820      0.0100     78.3900
    167    -13.7720      6.9630      3.0940      1.7700     78.3900
    168    -14.1960      6.1230      2.5020      0.0100     78.3900
    169    -14.6910      8.0730      3.0050      1.5900     78.3900
    170    -13.9940      9.2870      2.7460      1.7700     78.3900
    171    -14.2790      9.5970      1.7160      0.0100     78.3900
    172    -14.3870     10.3520      3.7220      1.6800     78.3900
    173    -13.4340     11.2280      4.2060      1.7700     78.3900
    174    -12.3990     11.1000      3.8820      0.0100     78.3900
    175    -13.7550     12.1870      5.0850      1.7700     78.3900
    176    -13.0090     12.8480      5.5210      0.0100     78.3900
    177    -15.7390     10.5820      4.0280      1.7700     78.3900
    178    -16.6280      9.9300      3.4540      1.5900     78.3900
    179    -16.0680     11.5230      4.9390      1.6800     78.3900
    180    -15.1210     12.3100      5.4670      1.7700     78.3900
    181    -15.4950     13.2370      6.3460      1.6800     78.3900
    182    -16.4620     13.2790      6.6090      0.0100     78.3900
    183    -14.8550     13.8830      6.7620      0.0100     78.3900
    184    -12.5060      8.9520      2.7600      1.7700     78.3900
    185    -12.0830      9.0570      3.7830      0.0100     78.3900
    186    -11.7850      9.7560      1.8450      1.5900     78.3900
    187    -10.8430      9.5570      1.9260      0.0100     78.3900
    188    -12.5040      7.4740      2.3850      1.7700     78.3900
    189    -11.6250      6.9900      2.8740      0.0100     78.3900
    190    -12.5600      7.2410      0.9530      1.5900     78.3900
    191    -11.7040      6.1010      0.3080      2.1000     78.3900
    192    -11.6250      4.9820      1.2670      1.5900     78.3900
    193    -12.2550      5.7980     -1.0310      1.5900     78.3900
    194    -10.2740      6.7430      0.1430      1.5900     78.3900
    195     -9.9850      7.5360     -1.0330      1.7700     78.3900
    196    -10.7860      8.2900     -1.2140      0.0100     78.3900
    197     -9.9200      6.8710     -1.9250      0.0100     78.3900
    198     -8.6600      8.3020     -0.9000      1.7700     78.3900
    199     -8.4730      8.9280     -1.8010      0.0100     78.3900
    200     -8.7230      9.1960      0.2510      1.5900     78.3900
    201     -7.4670      9.1800      0.9230      1.7700     78.3900
    202     -7.1200     10.2330      1.0120      0.0100     78.3900
    203     -7.5820      8.5820      2.2540      1.6800     78.3900
    204     -6.6770      8.6790      3.2750      1.7700     78.3900
    205     -3.6860      9.8560      4.5440      1.6800     78.3900
    206     -3.2740     10.3020      3.7490      0.0100     78.3900
    207     -3.1300      9.7210      5.3700      0.0100     78.3900
    208     -5.5170      9.3530      3.2420      1.6800     78.3900
    209     -4.8770      9.3050      4.4090      1.7700     78.3900
    210     -5.3860      8.6910      5.5220      1.6800     78.3900
    211     -4.8330      8.7020      6.3660      0.0100     78.3900
    212     -6.5850      7.9950      5.5870      1.7700     78.3900
    213     -6.9680      7.4690      6.6380      1.5900     78.3900
    214     -7.2180      7.9550      4.3160      1.7700     78.3900
    215     -8.3850      7.3320      3.9180      1.6800     78.3900
    216     -8.5880      7.7650      2.7050      1.7700     78.3900
    217     -9.4760      7.5750      2.1060      0.0100     78.3900
    218     -6.4930      8.4100      0.0600      1.7700     78.3900
    219     -5.7220      7.8810      0.6570      0.0100     78.3900
    220     -5.8620      9.2800     -0.8570      1.5900     78.3900
    221     -5.3490      8.7350     -1.4690      0.0100     78.3900
    222     -7.4240      7.4310     -0.6410      1.7700     78.3900
    223     -7.7570      6.6500      0.0840      0.0100     78.3900
    224     -6.9140      6.8930     -1.8870      1.5900     78.3900
    225     -6.3600      5.4130     -1.8850      2.1000     78.3900
    226     -7.2270      4.5640     -1.0460      1.5900     78.3900
    227     -6.1580      4.9680     -3.2790      1.5900     78.3900
    228     -4.9500      5.5080     -1.1910      1.5900     78.3900
    229     -3.9070      6.2920     -1.8180      1.7700     78.3900
    230     -4.2310      7.3410     -2.0060      0.0100     78.3900
    231     -3.6220      5.8420     -2.7990      0.0100     78.3900
    232     -2.6590      6.3360     -0.9350      1.7700     78.3900
    233     -1.8110      6.8180     -1.4690      0.0100     78.3900
    234     -2.9350      7.1430      0.2430      1.5900     78.3900
    235     -2.2910      6.5610      1.3680      1.7700     78.3900
    236     -1.6460      7.3650      1.7950      0.0100     78.3900
    237     -3.2610      6.1030      2.4030      1.6800     78.3900
    238     -4.5740      5.8540      2.0670      1.7700     78.3900
    239     -4.8470      6.0470      1.0310      0.0100     78.3900
    240     -5.4650      5.4410      2.9750      1.7700     78.3900
    241     -6.5120      5.2650      2.7300      0.0100     78.3900
    242     -2.8350      5.8850      3.7080      1.7700     78.3900
    243     -1.6420      6.0740      3.9940      1.5900     78.3900
    244     -3.7200      5.4690      4.6420      1.6800     78.3900
    245     -5.0030      5.2420      4.3060      1.7700     78.3900
    246     -5.8530      4.8410      5.2480      1.6800     78.3900
    247     -5.5360      4.7430      6.1950      0.0100     78.3900
    248     -6.8220      4.6880      5.0540      0.0100     78.3900
    249     -1.4060      5.4290      0.8570      1.7700     78.3900
    250     -1.3300      4.5970      1.5910      0.0100     78.3900
    251     -0.1080      5.9170      0.5450      1.5900     78.3900
    252      0.4050      5.2200      0.1020      0.0100     78.3900
    253     -2.1770      4.9870     -0.3820      1.7700     78.3900
    254     -3.0630      4.3850     -0.0870      0.0100     78.3900
    255     -1.3900      4.2940     -1.3660      1.5900     78.3900
    256     -1.0720      3.4500     -1.0000      0.0100     78.3900

     ----------------------------
     INPUT FOR TESSERA DEFINITION
     ----------------------------
     NTSALL  =        60     MTHALL  =         4
     MTHAUT  =         0     AUTFRE  =    2.0000
     NTSFRZ  =        60     KEEPSM  =         0
     AREAKP  =   10.0000     BONDRY  =    1.0000
     AREATL  =    0.0100

     SPHERE     INITS       METHOD
          1        60       FIXPVA
          2        60       FIXPVA
          3        60       FIXPVA
          4        60       FIXPVA
          5        60       FIXPVA
          6        60       FIXPVA
          7        60       FIXPVA
          8        60       FIXPVA
          9        60       FIXPVA
         10        60       FIXPVA
         11        60       FIXPVA
         12        60       FIXPVA
         13        60       FIXPVA
         14        60       FIXPVA
         15        60       FIXPVA
         16        60       FIXPVA
         17        60       FIXPVA
         18        60       FIXPVA
         19        60       FIXPVA
         20        60       FIXPVA
         21        60       FIXPVA
         22        60       FIXPVA
         23        60       FIXPVA
         24        60       FIXPVA
         25        60       FIXPVA
         26        60       FIXPVA
         27        60       FIXPVA
         28        60       FIXPVA
         29        60       FIXPVA
         30        60       FIXPVA
         31        60       FIXPVA
         32        60       FIXPVA
         33        60       FIXPVA
         34        60       FIXPVA
         35        60       FIXPVA
         36        60       FIXPVA
         37        60       FIXPVA
         38        60       FIXPVA
         39        60       FIXPVA
         40        60       FIXPVA
         41        60       FIXPVA
         42        60       FIXPVA
         43        60       FIXPVA
         44        60       FIXPVA
         45        60       FIXPVA
         46        60       FIXPVA
         47        60       FIXPVA
         48        60       FIXPVA
         49        60       FIXPVA
         50        60       FIXPVA
         51        60       FIXPVA
         52        60       FIXPVA
         53        60       FIXPVA
         54        60       FIXPVA
         55        60       FIXPVA
         56        60       FIXPVA
         57        60       FIXPVA
         58        60       FIXPVA
         59        60       FIXPVA
         60        60       FIXPVA
         61        60       FIXPVA
         62        60       FIXPVA
         63        60       FIXPVA
         64        60       FIXPVA
         65        60       FIXPVA
         66        60       FIXPVA
         67        60       FIXPVA
         68        60       FIXPVA
         69        60       FIXPVA
         70        60       FIXPVA
         71        60       FIXPVA
         72        60       FIXPVA
         73        60       FIXPVA
         74        60       FIXPVA
         75        60       FIXPVA
         76        60       FIXPVA
         77        60       FIXPVA
         78        60       FIXPVA
         79        60       FIXPVA
         80        60       FIXPVA
         81        60       FIXPVA
         82        60       FIXPVA
         83        60       FIXPVA
         84        60       FIXPVA
         85        60       FIXPVA
         86        60       FIXPVA
         87        60       FIXPVA
         88        60       FIXPVA
         89        60       FIXPVA
         90        60       FIXPVA
         91        60       FIXPVA
         92        60       FIXPVA
         93        60       FIXPVA
         94        60       FIXPVA
         95        60       FIXPVA
         96        60       FIXPVA
         97        60       FIXPVA
         98        60       FIXPVA
         99        60       FIXPVA
        100        60       FIXPVA
        101        60       FIXPVA
        102        60       FIXPVA
        103        60       FIXPVA
        104        60       FIXPVA
        105        60       FIXPVA
        106        60       FIXPVA
        107        60       FIXPVA
        108        60       FIXPVA
        109        60       FIXPVA
        110        60       FIXPVA
        111        60       FIXPVA
        112        60       FIXPVA
        113        60       FIXPVA
        114        60       FIXPVA
        115        60       FIXPVA
        116        60       FIXPVA
        117        60       FIXPVA
        118        60       FIXPVA
        119        60       FIXPVA
        120        60       FIXPVA
        121        60       FIXPVA
        122        60       FIXPVA
        123        60       FIXPVA
        124        60       FIXPVA
        125        60       FIXPVA
        126        60       FIXPVA
        127        60       FIXPVA
        128        60       FIXPVA
        129        60       FIXPVA
        130        60       FIXPVA
        131        60       FIXPVA
        132        60       FIXPVA
        133        60       FIXPVA
        134        60       FIXPVA
        135        60       FIXPVA
        136        60       FIXPVA
        137        60       FIXPVA
        138        60       FIXPVA
        139        60       FIXPVA
        140        60       FIXPVA
        141        60       FIXPVA
        142        60       FIXPVA
        143        60       FIXPVA
        144        60       FIXPVA
        145        60       FIXPVA
        146        60       FIXPVA
        147        60       FIXPVA
        148        60       FIXPVA
        149        60       FIXPVA
        150        60       FIXPVA
        151        60       FIXPVA
        152        60       FIXPVA
        153        60       FIXPVA
        154        60       FIXPVA
        155        60       FIXPVA
        156        60       FIXPVA
        157        60       FIXPVA
        158        60       FIXPVA
        159        60       FIXPVA
        160        60       FIXPVA
        161        60       FIXPVA
        162        60       FIXPVA
        163        60       FIXPVA
        164        60       FIXPVA
        165        60       FIXPVA
        166        60       FIXPVA
        167        60       FIXPVA
        168        60       FIXPVA
        169        60       FIXPVA
        170        60       FIXPVA
        171        60       FIXPVA
        172        60       FIXPVA
        173        60       FIXPVA
        174        60       FIXPVA
        175        60       FIXPVA
        176        60       FIXPVA
        177        60       FIXPVA
        178        60       FIXPVA
        179        60       FIXPVA
        180        60       FIXPVA
        181        60       FIXPVA
        182        60       FIXPVA
        183        60       FIXPVA
        184        60       FIXPVA
        185        60       FIXPVA
        186        60       FIXPVA
        187        60       FIXPVA
        188        60       FIXPVA
        189        60       FIXPVA
        190        60       FIXPVA
        191        60       FIXPVA
        192        60       FIXPVA
        193        60       FIXPVA
        194        60       FIXPVA
        195        60       FIXPVA
        196        60       FIXPVA
        197        60       FIXPVA
        198        60       FIXPVA
        199        60       FIXPVA
        200        60       FIXPVA
        201        60       FIXPVA
        202        60       FIXPVA
        203        60       FIXPVA
        204        60       FIXPVA
        205        60       FIXPVA
        206        60       FIXPVA
        207        60       FIXPVA
        208        60       FIXPVA
        209        60       FIXPVA
        210        60       FIXPVA
        211        60       FIXPVA
        212        60       FIXPVA
        213        60       FIXPVA
        214        60       FIXPVA
        215        60       FIXPVA
        216        60       FIXPVA
        217        60       FIXPVA
        218        60       FIXPVA
        219        60       FIXPVA
        220        60       FIXPVA
        221        60       FIXPVA
        222        60       FIXPVA
        223        60       FIXPVA
        224        60       FIXPVA
        225        60       FIXPVA
        226        60       FIXPVA
        227        60       FIXPVA
        228        60       FIXPVA
        229        60       FIXPVA
        230        60       FIXPVA
        231        60       FIXPVA
        232        60       FIXPVA
        233        60       FIXPVA
        234        60       FIXPVA
        235        60       FIXPVA
        236        60       FIXPVA
        237        60       FIXPVA
        238        60       FIXPVA
        239        60       FIXPVA
        240        60       FIXPVA
        241        60       FIXPVA
        242        60       FIXPVA
        243        60       FIXPVA
        244        60       FIXPVA
        245        60       FIXPVA
        246        60       FIXPVA
        247        60       FIXPVA
        248        60       FIXPVA
        249        60       FIXPVA
        250        60       FIXPVA
        251        60       FIXPVA
        252        60       FIXPVA
        253        60       FIXPVA
        254        60       FIXPVA
        255        60       FIXPVA
        256        60       FIXPVA

     ------------------------------
      FIXPVA TESSELLATION FOR PCM
         PEIFENG SU AND HUI LI
     UNIVERSITY OF NEBRASKA-LINCOLN
     ------------------------------


 PCM DIMENSIONS: MXSP=   256, MXTS=     10240, MEMORY=        105219

     INPUT FOR CAVITY DEFINITION 
     ---------------------------
   ATOM               COORDINATES                RADIUS       EPS
      1     -2.5050      4.1180     15.8100      0.0100     78.3900
      2     -2.0820      4.4070     14.9810      1.5900     78.3900
      3     -0.6650      4.3570     15.2110      1.7700     78.3900
      4     -0.3770      3.3190     15.4930      0.0100     78.3900
      5     -0.3970      5.0240     16.0600      0.0100     78.3900
      6      0.1510      4.7680     13.9840      1.7700     78.3900
      7      1.2390      4.7400     14.2170      0.0100     78.3900
      8     -0.0840      3.8340     12.8840      1.5900     78.3900
      9     -0.1280      4.5640     11.6670      1.7700     78.3900
     10      0.6260      4.1020     10.9900      0.0100     78.3900
     11     -1.4440      4.4720     11.0240      1.6800     78.3900
     12     -1.7160      4.7340      9.7100      1.7700     78.3900
     13     -0.6570      5.7390      6.5740      1.6800     78.3900
     14      0.3160      5.9040      6.7140      0.0100     78.3900
     15     -1.0480      5.8710      5.6590      0.0100     78.3900
     16     -0.8280      5.1450      8.7920      1.6800     78.3900
     17     -1.3820      5.3280      7.5960      1.7700     78.3900
     18     -2.7030      5.0740      7.3360      1.6800     78.3900
     19     -3.0360      5.2180      6.3960      0.0100     78.3900
     20     -3.6420      4.6290      8.2590      1.7700     78.3900
     21     -4.8170      4.4220      7.9360      1.5900     78.3900
     22     -3.0630      4.4700      9.5480      1.7700     78.3900
     23     -3.6340      4.0640     10.7500      1.6800     78.3900
     24     -2.6310      4.0770     11.5990      1.7700     78.3900
     25     -2.6890      3.8090     12.6580      0.0100     78.3900
     26      0.2810      5.9870     11.9690      1.7700     78.3900
     27     -0.1980      6.7220     11.2910      0.0100     78.3900
     28      1.6870      6.0990     11.8820      1.5900     78.3900
     29      1.9040      6.9640     12.2500      0.0100     78.3900
     30     -0.1830      6.1560     13.4100      1.7700     78.3900
     31     -1.2930      6.2630     13.4510      0.0100     78.3900
     32      0.5140      7.1890     14.1590      1.5900     78.3900
     33     -0.0550      8.6640     14.1090      2.1000     78.3900
     34     -1.4750      8.6460     14.5190      1.5900     78.3900
     35      0.8390      9.5660     14.8680      1.5900     78.3900
     36      0.0470      9.0410     12.5830      1.5900     78.3900
     37      1.3420      9.4110     12.0370      1.7700     78.3900
     38      2.0780      8.5820     12.1330      0.0100     78.3900
     39      1.7670     10.2890     12.5790      0.0100     78.3900
     40      1.2460      9.7940     10.5540      1.7700     78.3900
     41      2.2600      9.9980     10.1400      0.0100     78.3900
     42      0.6750      8.7070      9.7760      1.5900     78.3900
     43     -0.1510      9.2520      8.7560      1.7700     78.3900
     44      0.2660      8.8650      7.8010      0.0100     78.3900
     45     -1.5690      8.8120      8.8630      1.6800     78.3900
     46     -2.0650      8.3600     10.0640      1.7700     78.3900
     47     -1.3630      8.3620     10.8970      0.0100     78.3900
     48     -3.3250      7.9220     10.1810      1.7700     78.3900
     49     -3.7220      7.5330     11.1150      0.0100     78.3900
     50     -2.4100      8.8860      7.7570      1.7700     78.3900
     51     -1.9720      9.3510      6.6910      1.5900     78.3900
     52     -3.6830      8.4400      7.8550      1.6800     78.3900
     53     -4.1470      7.9590      9.0200      1.7700     78.3900
     54     -5.3960      7.5030      9.0740      1.6800     78.3900
     55     -5.9610      7.5240      8.2450      0.0100     78.3900
     56     -5.7880      7.1040      9.9060      0.0100     78.3900
     57      0.0130     10.7640      8.7890      1.7700     78.3900
     58     -0.9140     11.2910      8.5000      0.0100     78.3900
     59      1.0760     11.1660      7.9370      1.5900     78.3900
     60      1.2450     12.1080      8.1070      0.0100     78.3900
     61      0.3480     10.9960     10.2560      1.7700     78.3900
     62     -0.5640     10.8710     10.8860      0.0100     78.3900
     63      1.0650     12.2160     10.5320      1.5900     78.3900
     64      0.2580     13.5060     10.9370      2.1000     78.3900
     65     -0.7740     13.1360     11.9330      1.5900     78.3900
     66      1.2320     14.5420     11.3460      1.5900     78.3900
     67     -0.4370     13.9920      9.6070      1.5900     78.3900
     68     -1.7000     14.7130      9.6710      1.7700     78.3900
     69     -1.5200     15.8020      9.5170      0.0100     78.3900
     70     -2.2090     14.6140     10.6590      0.0100     78.3900
     71     -2.7090     14.2170      8.6120      1.7700     78.3900
     72     -2.4140     14.5380      7.5910      0.0100     78.3900
     73     -2.7490     12.7600      8.6150      1.5900     78.3900
     74     -4.0830     12.3000      8.5530      1.7700     78.3900
     75     -4.1050     11.5720      7.7070      0.0100     78.3900
     76     -4.4870     11.6150      9.8160      1.6800     78.3900
     77     -3.7110     11.6850     10.9600      1.7700     78.3900
     78     -2.8010     12.2870     10.8890      0.0100     78.3900
     79     -5.6160     10.8250      9.7810      1.7700     78.3900
     80     -6.2860     10.6740      8.7650      1.5900     78.3900
     81     -5.9160     10.1900     10.9590      1.6800     78.3900
     82     -6.7390      9.6030     10.9610      0.0100     78.3900
     83     -5.1850     10.2000     12.1260      1.7700     78.3900
     84     -5.5530      9.5290     13.0880      1.5900     78.3900
     85     -4.0150     11.0210     12.0840      1.7700     78.3900
     86     -3.3810     11.0590     12.9640      0.0100     78.3900
     87     -4.9470     13.5060      8.2140      1.7700     78.3900
     88     -5.9740     13.4280      8.6300      0.0100     78.3900
     89     -5.0110     13.6770      6.8080      1.5900     78.3900
     90     -5.6630     13.0440      6.4590      0.0100     78.3900
     91     -4.1680     14.6290      8.8810      1.7700     78.3900
     92     -4.3180     14.5710      9.9870      0.0100     78.3900
     93     -4.4240     15.9400      8.3330      1.5900     78.3900
     94     -5.2810     16.9790      9.1380      2.1000     78.3900
     95     -4.7510     17.0500     10.5170      1.5900     78.3900
     96     -5.2760     18.2550      8.3910      1.5900     78.3900
     97     -6.7430     16.3970      9.1380      1.5900     78.3900
     98     -7.7130     16.9790     10.0470      1.7700     78.3900
     99     -7.7800     18.0860      9.9210      0.0100     78.3900
    100     -7.4210     16.7750     11.1030      0.0100     78.3900
    101     -9.1130     16.3800      9.8230      1.7700     78.3900
    102     -9.7900     16.6630     10.6600      0.0100     78.3900
    103     -9.7000     16.9440      8.6140      1.5900     78.3900
    104    -10.4660     15.9480      7.9540      1.7700     78.3900
    105    -11.4970     16.3630      7.8630      0.0100     78.3900
    106     -9.9410     15.6750      6.6170      1.6800     78.3900
    107     -9.7860     15.2920      4.4600      1.7700     78.3900
    108     -8.4850     15.4490      4.9210      1.6800     78.3900
    109     -8.6300     15.6670      6.2060      1.7700     78.3900
    110     -7.8170     15.8450      6.9160      0.0100     78.3900
    111    -11.6660     14.9350      3.0610      1.6800     78.3900
    112    -12.4060     15.0360      4.1680      1.7700     78.3900
    113    -13.4850     14.9180      4.0200      0.0100     78.3900
    114    -12.0250     15.2890      5.4250      1.6800     78.3900
    115    -10.6890     15.4110      5.4990      1.7700     78.3900
    116    -10.3200     15.0750      3.1730      1.7700     78.3900
    117     -9.5720     15.0580      2.0590      1.6800     78.3900
    118     -8.5770     14.9740      2.1090      0.0100     78.3900
    119    -10.0010     14.8060      1.1910      0.0100     78.3900
    120    -10.5000     14.7190      8.8280      1.7700     78.3900
    121    -10.5010     13.7800      8.2310      0.0100     78.3900
    122    -11.6420     14.7550      9.6660      1.5900     78.3900
    123    -11.5450     14.0040     10.2880      0.0100     78.3900
    124     -9.1970     14.8520      9.6270      1.7700     78.3900
    125     -8.3360     14.5460      8.9920      0.0100     78.3900
    126     -9.1450     14.1770     10.9080      1.5900     78.3900
    127     -9.5990     12.6710     11.0360      2.1000     78.3900
    128     -8.7950     11.9990     12.0740      1.5900     78.3900
    129    -11.0650     12.6980     11.2500      1.5900     78.3900
    130     -9.3080     11.9900      9.6440      1.5900     78.3900
    131     -9.7370     10.6170      9.4150      1.7700     78.3900
    132     -9.9920     10.0680     10.3550      0.0100     78.3900
    133     -8.8750     10.0690      8.9790      0.0100     78.3900
    134    -10.9520     10.5060      8.4610      1.7700     78.3900
    135    -11.8850     10.7560      9.0100      0.0100     78.3900
    136    -10.8170     11.4150      7.3370      1.5900     78.3900
    137    -10.3380     10.7020      6.2180      1.7700     78.3900
    138    -11.1710     10.7120      5.4820      0.0100     78.3900
    139     -9.1460     11.3220      5.6570      1.6800     78.3900
    140     -7.6780     12.1960      4.2800      1.7700     78.3900
    141     -7.1070     12.2540      5.5500      1.6800     78.3900
    142     -8.0230     11.7280      6.3300      1.7700     78.3900
    143     -7.9510     11.6270      7.4160      0.0100     78.3900
    144     -8.0470     12.3980      1.9450      1.6800     78.3900
    145     -9.2170     11.7890      2.1580      1.7700     78.3900
    146     -9.8380     11.6280      1.2680      0.0100     78.3900
    147     -9.7550     11.3760      3.3080      1.6800     78.3900
    148     -8.9270     11.6090      4.3360      1.7700     78.3900
    149     -7.2400     12.6330      3.0100      1.7700     78.3900
    150     -6.0940     13.3050      2.8040      1.6800     78.3900
    151     -5.4890     13.5700      3.5540      0.0100     78.3900
    152     -5.8530     13.5910      1.8730      0.0100     78.3900
    153    -10.0870      9.2820      6.6410      1.7700     78.3900
    154     -9.0450      9.1510      7.0080      0.0100     78.3900
    155    -10.3190      8.4330      5.5540      1.5900     78.3900
    156    -10.3510      7.5160      5.8650      0.0100     78.3900
    157    -11.0750      9.1110      7.8010      1.7700     78.3900
    158    -10.6650      8.3680      8.5260      0.0100     78.3900
    159    -12.4560      8.7780      7.4660      1.5900     78.3900
    160    -12.8400      7.3260      6.9620      2.1000     78.3900
    161    -11.7090      6.4170      7.2630      1.5900     78.3900
    162    -14.1530      6.9410      7.5170      1.5900     78.3900
    163    -12.9670      7.4800      5.3990      1.5900     78.3900
    164    -13.6300      6.5120      4.5650      1.7700     78.3900
    165    -14.6580      6.3220      4.9530      0.0100     78.3900
    166    -13.0890      5.5390      4.5820      0.0100     78.3900
    167    -13.7720      6.9630      3.0940      1.7700     78.3900
    168    -14.1960      6.1230      2.5020      0.0100     78.3900
    169    -14.6910      8.0730      3.0050      1.5900     78.3900
    170    -13.9940      9.2870      2.7460      1.7700     78.3900
    171    -14.2790      9.5970      1.7160      0.0100     78.3900
    172    -14.3870     10.3520      3.7220      1.6800     78.3900
    173    -13.4340     11.2280      4.2060      1.7700     78.3900
    174    -12.3990     11.1000      3.8820      0.0100     78.3900
    175    -13.7550     12.1870      5.0850      1.7700     78.3900
    176    -13.0090     12.8480      5.5210      0.0100     78.3900
    177    -15.7390     10.5820      4.0280      1.7700     78.3900
    178    -16.6280      9.9300      3.4540      1.5900     78.3900
    179    -16.0680     11.5230      4.9390      1.6800     78.3900
    180    -15.1210     12.3100      5.4670      1.7700     78.3900
    181    -15.4950     13.2370      6.3460      1.6800     78.3900
    182    -16.4620     13.2790      6.6090      0.0100     78.3900
    183    -14.8550     13.8830      6.7620      0.0100     78.3900
    184    -12.5060      8.9520      2.7600      1.7700     78.3900
    185    -12.0830      9.0570      3.7830      0.0100     78.3900
    186    -11.7850      9.7560      1.8450      1.5900     78.3900
    187    -10.8430      9.5570      1.9260      0.0100     78.3900
    188    -12.5040      7.4740      2.3850      1.7700     78.3900
    189    -11.6250      6.9900      2.8740      0.0100     78.3900
    190    -12.5600      7.2410      0.9530      1.5900     78.3900
    191    -11.7040      6.1010      0.3080      2.1000     78.3900
    192    -11.6250      4.9820      1.2670      1.5900     78.3900
    193    -12.2550      5.7980     -1.0310      1.5900     78.3900
    194    -10.2740      6.7430      0.1430      1.5900     78.3900
    195     -9.9850      7.5360     -1.0330      1.7700     78.3900
    196    -10.7860      8.2900     -1.2140      0.0100     78.3900
    197     -9.9200      6.8710     -1.9250      0.0100     78.3900
    198     -8.6600      8.3020     -0.9000      1.7700     78.3900
    199     -8.4730      8.9280     -1.8010      0.0100     78.3900
    200     -8.7230      9.1960      0.2510      1.5900     78.3900
    201     -7.4670      9.1800      0.9230      1.7700     78.3900
    202     -7.1200     10.2330      1.0120      0.0100     78.3900
    203     -7.5820      8.5820      2.2540      1.6800     78.3900
    204     -6.6770      8.6790      3.2750      1.7700     78.3900
    205     -3.6860      9.8560      4.5440      1.6800     78.3900
    206     -3.2740     10.3020      3.7490      0.0100     78.3900
    207     -3.1300      9.7210      5.3700      0.0100     78.3900
    208     -5.5170      9.3530      3.2420      1.6800     78.3900
    209     -4.8770      9.3050      4.4090      1.7700     78.3900
    210     -5.3860      8.6910      5.5220      1.6800     78.3900
    211     -4.8330      8.7020      6.3660      0.0100     78.3900
    212     -6.5850      7.9950      5.5870      1.7700     78.3900
    213     -6.9680      7.4690      6.6380      1.5900     78.3900
    214     -7.2180      7.9550      4.3160      1.7700     78.3900
    215     -8.3850      7.3320      3.9180      1.6800     78.3900
    216     -8.5880      7.7650      2.7050      1.7700     78.3900
    217     -9.4760      7.5750      2.1060      0.0100     78.3900
    218     -6.4930      8.4100      0.0600      1.7700     78.3900
    219     -5.7220      7.8810      0.6570      0.0100     78.3900
    220     -5.8620      9.2800     -0.8570      1.5900     78.3900
    221     -5.3490      8.7350     -1.4690      0.0100     78.3900
    222     -7.4240      7.4310     -0.6410      1.7700     78.3900
    223     -7.7570      6.6500      0.0840      0.0100     78.3900
    224     -6.9140      6.8930     -1.8870      1.5900     78.3900
    225     -6.3600      5.4130     -1.8850      2.1000     78.3900
    226     -7.2270      4.5640     -1.0460      1.5900     78.3900
    227     -6.1580      4.9680     -3.2790      1.5900     78.3900
    228     -4.9500      5.5080     -1.1910      1.5900     78.3900
    229     -3.9070      6.2920     -1.8180      1.7700     78.3900
    230     -4.2310      7.3410     -2.0060      0.0100     78.3900
    231     -3.6220      5.8420     -2.7990      0.0100     78.3900
    232     -2.6590      6.3360     -0.9350      1.7700     78.3900
    233     -1.8110      6.8180     -1.4690      0.0100     78.3900
    234     -2.9350      7.1430      0.2430      1.5900     78.3900
    235     -2.2910      6.5610      1.3680      1.7700     78.3900
    236     -1.6460      7.3650      1.7950      0.0100     78.3900
    237     -3.2610      6.1030      2.4030      1.6800     78.3900
    238     -4.5740      5.8540      2.0670      1.7700     78.3900
    239     -4.8470      6.0470      1.0310      0.0100     78.3900
    240     -5.4650      5.4410      2.9750      1.7700     78.3900
    241     -6.5120      5.2650      2.7300      0.0100     78.3900
    242     -2.8350      5.8850      3.7080      1.7700     78.3900
    243     -1.6420      6.0740      3.9940      1.5900     78.3900
    244     -3.7200      5.4690      4.6420      1.6800     78.3900
    245     -5.0030      5.2420      4.3060      1.7700     78.3900
    246     -5.8530      4.8410      5.2480      1.6800     78.3900
    247     -5.5360      4.7430      6.1950      0.0100     78.3900
    248     -6.8220      4.6880      5.0540      0.0100     78.3900
    249     -1.4060      5.4290      0.8570      1.7700     78.3900
    250     -1.3300      4.5970      1.5910      0.0100     78.3900
    251     -0.1080      5.9170      0.5450      1.5900     78.3900
    252      0.4050      5.2200      0.1020      0.0100     78.3900
    253     -2.1770      4.9870     -0.3820      1.7700     78.3900
    254     -3.0630      4.3850     -0.0870      0.0100     78.3900
    255     -1.3900      4.2940     -1.3660      1.5900     78.3900
    256     -1.0720      3.4500     -1.0000      0.0100     78.3900

 CREATION OF A NEW CAVITY WITH THE ORIGINAL SPHERE
 SIZES FOR THE COMPUTATION OF THE CAVITATION ENERGY.

     INPUT FOR CAVITY DEFINITION 
     ---------------------------
   ATOM               COORDINATES                RADIUS       EPS
      1     -2.5050      4.1180     15.8100      0.0100     78.3900
      2     -2.0820      4.4070     14.9810      1.5900     78.3900
      3     -0.6650      4.3570     15.2110      1.7700     78.3900
      4     -0.3770      3.3190     15.4930      0.0100     78.3900
      5     -0.3970      5.0240     16.0600      0.0100     78.3900
      6      0.1510      4.7680     13.9840      1.7700     78.3900
      7      1.2390      4.7400     14.2170      0.0100     78.3900
      8     -0.0840      3.8340     12.8840      1.5900     78.3900
      9     -0.1280      4.5640     11.6670      1.7700     78.3900
     10      0.6260      4.1020     10.9900      0.0100     78.3900
     11     -1.4440      4.4720     11.0240      1.6800     78.3900
     12     -1.7160      4.7340      9.7100      1.7700     78.3900
     13     -0.6570      5.7390      6.5740      1.6800     78.3900
     14      0.3160      5.9040      6.7140      0.0100     78.3900
     15     -1.0480      5.8710      5.6590      0.0100     78.3900
     16     -0.8280      5.1450      8.7920      1.6800     78.3900
     17     -1.3820      5.3280      7.5960      1.7700     78.3900
     18     -2.7030      5.0740      7.3360      1.6800     78.3900
     19     -3.0360      5.2180      6.3960      0.0100     78.3900
     20     -3.6420      4.6290      8.2590      1.7700     78.3900
     21     -4.8170      4.4220      7.9360      1.5900     78.3900
     22     -3.0630      4.4700      9.5480      1.7700     78.3900
     23     -3.6340      4.0640     10.7500      1.6800     78.3900
     24     -2.6310      4.0770     11.5990      1.7700     78.3900
     25     -2.6890      3.8090     12.6580      0.0100     78.3900
     26      0.2810      5.9870     11.9690      1.7700     78.3900
     27     -0.1980      6.7220     11.2910      0.0100     78.3900
     28      1.6870      6.0990     11.8820      1.5900     78.3900
     29      1.9040      6.9640     12.2500      0.0100     78.3900
     30     -0.1830      6.1560     13.4100      1.7700     78.3900
     31     -1.2930      6.2630     13.4510      0.0100     78.3900
     32      0.5140      7.1890     14.1590      1.5900     78.3900
     33     -0.0550      8.6640     14.1090      2.1000     78.3900
     34     -1.4750      8.6460     14.5190      1.5900     78.3900
     35      0.8390      9.5660     14.8680      1.5900     78.3900
     36      0.0470      9.0410     12.5830      1.5900     78.3900
     37      1.3420      9.4110     12.0370      1.7700     78.3900
     38      2.0780      8.5820     12.1330      0.0100     78.3900
     39      1.7670     10.2890     12.5790      0.0100     78.3900
     40      1.2460      9.7940     10.5540      1.7700     78.3900
     41      2.2600      9.9980     10.1400      0.0100     78.3900
     42      0.6750      8.7070      9.7760      1.5900     78.3900
     43     -0.1510      9.2520      8.7560      1.7700     78.3900
     44      0.2660      8.8650      7.8010      0.0100     78.3900
     45     -1.5690      8.8120      8.8630      1.6800     78.3900
     46     -2.0650      8.3600     10.0640      1.7700     78.3900
     47     -1.3630      8.3620     10.8970      0.0100     78.3900
     48     -3.3250      7.9220     10.1810      1.7700     78.3900
     49     -3.7220      7.5330     11.1150      0.0100     78.3900
     50     -2.4100      8.8860      7.7570      1.7700     78.3900
     51     -1.9720      9.3510      6.6910      1.5900     78.3900
     52     -3.6830      8.4400      7.8550      1.6800     78.3900
     53     -4.1470      7.9590      9.0200      1.7700     78.3900
     54     -5.3960      7.5030      9.0740      1.6800     78.3900
     55     -5.9610      7.5240      8.2450      0.0100     78.3900
     56     -5.7880      7.1040      9.9060      0.0100     78.3900
     57      0.0130     10.7640      8.7890      1.7700     78.3900
     58     -0.9140     11.2910      8.5000      0.0100     78.3900
     59      1.0760     11.1660      7.9370      1.5900     78.3900
     60      1.2450     12.1080      8.1070      0.0100     78.3900
     61      0.3480     10.9960     10.2560      1.7700     78.3900
     62     -0.5640     10.8710     10.8860      0.0100     78.3900
     63      1.0650     12.2160     10.5320      1.5900     78.3900
     64      0.2580     13.5060     10.9370      2.1000     78.3900
     65     -0.7740     13.1360     11.9330      1.5900     78.3900
     66      1.2320     14.5420     11.3460      1.5900     78.3900
     67     -0.4370     13.9920      9.6070      1.5900     78.3900
     68     -1.7000     14.7130      9.6710      1.7700     78.3900
     69     -1.5200     15.8020      9.5170      0.0100     78.3900
     70     -2.2090     14.6140     10.6590      0.0100     78.3900
     71     -2.7090     14.2170      8.6120      1.7700     78.3900
     72     -2.4140     14.5380      7.5910      0.0100     78.3900
     73     -2.7490     12.7600      8.6150      1.5900     78.3900
     74     -4.0830     12.3000      8.5530      1.7700     78.3900
     75     -4.1050     11.5720      7.7070      0.0100     78.3900
     76     -4.4870     11.6150      9.8160      1.6800     78.3900
     77     -3.7110     11.6850     10.9600      1.7700     78.3900
     78     -2.8010     12.2870     10.8890      0.0100     78.3900
     79     -5.6160     10.8250      9.7810      1.7700     78.3900
     80     -6.2860     10.6740      8.7650      1.5900     78.3900
     81     -5.9160     10.1900     10.9590      1.6800     78.3900
     82     -6.7390      9.6030     10.9610      0.0100     78.3900
     83     -5.1850     10.2000     12.1260      1.7700     78.3900
     84     -5.5530      9.5290     13.0880      1.5900     78.3900
     85     -4.0150     11.0210     12.0840      1.7700     78.3900
     86     -3.3810     11.0590     12.9640      0.0100     78.3900
     87     -4.9470     13.5060      8.2140      1.7700     78.3900
     88     -5.9740     13.4280      8.6300      0.0100     78.3900
     89     -5.0110     13.6770      6.8080      1.5900     78.3900
     90     -5.6630     13.0440      6.4590      0.0100     78.3900
     91     -4.1680     14.6290      8.8810      1.7700     78.3900
     92     -4.3180     14.5710      9.9870      0.0100     78.3900
     93     -4.4240     15.9400      8.3330      1.5900     78.3900
     94     -5.2810     16.9790      9.1380      2.1000     78.3900
     95     -4.7510     17.0500     10.5170      1.5900     78.3900
     96     -5.2760     18.2550      8.3910      1.5900     78.3900
     97     -6.7430     16.3970      9.1380      1.5900     78.3900
     98     -7.7130     16.9790     10.0470      1.7700     78.3900
     99     -7.7800     18.0860      9.9210      0.0100     78.3900
    100     -7.4210     16.7750     11.1030      0.0100     78.3900
    101     -9.1130     16.3800      9.8230      1.7700     78.3900
    102     -9.7900     16.6630     10.6600      0.0100     78.3900
    103     -9.7000     16.9440      8.6140      1.5900     78.3900
    104    -10.4660     15.9480      7.9540      1.7700     78.3900
    105    -11.4970     16.3630      7.8630      0.0100     78.3900
    106     -9.9410     15.6750      6.6170      1.6800     78.3900
    107     -9.7860     15.2920      4.4600      1.7700     78.3900
    108     -8.4850     15.4490      4.9210      1.6800     78.3900
    109     -8.6300     15.6670      6.2060      1.7700     78.3900
    110     -7.8170     15.8450      6.9160      0.0100     78.3900
    111    -11.6660     14.9350      3.0610      1.6800     78.3900
    112    -12.4060     15.0360      4.1680      1.7700     78.3900
    113    -13.4850     14.9180      4.0200      0.0100     78.3900
    114    -12.0250     15.2890      5.4250      1.6800     78.3900
    115    -10.6890     15.4110      5.4990      1.7700     78.3900
    116    -10.3200     15.0750      3.1730      1.7700     78.3900
    117     -9.5720     15.0580      2.0590      1.6800     78.3900
    118     -8.5770     14.9740      2.1090      0.0100     78.3900
    119    -10.0010     14.8060      1.1910      0.0100     78.3900
    120    -10.5000     14.7190      8.8280      1.7700     78.3900
    121    -10.5010     13.7800      8.2310      0.0100     78.3900
    122    -11.6420     14.7550      9.6660      1.5900     78.3900
    123    -11.5450     14.0040     10.2880      0.0100     78.3900
    124     -9.1970     14.8520      9.6270      1.7700     78.3900
    125     -8.3360     14.5460      8.9920      0.0100     78.3900
    126     -9.1450     14.1770     10.9080      1.5900     78.3900
    127     -9.5990     12.6710     11.0360      2.1000     78.3900
    128     -8.7950     11.9990     12.0740      1.5900     78.3900
    129    -11.0650     12.6980     11.2500      1.5900     78.3900
    130     -9.3080     11.9900      9.6440      1.5900     78.3900
    131     -9.7370     10.6170      9.4150      1.7700     78.3900
    132     -9.9920     10.0680     10.3550      0.0100     78.3900
    133     -8.8750     10.0690      8.9790      0.0100     78.3900
    134    -10.9520     10.5060      8.4610      1.7700     78.3900
    135    -11.8850     10.7560      9.0100      0.0100     78.3900
    136    -10.8170     11.4150      7.3370      1.5900     78.3900
    137    -10.3380     10.7020      6.2180      1.7700     78.3900
    138    -11.1710     10.7120      5.4820      0.0100     78.3900
    139     -9.1460     11.3220      5.6570      1.6800     78.3900
    140     -7.6780     12.1960      4.2800      1.7700     78.3900
    141     -7.1070     12.2540      5.5500      1.6800     78.3900
    142     -8.0230     11.7280      6.3300      1.7700     78.3900
    143     -7.9510     11.6270      7.4160      0.0100     78.3900
    144     -8.0470     12.3980      1.9450      1.6800     78.3900
    145     -9.2170     11.7890      2.1580      1.7700     78.3900
    146     -9.8380     11.6280      1.2680      0.0100     78.3900
    147     -9.7550     11.3760      3.3080      1.6800     78.3900
    148     -8.9270     11.6090      4.3360      1.7700     78.3900
    149     -7.2400     12.6330      3.0100      1.7700     78.3900
    150     -6.0940     13.3050      2.8040      1.6800     78.3900
    151     -5.4890     13.5700      3.5540      0.0100     78.3900
    152     -5.8530     13.5910      1.8730      0.0100     78.3900
    153    -10.0870      9.2820      6.6410      1.7700     78.3900
    154     -9.0450      9.1510      7.0080      0.0100     78.3900
    155    -10.3190      8.4330      5.5540      1.5900     78.3900
    156    -10.3510      7.5160      5.8650      0.0100     78.3900
    157    -11.0750      9.1110      7.8010      1.7700     78.3900
    158    -10.6650      8.3680      8.5260      0.0100     78.3900
    159    -12.4560      8.7780      7.4660      1.5900     78.3900
    160    -12.8400      7.3260      6.9620      2.1000     78.3900
    161    -11.7090      6.4170      7.2630      1.5900     78.3900
    162    -14.1530      6.9410      7.5170      1.5900     78.3900
    163    -12.9670      7.4800      5.3990      1.5900     78.3900
    164    -13.6300      6.5120      4.5650      1.7700     78.3900
    165    -14.6580      6.3220      4.9530      0.0100     78.3900
    166    -13.0890      5.5390      4.5820      0.0100     78.3900
    167    -13.7720      6.9630      3.0940      1.7700     78.3900
    168    -14.1960      6.1230      2.5020      0.0100     78.3900
    169    -14.6910      8.0730      3.0050      1.5900     78.3900
    170    -13.9940      9.2870      2.7460      1.7700     78.3900
    171    -14.2790      9.5970      1.7160      0.0100     78.3900
    172    -14.3870     10.3520      3.7220      1.6800     78.3900
    173    -13.4340     11.2280      4.2060      1.7700     78.3900
    174    -12.3990     11.1000      3.8820      0.0100     78.3900
    175    -13.7550     12.1870      5.0850      1.7700     78.3900
    176    -13.0090     12.8480      5.5210      0.0100     78.3900
    177    -15.7390     10.5820      4.0280      1.7700     78.3900
    178    -16.6280      9.9300      3.4540      1.5900     78.3900
    179    -16.0680     11.5230      4.9390      1.6800     78.3900
    180    -15.1210     12.3100      5.4670      1.7700     78.3900
    181    -15.4950     13.2370      6.3460      1.6800     78.3900
    182    -16.4620     13.2790      6.6090      0.0100     78.3900
    183    -14.8550     13.8830      6.7620      0.0100     78.3900
    184    -12.5060      8.9520      2.7600      1.7700     78.3900
    185    -12.0830      9.0570      3.7830      0.0100     78.3900
    186    -11.7850      9.7560      1.8450      1.5900     78.3900
    187    -10.8430      9.5570      1.9260      0.0100     78.3900
    188    -12.5040      7.4740      2.3850      1.7700     78.3900
    189    -11.6250      6.9900      2.8740      0.0100     78.3900
    190    -12.5600      7.2410      0.9530      1.5900     78.3900
    191    -11.7040      6.1010      0.3080      2.1000     78.3900
    192    -11.6250      4.9820      1.2670      1.5900     78.3900
    193    -12.2550      5.7980     -1.0310      1.5900     78.3900
    194    -10.2740      6.7430      0.1430      1.5900     78.3900
    195     -9.9850      7.5360     -1.0330      1.7700     78.3900
    196    -10.7860      8.2900     -1.2140      0.0100     78.3900
    197     -9.9200      6.8710     -1.9250      0.0100     78.3900
    198     -8.6600      8.3020     -0.9000      1.7700     78.3900
    199     -8.4730      8.9280     -1.8010      0.0100     78.3900
    200     -8.7230      9.1960      0.2510      1.5900     78.3900
    201     -7.4670      9.1800      0.9230      1.7700     78.3900
    202     -7.1200     10.2330      1.0120      0.0100     78.3900
    203     -7.5820      8.5820      2.2540      1.6800     78.3900
    204     -6.6770      8.6790      3.2750      1.7700     78.3900
    205     -3.6860      9.8560      4.5440      1.6800     78.3900
    206     -3.2740     10.3020      3.7490      0.0100     78.3900
    207     -3.1300      9.7210      5.3700      0.0100     78.3900
    208     -5.5170      9.3530      3.2420      1.6800     78.3900
    209     -4.8770      9.3050      4.4090      1.7700     78.3900
    210     -5.3860      8.6910      5.5220      1.6800     78.3900
    211     -4.8330      8.7020      6.3660      0.0100     78.3900
    212     -6.5850      7.9950      5.5870      1.7700     78.3900
    213     -6.9680      7.4690      6.6380      1.5900     78.3900
    214     -7.2180      7.9550      4.3160      1.7700     78.3900
    215     -8.3850      7.3320      3.9180      1.6800     78.3900
    216     -8.5880      7.7650      2.7050      1.7700     78.3900
    217     -9.4760      7.5750      2.1060      0.0100     78.3900
    218     -6.4930      8.4100      0.0600      1.7700     78.3900
    219     -5.7220      7.8810      0.6570      0.0100     78.3900
[...]
   204    7   6.0   0.00    0.0    0.000000    0.698907    0.707269
   205    7   7.0  11.94   23.4   -0.081390   -0.974045   -1.054459
   206    7   1.0   0.00    0.0    0.000000    0.441367    0.436496
   207    7   1.0   0.00    0.0    0.000000    0.471278    0.520166
   208    7   7.0   2.60    5.1    0.047972   -0.748478   -0.752404
   209    7   6.0   0.00    0.0    0.000000    0.982145    0.985962
   210    7   7.0   0.00    0.0   -0.000000   -0.924867   -1.015087
   211    7   1.0   0.00    0.0    0.000000    0.482561    0.543826
   212    7   6.0   0.00    0.0    0.000000    0.874515    0.897239
   213    7   8.0   5.65   12.4    0.106382   -0.758401   -0.751456
   214    7   6.0   0.00    0.0    0.000000   -0.053533   -0.049787
   215    7   7.0   5.65   11.1    0.102939   -0.567689   -0.573078
   216    7   6.0   2.62    4.6    0.006528    0.269743    0.256643
   217    7   1.0   0.00    0.0    0.000000    0.260714    0.281489
   218    7   6.0   0.30    0.5    0.007419    0.142848    0.120643
   219    7   1.0   0.00    0.0    0.000000    0.189644    0.217708
   220    7   8.0  16.41   35.9    0.079202   -0.825152   -0.843583
   221    7   1.0   0.00    0.0    0.000000    0.494771    0.519049
   222    7   6.0   0.57    1.0   -0.003934    0.132794    0.100326
   223    7   1.0   0.00    0.0    0.000000    0.247228    0.250156
   224    7   8.0   4.74   10.4    0.061449   -0.799511   -0.806837
   225    7  15.0   7.57    9.5    0.124834    1.603642    1.656480
   226    7   8.0  13.19   28.8    0.295089   -0.891584   -0.889274
   227    7   8.0  18.18   39.7    0.363980   -0.892465   -0.889089
   228    7   8.0   0.77    1.7    0.015465   -0.968947   -0.781435
   229    8   6.0  12.40   21.9   -0.092551    0.197770   -0.022628
   230    8   1.0   0.00    0.0    0.000000    0.168335    0.173777
   231    8   1.0   0.00    0.0    0.000000    0.239242    0.223229
   232    8   6.0   5.77   10.2   -0.049677    0.086224    0.147642
   233    8   1.0   0.00    0.0    0.000000    0.251170    0.223331
   234    8   8.0   5.41   11.8    0.056694   -0.727888   -0.736892
   235    8   6.0   5.37    9.5   -0.043814    0.418049    0.417592
   236    8   1.0   0.00    0.0    0.000000    0.255040    0.246986
   237    8   7.0   0.00    0.0    0.000000   -0.826002   -0.834491
   238    8   6.0   0.98    1.7   -0.002946    0.195000    0.176236
   239    8   1.0   0.00    0.0    0.000000    0.302172    0.324932
   240    8   6.0   7.94   14.0   -0.034828   -0.390539   -0.403102
   241    8   1.0   0.00    0.0    0.000000    0.276037    0.281300
   242    8   6.0   1.34    2.4   -0.003319    1.068543    1.078629
   243    8   8.0   8.78   19.2    0.143908   -0.801621   -0.770845
   244    8   7.0   2.44    4.8    0.025759   -0.872190   -0.866204
   245    8   6.0   1.46    2.6   -0.002156    0.720048    0.731233
   246    8   7.0  12.37   24.2   -0.074859   -0.944643   -0.997131
   247    8   1.0   0.00    0.0    0.000000    0.464094    0.502894
   248    8   1.0   0.00    0.0    0.000000    0.449312    0.447064
   249    8   6.0   6.24   11.0   -0.064355    0.119052    0.119855
   250    8   1.0   0.00    0.0    0.000000    0.226969    0.226782
   251    8   8.0  20.72   45.3    0.036338   -0.842624   -0.845759
   252    8   1.0   0.00    0.0    0.000000    0.507125    0.508321
   253    8   6.0   4.92    8.7   -0.033073    0.170872    0.153066
   254    8   1.0   0.00    0.0    0.000000    0.215635    0.218428
   255    8   8.0  22.57   49.3   -0.011341   -0.850589   -0.853048
   256    8   1.0   0.00    0.0    0.000000    0.508828    0.509054

 Done with FMO properties.
 CPU     0: STEP CPU TIME=     0.00 TOTAL CPU TIME=      14835.5 (    247.3 MIN)
 TOTAL WALL CLOCK TIME=      30369.2 SECONDS, CPU UTILIZATION IS    48.85%
 CPU     0: STEP CPU TIME=     0.00 TOTAL CPU TIME=      14835.5 (    247.3 MIN)
 TOTAL WALL CLOCK TIME=      30369.3 SECONDS, CPU UTILIZATION IS    48.85%

 Total timing statistics in pairs (CPU,wall) for each rank, sec

    Rank   total     SCF    corr     DFT    CPHF     EFP    solv     ESP    geom
 -------------------------------------------------------------------------------
       1   14835.5   3898.0   6221.7      0.0    0.0   0.0   86.6  4458.3    0.0
       1   30369.4   8231.9  12578.5      0.0    0.0   0.0  266.2  8878.0    0.0
       2   14854.3   3897.0   6395.9      0.0    0.0   0.0   86.9  4284.4    0.0
       2   30369.4   8232.0  12578.5      0.0    0.0   0.0  266.6  8877.4    0.0
       3   15316.9   3959.5   6465.1      0.0    0.0   0.0   87.4  4626.0    0.0
       3   30369.4   8231.9  12578.4      0.0    0.0   0.0  266.5  8877.5    0.0
       4   12188.2   3697.9   4042.8      0.0    0.0   0.0   87.0  4190.9    0.0
       4   30369.3   8232.2  12578.4      0.0    0.0   0.0  265.9  8877.3    0.0
       5   15162.8   3959.4   6333.5      0.0    0.0   0.0   86.6  4604.8    0.0
       5   30369.4   8232.2  12578.5      0.0    0.0   0.0  266.4  8877.6    0.0
       6   13456.1   3836.4   5049.3      0.0    0.0   0.0   86.8  4316.6    0.0
       6   30369.3   8232.6  12578.4      0.0    0.0   0.0  265.8  8877.4    0.0
       7   12033.6   3768.2   3831.7      0.0    0.0   0.0   86.1  4190.8    0.0
       7   30369.4   8232.5  12578.4      0.0    0.0   0.0  265.8  8877.4    0.0
       8   12072.5   3691.2   3930.0      0.0    0.0   0.0   86.0  4208.0    0.0
       8   30369.4   8233.0  12578.4      0.0    0.0   0.0  265.1  8877.4    0.0
       9   15603.2   3971.4   6757.6      0.0    0.0   0.0   85.4  4609.2    0.0
       9   30369.3   8233.4  12578.4      0.0    0.0   0.0  265.1  8877.6    0.0
      10   15431.3   3985.5   6546.1      0.0    0.0   0.0   86.1  4629.8    0.0
      10   30369.3   8233.1  12578.4      0.0    0.0   0.0  265.2  8877.5    0.0
      11   15204.3   3980.1   6477.8      0.0    0.0   0.0   85.9  4468.1    0.0
      11   30369.3   8233.6  12578.4      0.0    0.0   0.0  264.9  8877.5    0.0
      12   12343.7   3766.8   4067.3      0.0    0.0   0.0   85.4  4264.5    0.0
      12   30369.4   8233.4  12578.4      0.0    0.0   0.0  264.7  8877.4    0.0
      13   13324.8   3778.4   5071.6      0.0    0.0   0.0   84.8  4217.8    0.0
      13   30369.4   8234.6  12578.4      0.0    0.0   0.0  264.2  8877.5    0.0
      14   13030.8   3754.9   4801.3      0.0    0.0   0.0   85.1  4225.6    0.0
      14   30369.3   8233.9  12578.4      0.0    0.0   0.0  264.6  8877.4    0.0
      15   12650.5   3779.7   4504.1      0.0    0.0   0.0   85.1  4127.2    0.0
      15   30369.4   8234.2  12578.4      0.0    0.0   0.0  264.3  8877.3    0.0
      16   14960.3   3954.4   6235.2      0.0    0.0   0.0   84.5  4512.7    0.0
      16   30369.3   8234.2  12578.4      0.0    0.0   0.0  263.8  8877.3    0.0
averaged   13904.3   3854.9   5420.7      0.0    0.0   0.0   86.0  4370.9    0.0
averaged   30369.4   8233.0  12578.4      0.0    0.0   0.0  265.3  8877.5    0.0

  FMO  timing statistics in pairs (CPU,wall) for each rank, sec

    Rank  FMOini FMOscf1  FMOdm1 FMOsyn1 FMOscf2  FMOes2 FMOsyn2 FMOscf3 FMOsyn3
 -------------------------------------------------------------------------------
       1    1.6    5162.2    0.2    0.0    9556.9     114.5    0.0    0.0    0.0
       1    3.9   11009.8    0.4    0.0   19109.6     245.4    0.0    0.0    0.0
       2    1.2    4956.7    0.1    0.0    9758.3     138.0    0.0    0.0    0.0
       2    3.9   11009.8    0.4    0.0   19111.2     243.8    0.0    0.0    0.0
       3    1.3    5247.7    0.1    0.0    9942.3     125.4    0.0    0.0    0.0
       3    3.9   11009.8    0.4    0.0   19110.3     244.6    0.0    0.0    0.0
       4    1.2    5292.7    0.1    0.0    6778.1     116.1    0.0    0.0    0.0
       4    3.9   11009.8    0.4    0.0   19109.8     245.2    0.0    0.0    0.0
       5    1.4    5299.6    0.2    0.0    9736.6     124.8    0.0    0.0    0.0
       5    3.9   11009.8    0.4    0.0   19110.5     244.5    0.0    0.0    0.0
       6    1.2    5189.6    0.1    0.0    8150.0     115.3    0.0    0.0    0.0
       6    3.9   11009.8    0.4    0.0   19110.5     244.4    0.0    0.0    0.0
       7    1.3    5258.7    0.1    0.0    6669.8     103.6    0.0    0.0    0.0
       7    3.9   11009.8    0.4    0.0   19110.4     244.5    0.0    0.0    0.0
       8    1.1    5308.6    0.1    0.0    6657.2     105.4    0.0    0.0    0.0
       8    3.9   11009.8    0.4    0.0   19109.9     245.0    0.0    0.0    0.0
       9    1.4    5250.2    0.2    0.0   10224.8     126.6    0.0    0.0    0.0
       9    3.9   11009.8    0.4    0.0   19110.3     244.6    0.0    0.0    0.0
      10    1.1    5348.2    0.1    0.0    9949.6     132.4    0.0    0.0    0.0
      10    3.9   11009.8    0.4    0.0   19110.4     244.6    0.0    0.0    0.0
      11    1.2    5165.5    0.1    0.0    9897.2     140.3    0.0    0.0    0.0
      11    3.9   11009.8    0.4    0.0   19110.9     244.0    0.0    0.0    0.0
      12    1.1    5325.5    0.1    0.0    6907.8     109.2    0.0    0.0    0.0
      12    3.9   11009.8    0.4    0.0   19110.1     244.8    0.0    0.0    0.0
      13    1.3    5168.0    0.2    0.0    8034.7     120.7    0.0    0.0    0.0
      13    3.9   11009.8    0.4    0.0   19110.8     244.1    0.0    0.0    0.0
      14    1.1    5261.6    0.1    0.0    7654.5     113.5    0.0    0.0    0.0
      14    3.9   11009.8    0.4    0.0   19111.0     243.9    0.0    0.0    0.0
      15    1.2    5131.2    0.1    0.0    7414.0     104.0    0.0    0.0    0.0
      15    3.9   11009.8    0.4    0.0   19110.9     244.0    0.0    0.0    0.0
      16    1.1    5127.2    0.0    0.0    9708.2     123.9    0.0    0.0    0.0
      16    3.9   11009.8    0.4    0.0   19110.7     244.3    0.0    0.0    0.0
averaged    1.2    5218.3    0.1    0.0    8565.0     119.6    0.0    0.0    0.0
averaged    3.9   11009.8    0.4    0.0   19110.4     244.5    0.0    0.0    0.0
             62778062  WORDS OF DYNAMIC MEMORY USED
 EXECUTION OF GAMESS TERMINATED NORMALLY Sun Nov 17 02:18:06 2019
 DDI: 263640 bytes (0.3 MB / 0 MWords) used by master data server.

 ----------------------------------------
 CPU timing information for all processes
 ========================================
 0: 14445.820 + 389.707 = 14835.528
 1: 14486.888 + 367.507 = 14854.395
 2: 14947.463 + 369.519 = 15316.982
 3: 11925.390 + 262.866 = 12188.256
 4: 14782.967 + 379.851 = 15162.818
 5: 13149.517 + 306.689 = 13456.206
 6: 11775.490 + 258.129 = 12033.620
 7: 11818.794 + 253.816 = 12072.610
 8: 15201.853 + 401.363 = 15603.216
 9: 15061.581 + 369.832 = 15431.413
 10: 14833.860 + 370.465 = 15204.326
 11: 12088.660 + 255.113 = 12343.774
 12: 13017.632 + 307.275 = 13324.907
 13: 12747.166 + 283.727 = 13030.894
 14: 12370.839 + 279.701 = 12650.540
 15: 14609.353 + 351.44 = 14960.398
 ----------------------------------------
 ddikick.x: exited gracefully.
----- accounting info -----
Files used on the master node gollum048.lsa.umich.edu were:
-rw-r--r-- 1 hazwong frank    13408 Nov 16 17:51 /scratch/hazwong/636415/4A4R_5/usrc/4A4R_5_fmo_input.F05
-rw-r--r-- 1 hazwong frank      634 Nov 17 02:18 /scratch/hazwong/636415/4A4R_5/usrc/4A4R_5_fmo_input.F06.001
-rw-r--r-- 1 hazwong frank      634 Nov 17 02:18 /scratch/hazwong/636415/4A4R_5/usrc/4A4R_5_fmo_input.F06.002
-rw-r--r-- 1 hazwong frank      634 Nov 17 02:18 /scratch/hazwong/636415/4A4R_5/usrc/4A4R_5_fmo_input.F06.003
-rw-r--r-- 1 hazwong frank      634 Nov 17 02:18 /scratch/hazwong/636415/4A4R_5/usrc/4A4R_5_fmo_input.F06.004
-rw-r--r-- 1 hazwong frank      634 Nov 17 02:18 /scratch/hazwong/636415/4A4R_5/usrc/4A4R_5_fmo_input.F06.005
-rw-r--r-- 1 hazwong frank      634 Nov 17 02:18 /scratch/hazwong/636415/4A4R_5/usrc/4A4R_5_fmo_input.F06.006
-rw-r--r-- 1 hazwong frank      634 Nov 17 02:18 /scratch/hazwong/636415/4A4R_5/usrc/4A4R_5_fmo_input.F06.007
-rw-r--r-- 1 hazwong frank      634 Nov 17 02:18 /scratch/hazwong/636415/4A4R_5/usrc/4A4R_5_fmo_input.F06.008
-rw-r--r-- 1 hazwong frank      634 Nov 17 02:18 /scratch/hazwong/636415/4A4R_5/usrc/4A4R_5_fmo_input.F06.009
-rw-r--r-- 1 hazwong frank      634 Nov 17 02:18 /scratch/hazwong/636415/4A4R_5/usrc/4A4R_5_fmo_input.F06.010
-rw-r--r-- 1 hazwong frank      634 Nov 17 02:18 /scratch/hazwong/636415/4A4R_5/usrc/4A4R_5_fmo_input.F06.011
-rw-r--r-- 1 hazwong frank      634 Nov 17 02:18 /scratch/hazwong/636415/4A4R_5/usrc/4A4R_5_fmo_input.F06.012
-rw-r--r-- 1 hazwong frank      634 Nov 17 02:18 /scratch/hazwong/636415/4A4R_5/usrc/4A4R_5_fmo_input.F06.013
-rw-r--r-- 1 hazwong frank      634 Nov 17 02:18 /scratch/hazwong/636415/4A4R_5/usrc/4A4R_5_fmo_input.F06.014
-rw-r--r-- 1 hazwong frank      634 Nov 17 02:18 /scratch/hazwong/636415/4A4R_5/usrc/4A4R_5_fmo_input.F06.015
-rw-r--r-- 1 hazwong frank     6172 Nov 17 02:18 /scratch/hazwong/636415/4A4R_5/usrc/4A4R_5_fmo_input.F07
-rw-r--r-- 1 hazwong frank        0 Nov 16 17:51 /scratch/hazwong/636415/4A4R_5/usrc/4A4R_5_fmo_input.F07.001
-rw-r--r-- 1 hazwong frank        0 Nov 16 17:51 /scratch/hazwong/636415/4A4R_5/usrc/4A4R_5_fmo_input.F07.002
-rw-r--r-- 1 hazwong frank        0 Nov 16 17:51 /scratch/hazwong/636415/4A4R_5/usrc/4A4R_5_fmo_input.F07.003
-rw-r--r-- 1 hazwong frank        0 Nov 16 17:51 /scratch/hazwong/636415/4A4R_5/usrc/4A4R_5_fmo_input.F07.004
-rw-r--r-- 1 hazwong frank        0 Nov 16 17:51 /scratch/hazwong/636415/4A4R_5/usrc/4A4R_5_fmo_input.F07.005
-rw-r--r-- 1 hazwong frank        0 Nov 16 17:51 /scratch/hazwong/636415/4A4R_5/usrc/4A4R_5_fmo_input.F07.006
-rw-r--r-- 1 hazwong frank        0 Nov 16 17:51 /scratch/hazwong/636415/4A4R_5/usrc/4A4R_5_fmo_input.F07.007
-rw-r--r-- 1 hazwong frank        0 Nov 16 17:51 /scratch/hazwong/636415/4A4R_5/usrc/4A4R_5_fmo_input.F07.008
-rw-r--r-- 1 hazwong frank        0 Nov 16 17:51 /scratch/hazwong/636415/4A4R_5/usrc/4A4R_5_fmo_input.F07.009
-rw-r--r-- 1 hazwong frank        0 Nov 16 17:51 /scratch/hazwong/636415/4A4R_5/usrc/4A4R_5_fmo_input.F07.010
-rw-r--r-- 1 hazwong frank        0 Nov 16 17:51 /scratch/hazwong/636415/4A4R_5/usrc/4A4R_5_fmo_input.F07.011
-rw-r--r-- 1 hazwong frank        0 Nov 16 17:51 /scratch/hazwong/636415/4A4R_5/usrc/4A4R_5_fmo_input.F07.012
-rw-r--r-- 1 hazwong frank        0 Nov 16 17:51 /scratch/hazwong/636415/4A4R_5/usrc/4A4R_5_fmo_input.F07.013
-rw-r--r-- 1 hazwong frank        0 Nov 16 17:51 /scratch/hazwong/636415/4A4R_5/usrc/4A4R_5_fmo_input.F07.014
-rw-r--r-- 1 hazwong frank        0 Nov 16 17:51 /scratch/hazwong/636415/4A4R_5/usrc/4A4R_5_fmo_input.F07.015
-rw-r--r-- 1 hazwong frank    65440 Nov 17 02:18 /scratch/hazwong/636415/4A4R_5/usrc/4A4R_5_fmo_input.F10.000
-rw-r--r-- 1 hazwong frank        0 Nov 16 17:51 /scratch/hazwong/636415/4A4R_5/usrc/4A4R_5_fmo_input.F26.000
-rw-r--r-- 1 hazwong frank        0 Nov 16 17:51 /scratch/hazwong/636415/4A4R_5/usrc/4A4R_5_fmo_input.F26.001
-rw-r--r-- 1 hazwong frank        0 Nov 16 17:51 /scratch/hazwong/636415/4A4R_5/usrc/4A4R_5_fmo_input.F26.002
-rw-r--r-- 1 hazwong frank        0 Nov 16 17:51 /scratch/hazwong/636415/4A4R_5/usrc/4A4R_5_fmo_input.F26.003
-rw-r--r-- 1 hazwong frank        0 Nov 16 17:51 /scratch/hazwong/636415/4A4R_5/usrc/4A4R_5_fmo_input.F26.004
-rw-r--r-- 1 hazwong frank        0 Nov 16 17:51 /scratch/hazwong/636415/4A4R_5/usrc/4A4R_5_fmo_input.F26.005
-rw-r--r-- 1 hazwong frank        0 Nov 16 17:51 /scratch/hazwong/636415/4A4R_5/usrc/4A4R_5_fmo_input.F26.006
-rw-r--r-- 1 hazwong frank        0 Nov 16 17:51 /scratch/hazwong/636415/4A4R_5/usrc/4A4R_5_fmo_input.F26.007
-rw-r--r-- 1 hazwong frank        0 Nov 16 17:51 /scratch/hazwong/636415/4A4R_5/usrc/4A4R_5_fmo_input.F26.008
-rw-r--r-- 1 hazwong frank        0 Nov 16 17:51 /scratch/hazwong/636415/4A4R_5/usrc/4A4R_5_fmo_input.F26.009
-rw-r--r-- 1 hazwong frank        0 Nov 16 17:51 /scratch/hazwong/636415/4A4R_5/usrc/4A4R_5_fmo_input.F26.010
-rw-r--r-- 1 hazwong frank        0 Nov 16 17:51 /scratch/hazwong/636415/4A4R_5/usrc/4A4R_5_fmo_input.F26.011
-rw-r--r-- 1 hazwong frank        0 Nov 16 17:51 /scratch/hazwong/636415/4A4R_5/usrc/4A4R_5_fmo_input.F26.012
-rw-r--r-- 1 hazwong frank        0 Nov 16 17:51 /scratch/hazwong/636415/4A4R_5/usrc/4A4R_5_fmo_input.F26.013
-rw-r--r-- 1 hazwong frank        0 Nov 16 17:51 /scratch/hazwong/636415/4A4R_5/usrc/4A4R_5_fmo_input.F26.014
-rw-r--r-- 1 hazwong frank        0 Nov 16 17:51 /scratch/hazwong/636415/4A4R_5/usrc/4A4R_5_fmo_input.F26.015
-rw-r--r-- 1 hazwong frank        0 Nov 16 17:51 /scratch/hazwong/636415/4A4R_5/usrc/4A4R_5_fmo_input.F27.000
-rw-r--r-- 1 hazwong frank        0 Nov 16 17:51 /scratch/hazwong/636415/4A4R_5/usrc/4A4R_5_fmo_input.F27.001
-rw-r--r-- 1 hazwong frank        0 Nov 16 17:51 /scratch/hazwong/636415/4A4R_5/usrc/4A4R_5_fmo_input.F27.002
-rw-r--r-- 1 hazwong frank        0 Nov 16 17:51 /scratch/hazwong/636415/4A4R_5/usrc/4A4R_5_fmo_input.F27.003
-rw-r--r-- 1 hazwong frank        0 Nov 16 17:51 /scratch/hazwong/636415/4A4R_5/usrc/4A4R_5_fmo_input.F27.004
-rw-r--r-- 1 hazwong frank        0 Nov 16 17:51 /scratch/hazwong/636415/4A4R_5/usrc/4A4R_5_fmo_input.F27.005
-rw-r--r-- 1 hazwong frank        0 Nov 16 17:51 /scratch/hazwong/636415/4A4R_5/usrc/4A4R_5_fmo_input.F27.006
-rw-r--r-- 1 hazwong frank        0 Nov 16 17:51 /scratch/hazwong/636415/4A4R_5/usrc/4A4R_5_fmo_input.F27.007
-rw-r--r-- 1 hazwong frank        0 Nov 16 17:51 /scratch/hazwong/636415/4A4R_5/usrc/4A4R_5_fmo_input.F27.008
-rw-r--r-- 1 hazwong frank        0 Nov 16 17:51 /scratch/hazwong/636415/4A4R_5/usrc/4A4R_5_fmo_input.F27.009
-rw-r--r-- 1 hazwong frank        0 Nov 16 17:51 /scratch/hazwong/636415/4A4R_5/usrc/4A4R_5_fmo_input.F27.010
-rw-r--r-- 1 hazwong frank        0 Nov 16 17:51 /scratch/hazwong/636415/4A4R_5/usrc/4A4R_5_fmo_input.F27.011
-rw-r--r-- 1 hazwong frank        0 Nov 16 17:51 /scratch/hazwong/636415/4A4R_5/usrc/4A4R_5_fmo_input.F27.012
-rw-r--r-- 1 hazwong frank        0 Nov 16 17:51 /scratch/hazwong/636415/4A4R_5/usrc/4A4R_5_fmo_input.F27.013
-rw-r--r-- 1 hazwong frank        0 Nov 16 17:51 /scratch/hazwong/636415/4A4R_5/usrc/4A4R_5_fmo_input.F27.014
-rw-r--r-- 1 hazwong frank        0 Nov 16 17:51 /scratch/hazwong/636415/4A4R_5/usrc/4A4R_5_fmo_input.F27.015
-rw-r--r-- 1 hazwong frank 16236544 Nov 16 20:55 /scratch/hazwong/636415/4A4R_5/usrc/4A4R_5_fmo_input.F40.000
-rw-r--r-- 1 hazwong frank 16236544 Nov 16 20:55 /scratch/hazwong/636415/4A4R_5/usrc/4A4R_5_fmo_input.F40.001
-rw-r--r-- 1 hazwong frank 16236544 Nov 16 20:55 /scratch/hazwong/636415/4A4R_5/usrc/4A4R_5_fmo_input.F40.002
-rw-r--r-- 1 hazwong frank 16236544 Nov 16 20:55 /scratch/hazwong/636415/4A4R_5/usrc/4A4R_5_fmo_input.F40.003
-rw-r--r-- 1 hazwong frank 16236544 Nov 16 20:55 /scratch/hazwong/636415/4A4R_5/usrc/4A4R_5_fmo_input.F40.004
-rw-r--r-- 1 hazwong frank 16236544 Nov 16 20:55 /scratch/hazwong/636415/4A4R_5/usrc/4A4R_5_fmo_input.F40.005
-rw-r--r-- 1 hazwong frank 16236544 Nov 16 20:55 /scratch/hazwong/636415/4A4R_5/usrc/4A4R_5_fmo_input.F40.006
-rw-r--r-- 1 hazwong frank 16236544 Nov 16 20:55 /scratch/hazwong/636415/4A4R_5/usrc/4A4R_5_fmo_input.F40.007
-rw-r--r-- 1 hazwong frank 16236544 Nov 16 20:55 /scratch/hazwong/636415/4A4R_5/usrc/4A4R_5_fmo_input.F40.008
-rw-r--r-- 1 hazwong frank 16236544 Nov 16 20:55 /scratch/hazwong/636415/4A4R_5/usrc/4A4R_5_fmo_input.F40.009
-rw-r--r-- 1 hazwong frank 16236544 Nov 16 20:55 /scratch/hazwong/636415/4A4R_5/usrc/4A4R_5_fmo_input.F40.010
-rw-r--r-- 1 hazwong frank 16236544 Nov 16 20:55 /scratch/hazwong/636415/4A4R_5/usrc/4A4R_5_fmo_input.F40.011
-rw-r--r-- 1 hazwong frank 16236544 Nov 16 20:55 /scratch/hazwong/636415/4A4R_5/usrc/4A4R_5_fmo_input.F40.012
-rw-r--r-- 1 hazwong frank 16236544 Nov 16 20:55 /scratch/hazwong/636415/4A4R_5/usrc/4A4R_5_fmo_input.F40.013
-rw-r--r-- 1 hazwong frank 16236544 Nov 16 20:55 /scratch/hazwong/636415/4A4R_5/usrc/4A4R_5_fmo_input.F40.014
-rw-r--r-- 1 hazwong frank 16236544 Nov 16 20:55 /scratch/hazwong/636415/4A4R_5/usrc/4A4R_5_fmo_input.F40.015
Sun Nov 17 02:18:09 EST 2019
0.190u 0.083s 8:26:12.93 0.0%	0+0k 1544+120io 25pf+0w
