----- GAMESS execution script 'rungms' -----
This job is running on host gollum050.lsa.umich.edu
under operating system Linux at Sat Nov 16 17:56:27 EST 2019
Available scratch disk space (Kbyte units) at beginning of the job is
Filesystem     1K-blocks  Used Available Use% Mounted on
/dev/sda4      426933580 33492 426900088   1% /scratch
GAMESS temporary binary files will be written to /scratch/hazwong/636425/4A4S_4/usrc
GAMESS supplementary output files will be written to /scratch/hazwong/636425/4A4S_4/src
Copying input file 4A4S_4_fmo_input.inp to your run's scratch directory...
This is a GDDI run, keeping various output files on local disks
 
Assuming a single but multicore node.
 

 Distributed Data Interface kickoff program.
 Initiating 16 compute processes on 1 nodes to run the following command:
 /export/apps/CentOS7/gamess/src/build//gamess.R3.x 4A4S_4_fmo_input 

          ******************************************************
          *         GAMESS VERSION = 30 SEP 2018 (R3)         *
          *             FROM IOWA STATE UNIVERSITY             *
          * M.W.SCHMIDT, K.K.BALDRIDGE, J.A.BOATZ, S.T.ELBERT, *
          *   M.S.GORDON, J.H.JENSEN, S.KOSEKI, N.MATSUNAGA,   *
          *          K.A.NGUYEN, S.J.SU, T.L.WINDUS,           *
          *       TOGETHER WITH M.DUPUIS, J.A.MONTGOMERY       *
          *         J.COMPUT.CHEM.  14, 1347-1363(1993)        *
          **************** 64 BIT LINUX VERSION ****************

  SINCE 1993, STUDENTS AND POSTDOCS WORKING AT IOWA STATE UNIVERSITY
  AND ALSO IN THEIR VARIOUS JOBS AFTER LEAVING ISU HAVE MADE IMPORTANT
  CONTRIBUTIONS TO THE CODE:
     IVANA ADAMOVIC, CHRISTINE AIKENS, YURI ALEXEEV, POOJA ARORA,
     ANDREY ASADCHEV, ROB BELL, PRADIPTA BANDYOPADHYAY, JONATHAN BENTZ,
     BRETT BODE, KURT BRORSEN, CALEB CARLIN, GALINA CHABAN, WEI CHEN,
     CHEOL HO CHOI, PAUL DAY, ALBERT DEFUSCO, NUWAN DESILVA, TIM DUDLEY,
     DMITRI FEDOROV, ALEX FINDLATER, GRAHAM FLETCHER, MARK FREITAG,
     KURT GLAESEMANN, ANASTASIA GUNINA,
     DAN KEMP, GRANT MERRILL, NORIYUKI MINEZAWA, JONATHAN MULLIN,
     TAKESHI NAGATA, SEAN NEDD, HEATHER NETZLOFF, BOSILJKA NJEGIC, RYAN OLSON,
     MIKE PAK, BUU PHAM,
     SPENCER PRUITT, LUKE ROSKOP, JIM SHOEMAKER, LYUDMILA SLIPCHENKO,
     TONY SMITH, SAROM SOK LEANG, JIE SONG, TETSUYA TAKETSUGU, SIMON WEBB,
     PENG XU, SOOHAENG YOO, FEDERICO ZAHARIEV

  ADDITIONAL CODE HAS BEEN PROVIDED BY COLLABORATORS IN OTHER GROUPS:
     IOWA STATE UNIVERSITY:
          JOE IVANIC, AARON WEST, LAIMUTIS BYTAUTAS, KLAUS RUEDENBERG
     UNIVERSITY OF TOKYO: KIMIHIKO HIRAO, TAKAHITO NAKAJIMA,
          TAKAO TSUNEDA, MUNEAKI KAMIYA, SUSUMU YANAGISAWA,
          KIYOSHI YAGI, MAHITO CHIBA, SEIKEN TOKURA, NAOAKI KAWAKAMI
     UNIVERSITY OF AARHUS: FRANK JENSEN
     UNIVERSITY OF IOWA: VISVALDAS KAIRYS, HUI LI
     NATIONAL INST. OF STANDARDS AND TECHNOLOGY: WALT STEVENS, DAVID GARMER
     UNIVERSITY OF PISA: BENEDETTA MENNUCCI, JACOPO TOMASI
     UNIVERSITY OF MEMPHIS: HENRY KURTZ, PRAKASHAN KORAMBATH
     UNIVERSITY OF ALBERTA: TOBY ZENG, MARIUSZ KLOBUKOWSKI
     UNIVERSITY OF NEW ENGLAND: MARK SPACKMAN
     MIE UNIVERSITY: HIROAKI UMEDA
     NAT. INST. OF ADVANCED INDUSTRIAL SCIENCE AND TECHNOLOGY: KAZUO KITAURA
     MICHIGAN STATE UNIVERSITY:
          KAROL KOWALSKI, MARTA WLOCH, JEFFREY GOUR, JESSE LUTZ,
          WEI LI, JUN SHEN, J. EMILIANO DEUSTUA, PIOTR PIECUCH
     UNIVERSITY OF MINNESOTA:
          YINAN SHU
     UNIVERSITY OF SILESIA: MONIKA MUSIAL, STANISLAW KUCHARSKI
     FACULTES UNIVERSITAIRES NOTRE-DAME DE LA PAIX:
          OLIVIER QUINET, BENOIT CHAMPAGNE
     UNIVERSITY OF CALIFORNIA - SANTA BARBARA: BERNARD KIRTMAN
     INSTITUTE FOR MOLECULAR SCIENCE:
          KAZUYA ISHIMURA, MICHIO KATOUDA, AND SHIGERU NAGASE
     UNIVERSITY OF NOTRE DAME: ANNA POMOGAEVA, DAN CHIPMAN
     KYUSHU UNIVERSITY:
          HARUYUKI NAKANO,
          FENG LONG GU, JACEK KORCHOWIEC, MARCIN MAKOWSKI, AND YURIKO AOKI,
          HIROTOSHI MORI AND EISAKU MIYOSHI
     PENNSYLVANIA STATE UNIVERSITY:
          TZVETELIN IORDANOV, CHET SWALINA, JONATHAN SKONE,
          SHARON HAMMES-SCHIFFER
     WASEDA UNIVERSITY:
          MASATO KOBAYASHI, TOMOKO AKAMA, TSUGUKI TOUMA,
          TAKESHI YOSHIKAWA, YASUHIRO IKABATA, JUNJI SEINO,
          YUYA NAKAJIMA, HIROMI NAKAI
     NANJING UNIVERSITY: SHUHUA LI
     UNIVERSITY OF NEBRASKA:
          PEIFENG SU, DEJUN SI, NANDUN THELLAMUREGE, YALI WANG, HUI LI
     UNIVERSITY OF ZURICH: ROBERTO PEVERATI, KIM BALDRIDGE
     N. COPERNICUS UNIVERSITY AND JACKSON STATE UNIVERSITY:
          MARIA BARYSZ
     UNIVERSITY OF COPENHAGEN: Jimmy Kromann, CASPER STEINMANN
     TOKYO INSTITUTE OF TECHNOLOGY: HIROYA NAKATA
     NAGOYA UNIVERSITY: YOSHIO NISHIMOTO, STEPHAN IRLE
     MOSCOW STATE UNIVERSITY: VLADIMIR MIRONOV


 PARALLEL VERSION RUNNING ON       16 PROCESSORS IN        1 NODES.

 EXECUTION OF GAMESS BEGUN Sat Nov 16 17:56:28 2019

            ECHO OF THE FIRST FEW INPUT CARDS -
 INPUT CARD>!*** FMO 5.3 (Gamess) INPUT generated by Facio 22.1.1.32 ***                    
 INPUT CARD> $CONTRL RUNTYP=ENERGY NPRINT=-5 ISPHER=1 MAXIT=200 $END                        
 INPUT CARD> $SYSTEM MWORDS=63 MEMDDI=63 $END                                               
 INPUT CARD> $GDDI NGROUP=1 $END                                                            
 INPUT CARD> $SCF DIRSCF=.TRUE. NPUNCH=0 $END                                               
 INPUT CARD>!*** NumCPU : 2  MemPerNode : 512MB                                             
 INPUT CARD> $PCM SOLVNT=WATER IEF=-10 ICOMP=2 ICAV=1 IDISP=1 IFMO=-1 $END                  
 INPUT CARD> $PCMCAV RADII=SUAHF $END                                                       
 INPUT CARD> $TESCAV NTSALL=60 $END                                                         
 INPUT CARD> $FMOPRP                                                                        
 INPUT CARD>    NAODIR=200                                                                  
 INPUT CARD>    NGRFMO(1)=1, 1, 0, 0, 0,   0, 0, 0, 0, 0                                    
 INPUT CARD>    IPIEDA=1                                                                    
 INPUT CARD>    NPRINT=9                                                                    
 INPUT CARD> $END                                                                           
 INPUT CARD> $FMO                                                                           
 INPUT CARD>      SCFTYP(1)=RHF                                                             
 INPUT CARD>      MODGRD=10                                                                 
 INPUT CARD>      MODMUL=0                                                                  
 INPUT CARD>      MAXCAO=5                                                                  
 INPUT CARD>      MAXBND=10                                                                 
 INPUT CARD>      NLAYER=1                                                                  
 INPUT CARD>      MPLEVL(1)=2                                                               
 INPUT CARD>      NFRAG=8                                                                   
 INPUT CARD>      ICHARG(1)=-1, -1, -1, -1, -1, -1, -1, 0                                   
 INPUT CARD>      FRGNAM(1)=F1, F2, F3, F4, F5, F6, F7, F8                                  
 INPUT CARD>      indat(1)=0                                                                
 INPUT CARD>               1   -36   0                                                      
 INPUT CARD>               37   -67   0                                                     
 INPUT CARD>               68   -97   0                                                     
 INPUT CARD>               98   -128   0                                                    
 INPUT CARD>               129   -161   0                                                   
 INPUT CARD>               162   -192   0                                                   
 INPUT CARD>               193   -226   0                                                   
 INPUT CARD>               227   -254   0                                                   
 INPUT CARD> $END                                                                           
 INPUT CARD>                                                                                
 INPUT CARD> $FMOBND                                                                        
 INPUT CARD>   -37   36       6-31G*    MINI                                                
 INPUT CARD>   -68   67       6-31G*    MINI                                                
 INPUT CARD>   -98   97       6-31G*    MINI                                                
 INPUT CARD>   -129   128       6-31G*    MINI                                              
 INPUT CARD>   -162   161       6-31G*    MINI                                              
 INPUT CARD>   -193   192       6-31G*    MINI                                              
 INPUT CARD>   -227   226       6-31G*    MINI                                              
 INPUT CARD> $END                                                                           
 INPUT CARD> $FMOHYB                                                                        
 INPUT CARD> 6-31G*      15   5                                                             
 INPUT CARD>   1 0  -0.065034   0.288264   0.000000   0.000000   0.604412                   
 INPUT CARD>         0.290129   0.000000   0.000000   0.319045  -0.017106                   


 -------------------------------------------------------------
 GROUP DDI, PROGRAMMED BY: RYAN M. OLSON AND DMITRI G. FEDOROV
        FEDOROV ET AL., J. COMPUT. CHEM., 25 (2004) 872.
 -------------------------------------------------------------

 -------------------------------------------------------
 GDDI: INITIALIZATION COMPLETED FOR GROUP     1 OF     1
 WITH    16 PROCESSES BALTYP=DLB   global rank=        0
 -------------------------------------------------------

   63000000 WORDS OF MEMORY AVAILABLE


     RUN TITLE
     ---------
  FMO calculation                                                                

 THE POINT GROUP OF THE MOLECULE IS C1      
 THE ORDER OF THE PRINCIPAL AXIS IS     0

 ATOM   ATOMIC CHARGE
 H.1-1       1.0
 O.1-1       8.0
 C.1-1       6.0
 N.1-1       7.0
 P.1-1      15.0

     ATOMIC BASIS SET LIBRARY
     ----------------
 THE CONTRACTED PRIMITIVE FUNCTIONS HAVE BEEN UNNORMALIZED
 THE CONTRACTED BASIS FUNCTIONS ARE NOW NORMALIZED TO UNITY

  SHELL TYPE  PRIMITIVE        EXPONENT          CONTRACTION COEFFICIENT(S)

 H.1-1     

      1   S       1            18.7311370    0.033494604338
      1   S       2             2.8253944    0.234726953484
      1   S       3             0.6401217    0.813757326146

      2   S       4             0.1612778    1.000000000000

 O.1-1     

      3   S       5          5484.6716600    0.001831074430
      3   S       6           825.2349460    0.013950172200
      3   S       7           188.0469580    0.068445078098
      3   S       8            52.9645000    0.232714335992
      3   S       9            16.8975704    0.470192897984
      3   S      10             5.7996353    0.358520852987

      4   L      11            15.5396162   -0.110777549525    0.070874268231
      4   L      12             3.5999336   -0.148026262701    0.339752839147
      4   L      13             1.0137618    1.130767015354    0.727158577316

      5   L      14             0.2700058    1.000000000000    1.000000000000

      6   D      15             0.8000000    1.000000000000

 C.1-1     

      7   S      16          3047.5248800    0.001834737132
      7   S      17           457.3695180    0.014037322813
      7   S      18           103.9486850    0.068842622264
      7   S      19            29.2101553    0.232184443216
      7   S      20             9.2866630    0.467941348435
      7   S      21             3.1639270    0.362311985337

      8   L      22             7.8682723   -0.119332419775    0.068999066591
      8   L      23             1.8812885   -0.160854151696    0.316423960957
      8   L      24             0.5442493    1.143456437840    0.744308290898

      9   L      25             0.1687145    1.000000000000    1.000000000000

     10   D      26             0.8000000    1.000000000000

 N.1-1     

     11   S      27          4173.5114600    0.001834772160
     11   S      28           627.4579110    0.013994627002
     11   S      29           142.9020930    0.068586551812
     11   S      30            40.2343293    0.232240873040
     11   S      31            12.8202129    0.469069948082
     11   S      32             4.3904370    0.360455199063

     12   L      33            11.6263619   -0.114961181702    0.067579743878
     12   L      34             2.7162798   -0.169117478561    0.323907295893
     12   L      35             0.7722184    1.145851947027    0.740895139755

     13   L      36             0.2120315    1.000000000000    1.000000000000

     14   D      37             0.8000000    1.000000000000

 P.1-1     

     15   S      38         19413.3000000    0.001851598923
     15   S      39          2909.4200000    0.014206191735
     15   S      40           661.3640000    0.069999459277
     15   S      41           185.7590000    0.240078860331
     15   S      42            59.1943000    0.484761717984
     15   S      43            20.0310000    0.335199804993

     16   L      44           339.4780000   -0.002782170105    0.004564616191
     16   L      45            81.0101000   -0.036049901354    0.033693571881
     16   L      46            25.8780000   -0.116631004382    0.139754883368
     16   L      47             9.4522100    0.096832803638    0.339361716786
     16   L      48             3.6656600    0.614418023082    0.450920623685
     16   L      49             1.4674600    0.403798015170    0.238585800889

     17   L      50             2.1562300   -0.252924113863   -0.017765312733
     17   L      51             0.7489970    0.032851844678    0.274058196433
     17   L      52             0.2831450    1.081254761783    0.785421562957

     18   L      53             0.0998317    1.000000000000    1.000000000000

     19   D      54             0.5500000    1.000000000000

 TOTAL NUMBER OF BASIS SET SHELLS             =   19
 NUMBER OF CARTESIAN GAUSSIAN BASIS FUNCTIONS =   66

     $CONTRL OPTIONS
     ---------------
 SCFTYP=RHF          RUNTYP=ENERGY       EXETYP=RUN     
 MPLEVL=       0     CITYP =NONE         CCTYP =NONE         VBTYP =NONE    
 DFTTYP=NONE         TDDFT =NONE    
 MULT  =       1     ICHARG=       0     NZVAR =       0     COORD =UNIQUE  
 PP    =NONE         RELWFN=NONE         LOCAL =NONE         NUMGRD=       F
 ISPHER=       1     NOSYM =       0     MAXIT =     200     UNITS =ANGS    
 PLTORB=       F     MOLPLT=       F     AIMPAC=       F     FRIEND=        
 NPRINT=      -5     IREST =       0     GEOM  =INPUT   
 NORMF =       0     NORMP =       0     ITOL  =      24     ICUT  =      12
 INTTYP=BEST         GRDTYP=BEST         QMTTOL= 1.0E-06

     $SYSTEM OPTIONS
     ---------------
  REPLICATED MEMORY=    63000000 WORDS (ON EVERY NODE).
 DISTRIBUTED MEMDDI=          63 MILLION WORDS IN AGGREGATE,
 MEMDDI DISTRIBUTED OVER  16 PROCESSORS IS     3937500 WORDS/PROCESSOR.
 TOTAL MEMORY REQUESTED ON EACH PROCESSOR=    66937500 WORDS.
 TIMLIM=      525600.00 MINUTES, OR     365.0 DAYS.
 PARALL= T  BALTYP=  DLB     KDIAG=    0  COREFL= F
 MXSEQ2=     300 MXSEQ3=     150  mem10=         0

 ** LOOKING UP INTERNALLY STORED DATA FOR SOLVENT=WATER    **
 OPTICAL AND PHYSICAL CONSTANTS:
 EPS= 78.390; EPSINF=  1.776; RSOLV=  1.385 A; VMOL=  18.070 ML/MOL;
 TCE= .25700E-03 1/K; STEN= 71.810 DYN/CM;  DSTEN=  0.6500; CMF=  1.2770


     -----------------------------------
     INPUT FOR PCM SOLVATION CALCULATION 
     -----------------------------------
     IEF   =     -10
     ICOMP =       2     IFIELD=       0     ICAV  =       1
     IDISP =       1     IREP  =       0     IDP   =       0

     SOLVNT=WATER        EPS   = 78.3900     EPSINF=  1.7760
     VMOL  = 18.0700     TCE   =  0.00025700 STEN  = 71.8100
     DSTEN =  0.6500     CMF   =  1.2770     RSOLV =  1.3850

     NESFP =       0
     OMEGA = 40.0000     RET   =100.0000     FRO   =  0.7000

     TABS  =298.0000     IPRINT=       0

     --------------------------------
     INPUT FOR ITERATIVE C-PCM METHOD 
     --------------------------------
     IPCMIT  =         1     MXDIIS  =        50
     MXITR1  =       200     MXITR2  =       200
     THRES   = 0.100E-09     IMUL    =         3
     RCUT(1) =   20.0000     RCUT(2) =   50.0000

     IDIRCT  =         1
     IMGABI  =         0     RABI    =    4.0000
     IMGASC  =         0     RASC    =   20.0000
     THRSLS  = 0.500E-03     DENSLS  =    0.0100
     IEFPOL  =         1     REFPOL  =    0.0000

     INPUT FOR ISOTROPIC DIELECTRICS
     -------------------------------
     EPS=    78.39

          ----------------
          PROPERTIES INPUT
          ----------------

     MOMENTS            FIELD           POTENTIAL          DENSITY
 IEMOM =       1   IEFLD =       0   IEPOT =       0   IEDEN =       0
 WHERE =COMASS     WHERE =NUCLEI     WHERE =NUCLEI     WHERE =NUCLEI  
 OUTPUT=BOTH       OUTPUT=BOTH       OUTPUT=NONE       OUTPUT=BOTH    
 IEMINT=       0   IEFINT=       0                     IEDINT=       0
                                                       MORB  =       0
          EXTRAPOLATION IN EFFECT
          SOSCF IN EFFECT
 ORBITAL PRINTING OPTION: NPREO=     1 32767     2     1

     -------------------------------
     INTEGRAL TRANSFORMATION OPTIONS
     -------------------------------
     NWORD  =            0
     CUTOFF = 1.0E-10     MPTRAN =       0
     DIRTRF =       T     AOINTS =DUP     

          ----------------------
          INTEGRAL INPUT OPTIONS
          ----------------------
 NOPK  =       1 NORDER=       0 SCHWRZ=       T

 ..... DONE SETTING UP THE RUN .....
 CPU     0: STEP CPU TIME=     0.04 TOTAL CPU TIME=          0.0 (      0.0 MIN)
 TOTAL WALL CLOCK TIME=          0.1 SECONDS, CPU UTILIZATION IS    57.14%
 CPU     0: STEP CPU TIME=     0.00 TOTAL CPU TIME=          0.0 (      0.0 MIN)
 TOTAL WALL CLOCK TIME=          0.1 SECONDS, CPU UTILIZATION IS    57.14%

                    ----------------------
                    AO INTEGRAL TECHNOLOGY
                    ----------------------
     S,P,L SHELL ROTATED AXIS INTEGRALS, REPROGRAMMED BY
        KAZUYA ISHIMURA (IMS) AND JOSE SIERRA (SYNSTAR).
     S,P,D,L SHELL ROTATED AXIS INTEGRALS PROGRAMMED BY
        KAZUYA ISHIMURA (INSTITUTE FOR MOLECULAR SCIENCE).
     S,P,D,F,G SHELL TO TOTAL QUARTET ANGULAR MOMENTUM SUM 5,
        ERIC PROGRAM BY GRAHAM FLETCHER (ELORET AND NASA ADVANCED
        SUPERCOMPUTING DIVISION, AMES RESEARCH CENTER).
     S,P,D,F,G,L SHELL GENERAL RYS QUADRATURE PROGRAMMED BY
        MICHEL DUPUIS (PACIFIC NORTHWEST NATIONAL LABORATORY).
 Setting modorb=1 flag...
 Setting modorb=1 flag...

          -----------------------
          MP2 CONTROL INFORMATION
          -----------------------
          NACORE =        8  NBCORE =        8
          LMOMP2 =        F  AOINTS = DUP     
          METHOD =        2  NWORD  =               0
          MP2PRP =        F  OSPT   = NONE    
          CUTOFF = 1.00E-12  CPHFBS = BASISAO 
          CODE   = IMS     

          NUMBER OF CORE -A-  ORBITALS =     8
          NUMBER OF CORE -B-  ORBITALS =     8
          NUMBER OF OCC. -A-  ORBITALS =    18
          NUMBER OF OCC. -B-  ORBITALS =    18
          NUMBER OF MOLECULAR ORBITALS =    66
          NUMBER OF   BASIS  FUNCTIONS =    66

 CPU     0: STEP CPU TIME=     0.02 TOTAL CPU TIME=          0.1 (      0.0 MIN)
 TOTAL WALL CLOCK TIME=          0.1 SECONDS, CPU UTILIZATION IS    60.00%
 CPU     0: STEP CPU TIME=     0.00 TOTAL CPU TIME=          0.1 (      0.0 MIN)
 TOTAL WALL CLOCK TIME=          0.1 SECONDS, CPU UTILIZATION IS    60.00%

     INPUT FOR CAVITY DEFINITION 
     ---------------------------
   ATOM               COORDINATES                RADIUS       EPS
      1     -5.2900     -7.4410      7.4650      0.0100     78.3900
      2     -5.6000     -6.5930      7.8300      1.5900     78.3900
      3     -5.5210     -6.7060      9.2590      1.7700     78.3900
      4     -4.4730     -6.9430      9.5550      0.0100     78.3900
      5     -6.1700     -7.5440      9.5930      0.0100     78.3900
      6     -5.9550     -5.4310      9.9850      1.7700     78.3900
      7     -5.9040     -5.5700     11.0870      0.0100     78.3900
      8     -5.0490     -4.3360      9.6450      1.5900     78.3900
      9     -5.7990     -3.1340      9.5390      1.7700     78.3900
     10     -5.3320     -2.4000     10.2380      0.0100     78.3900
     11     -5.7540     -2.5890      8.1740      1.6800     78.3900
     12     -6.0770     -1.3100      7.8080      1.7700     78.3900
     13     -7.1250      1.8780      8.6450      1.6800     78.3900
     14     -7.2740      1.8100      9.6270      0.0100     78.3900
     15     -7.2850      2.7560      8.1860      0.0100     78.3900
     16     -6.5010     -0.3380      8.6330      1.6800     78.3900
     17     -6.6930      0.8150      7.9980      1.7700     78.3900
     18     -6.4540      0.9850      6.6590      1.6800     78.3900
     19     -6.6190      1.8960      6.2610      0.0100     78.3900
     20     -6.0050      0.0050      5.7830      1.7700     78.3900
     21     -5.8140      0.2440      4.5860      1.5900     78.3900
     22     -5.8340     -1.2400      6.4490      1.7700     78.3900
     23     -5.4090     -2.4680      5.9590      1.6800     78.3900
     24     -5.3720     -3.2410      7.0210      1.7700     78.3900
     25     -5.0700     -4.2920      7.0350      0.0100     78.3900
     26     -7.2080     -3.4340      9.9950      1.7700     78.3900
     27     -7.9650     -2.8070      9.4840      0.0100     78.3900
     28     -7.3030     -3.2470     11.3930      1.5900     78.3900
     29     -8.1890     -3.5300     11.6470      0.0100     78.3900
     30     -7.3540     -4.9050      9.6240      1.7700     78.3900
     31     -7.4680     -5.0220      8.5210      0.0100     78.3900
     32     -8.3590     -5.6230     10.3730      1.5900     78.3900
     33     -9.8290     -5.7360      9.8220      2.1000     78.3900
     34     -9.7720     -6.2490      8.4340      1.5900     78.3900
     35    -10.6270     -6.5330     10.7770      1.5900     78.3900
     36    -10.3640     -4.2480      9.8220      1.5900     78.3900
     37    -10.6610     -3.6120     11.0960      1.7700     78.3900
     38     -9.7850     -3.6340     11.7790      0.0100     78.3900
     39    -11.5010     -4.1350     11.6150      0.0100     78.3900
     40    -11.0770     -2.1450     10.9180      1.7700     78.3900
     41    -11.3090     -1.6750     11.8970      0.0100     78.3900
     42     -9.9940     -1.3840     10.3180      1.5900     78.3900
     43    -10.5450     -0.4300      9.4150      1.7700     78.3900
     44    -10.1780      0.5540      9.7820      0.0100     78.3900
     45    -10.0850     -0.6050      8.0120      1.6800     78.3900
     46     -9.5890     -1.8170      7.5980      1.7700     78.3900
     47     -9.5720     -2.6050      8.3500      0.0100     78.3900
     48     -9.1310     -1.9950      6.3520      1.7700     78.3900
     49     -8.6960     -2.9370      6.0200      0.0100     78.3900
     50    -10.1750      0.4510      7.1070      1.7700     78.3900
     51    -10.6460      1.5340      7.4790      1.5900     78.3900
     52     -9.7340      0.2810      5.8390      1.6800     78.3900
     53     -9.2130     -0.8940      5.4530      1.7700     78.3900
     54     -8.7590     -1.0190      4.2080      1.6800     78.3900
     55     -8.7870     -0.2280      3.5910      0.0100     78.3900
     56     -8.3190     -1.8570      3.8830      0.0100     78.3900
     57    -12.0550     -0.4780      9.5520      1.7700     78.3900
     58    -12.5760     -0.2680      8.5930      0.0100     78.3900
     59    -12.4920      0.4360     10.5470      1.5900     78.3900
     60    -13.4430      0.2850     10.6630      0.0100     78.3900
     61    -12.2720     -1.9260      9.9850      1.7700     78.3900
     62    -12.1340     -2.6110      9.1190      0.0100     78.3900
     63    -13.4970     -2.1930     10.7000      1.5900     78.3900
     64    -14.8400     -2.3450      9.8840      2.1000     78.3900
     65    -14.6340     -3.3850      8.8490      1.5900     78.3900
     66    -15.9300     -2.5690     10.8550      1.5900     78.3900
     67    -15.0660     -0.9490      9.1860      1.5900     78.3900
     68    -15.8040     -0.9270      7.9400      1.7700     78.3900
     69    -16.8740     -1.1880      8.1140      0.0100     78.3900
     70    -15.3860     -1.6560      7.2020      0.0100     78.3900
     71    -15.7520      0.4630      7.2990      1.7700     78.3900
     72    -16.1180      1.2370      8.0060      0.0100     78.3900
     73    -14.3900      0.8090      6.9440      1.5900     78.3900
     74    -14.3860      1.5260      5.7210      1.7700     78.3900
     75    -13.8910      2.5000      5.9370      0.0100     78.3900
     76    -13.6190      0.7930      4.6660      1.6800     78.3900
     77    -13.1800     -0.5000      4.8700      1.7700     78.3900
     78    -13.4660     -0.9650      5.8180      0.0100     78.3900
     79    -13.3090      1.4660      3.5050      1.7700     78.3900
     80    -13.6600      2.6200      3.3090      1.5900     78.3900
     81    -12.5680      0.7510      2.5920      1.6800     78.3900
     82    -12.3470      1.2410      1.7260      0.0100     78.3900
     83    -12.0680     -0.5270      2.7520      1.7700     78.3900
     84    -11.3740     -1.0410      1.8800      1.5900     78.3900
     85    -12.4300     -1.1620      3.9810      1.7700     78.3900
     86    -12.0820     -2.1750      4.1690      0.0100     78.3900
     87    -15.8440      1.7810      5.3410      1.7700     78.3900
     88    -15.9950      1.7670      4.2440      0.0100     78.3900
     89    -16.2910      3.0190      5.8700      1.5900     78.3900
     90    -17.2330      3.1040      5.6580      0.0100     78.3900
     91    -16.5390      0.5980      5.9990      1.7700     78.3900
     92    -16.3340     -0.3230      5.4070      0.0100     78.3900
     93    -17.9320      0.7920      6.3110      1.5900     78.3900
     94    -19.0770      0.2770      5.3760      2.1000     78.3900
     95    -20.2520     -0.0520      6.2190      1.5900     78.3900
     96    -19.2950      1.2620      4.3020      1.5900     78.3900
     97    -18.5350     -1.0580      4.7460      1.5900     78.3900
     98    -18.3480     -2.2620      5.5240      1.7700     78.3900
     99    -18.9430     -2.2670      6.4690      0.0100     78.3900
    100    -17.2740     -2.3530      5.7990      0.0100     78.3900
    101    -18.7280     -3.5080      4.7170      1.7700     78.3900
    102    -18.3780     -4.4340      5.2230      0.0100     78.3900
    103    -20.1760     -3.5950      4.6340      1.5900     78.3900
    104    -20.5480     -4.0740      3.3480      1.7700     78.3900
    105    -21.1480     -4.9930      3.5390      0.0100     78.3900
    106    -21.3810     -3.1020      2.5900      1.6800     78.3900
    107    -21.3830     -1.7730      2.9490      1.7700     78.3900
    108    -20.7300     -1.4990      3.7790      0.0100     78.3900
    109    -22.1700     -0.8860      2.3280      1.7700     78.3900
    110    -22.2150      0.1600      2.6220      0.0100     78.3900
    111    -22.1700     -3.5350      1.5250      1.7700     78.3900
    112    -22.1740     -4.7400      1.2250      1.5900     78.3900
    113    -22.9350     -2.6390      0.8520      1.6800     78.3900
    114    -22.9710     -1.3540      1.2470      1.7700     78.3900
    115    -23.7780     -0.5100      0.6070      1.6800     78.3900
    116    -24.3220     -0.8500     -0.1580      0.0100     78.3900
    117    -23.8070      0.4650      0.8250      0.0100     78.3900
    118    -19.2770     -4.4570      2.6110      1.7700     78.3900
    119    -19.3410     -4.2690      1.5160      0.0100     78.3900
    120    -18.9670     -5.8210      2.8390      1.5900     78.3900
    121    -18.0730     -5.9770      2.4940      0.0100     78.3900
    122    -18.2560     -3.5310      3.2560      1.7700     78.3900
    123    -18.3890     -2.5010      2.8540      0.0100     78.3900
    124    -16.8960     -3.9990      3.1900      1.5900     78.3900
    125    -15.8750     -3.4880      2.1090      2.1000     78.3900
    126    -14.5170     -3.5830      2.6910      1.5900     78.3900
    127    -16.0800     -4.2180      0.8350      1.5900     78.3900
    128    -16.2400     -1.9800      1.8660      1.5900     78.3900
    129    -15.2580     -1.0170      1.4190      1.7700     78.3900
    130    -14.2440     -1.4550      1.2680      0.0100     78.3900
    131    -15.1620     -0.2450      2.2140      0.0100     78.3900
    132    -15.6780     -0.3010      0.1210      1.7700     78.3900
    133    -15.7490     -1.0100     -0.7280      0.0100     78.3900
    134    -16.9920      0.2920      0.3030      1.5900     78.3900
    135    -17.0510      1.5450     -0.3450      1.7700     78.3900
    136    -17.8930      1.4820     -1.0710      0.0100     78.3900
    137    -17.3250      2.6170      0.6150      1.6800     78.3900
    138    -17.9460      4.5170      1.5290      1.7700     78.3900
    139    -17.5430      3.6960      2.5730      1.6800     78.3900
    140    -17.2000      2.5790      1.9840      1.7700     78.3900
    141    -16.8660      1.6700      2.4910      0.0100     78.3900
    142    -18.8460      6.3240      0.2840      1.6800     78.3900
    143    -18.6050      5.5870     -0.8040      1.7700     78.3900
    144    -18.8830      6.0530     -1.7560      0.0100     78.3900
    145    -18.1210      4.3430     -0.8970      1.6800     78.3900
    146    -17.8170      3.8610      0.3190      1.7700     78.3900
    147    -18.4970      5.8170      1.4960      1.7700     78.3900
    148    -18.7180      6.5630      2.5940      1.6800     78.3900
    149    -18.5040      6.2260      3.5140      0.0100     78.3900
    150    -19.0630      7.4980      2.4910      0.0100     78.3900
    151    -15.7490      1.7450     -1.0990      1.7700     78.3900
    152    -15.4190      2.8080     -1.1130      0.0100     78.3900
    153    -15.8800      1.2680     -2.4260      1.5900     78.3900
    154    -15.0040      1.3270     -2.8400      0.0100     78.3900
    155    -14.7810      0.8850     -0.2900      1.7700     78.3900
    156    -14.5120      1.4080      0.6570      0.0100     78.3900
    157    -13.6210      0.4130     -1.0270      1.5900     78.3900
    158    -12.3740      1.3770     -1.1590      2.1000     78.3900
    159    -12.2050      2.0680      0.1360      1.5900     78.3900
    160    -11.2200      0.6110     -1.6710      1.5900     78.3900
    161    -12.7900      2.4150     -2.2710      1.5900     78.3900
    162    -12.0040      3.6200     -2.4970      1.7700     78.3900
    163    -11.1960      3.4190     -3.2380      0.0100     78.3900
    164    -11.5060      3.9660     -1.5590      0.0100     78.3900
    165    -12.8530      4.8030     -3.0230      1.7700     78.3900
    166    -13.0060      4.7200     -4.1210      0.0100     78.3900
    167    -14.1760      4.7590     -2.4120      1.5900     78.3900
    168    -14.5610      6.0520     -1.9950      1.7700     78.3900
    169    -15.5830      6.2070     -2.4130      0.0100     78.3900
    170    -14.6190      6.1660     -0.5120      1.6800     78.3900
    171    -13.9270      5.2820      0.2920      1.7700     78.3900
    172    -13.3300      4.5170     -0.2130      0.0100     78.3900
    173    -13.9980      5.3600      1.6260      1.7700     78.3900
    174    -13.4490      4.6830      2.2750      0.0100     78.3900
    175    -15.3790      7.1800      0.0670      1.7700     78.3900
    176    -15.9910      7.9670     -0.6720      1.5900     78.3900
    177    -15.4400      7.2840      1.4130      1.6800     78.3900
    178    -14.7950      6.3980      2.1880      1.7700     78.3900
    179    -14.8820      6.5190      3.5110      1.6800     78.3900
    180    -14.4490      5.8650      4.1260      0.0100     78.3900
    181    -15.4570      7.2380      3.8990      0.0100     78.3900
    182    -13.6030      7.0460     -2.6320      1.7700     78.3900
    183    -13.4600      7.9570     -2.0130      0.0100     78.3900
    184    -14.0600      7.4020     -3.9290      1.5900     78.3900
    185    -13.3380      7.8730     -4.3820      0.0100     78.3900
    186    -12.3260      6.2230     -2.6960      1.7700     78.3900
    187    -11.8700      6.1580     -1.6810      0.0100     78.3900
    188    -11.4060      6.6820     -3.7080      1.5900     78.3900
    189    -10.0230      7.3260     -3.3360      2.1000     78.3900
    190     -9.1640      6.2640     -2.7650      1.5900     78.3900
    191     -9.4980      8.0420     -4.5210      1.5900     78.3900
    192    -10.3520      8.4100     -2.2380      1.5900     78.3900
    193     -9.4170      8.6440     -1.1440      1.7700     78.3900
    194     -8.9310      9.6380     -1.2600      0.0100     78.3900
    195     -8.5810      7.9010     -1.1030      0.0100     78.3900
    196    -10.1190      8.6220      0.2180      1.7700     78.3900
    197    -10.7590      9.5200      0.3520      0.0100     78.3900
    198    -10.9920      7.4620      0.3010      1.5900     78.3900
    199    -10.8820      6.8780      1.5790      1.7700     78.3900
    200    -11.9120      6.7920      1.9840      0.0100     78.3900
    201    -10.2770      5.5430      1.4970      1.6800     78.3900
    202    -10.2880      4.6110      2.4950      1.7700     78.3900
    203    -11.1390      3.6830      5.7190      1.6800     78.3900
    204    -11.6140      4.4900      6.0630      0.0100     78.3900
    205    -11.0020      2.8970      6.3290      0.0100     78.3900
    206    -10.8370      4.7710      3.7110      1.6800     78.3900
    207    -10.6860      3.6960      4.4790      1.7700     78.3900
    208    -10.0470      2.5590      4.0600      1.6800     78.3900
    209     -9.9600      1.7950      4.7110      0.0100     78.3900
    210     -9.4910      2.3570      2.8050      1.7700     78.3900
    211     -8.9400      1.2900      2.5170      1.5900     78.3900
    212     -9.6220      3.5140      1.9860      1.7700     78.3900
    213     -9.1820      3.7600      0.6880      1.6800     78.3900
    214     -9.6050      4.9760      0.4320      1.7700     78.3900
    215     -9.4760      5.5100     -0.5140      0.0100     78.3900
    216    -10.0890      7.8250      2.4510      1.7700     78.3900
    217     -9.5120      7.2960      3.2360      0.0100     78.3900
    218    -10.9570      8.7600      3.0610      1.5900     78.3900
    219    -10.4010      9.4370      3.4690      0.0100     78.3900
    220     -9.1790      8.4820      1.4260      1.7700     78.3900
    221     -8.3900      7.7560      1.1100      0.0100     78.3900
    222     -8.6580      9.7790      1.8210      1.5900     78.3900
    223     -7.1530      9.8670      2.2890      2.1000     78.3900
    224     -6.3270      8.9750      1.4490      1.5900     78.3900
    225     -6.7430     11.2850      2.3440      1.5900     78.3900
    226     -7.2010      9.2890      3.7530      1.5900     78.3900
    227     -7.9480      9.9880      4.7790      1.7700     78.3900
    228     -9.0060     10.1560      4.4720      0.0100     78.3900
    229     -7.4920     10.9860      4.9810      0.0100     78.3900
    230     -7.9600      9.2000      6.0950      1.7700     78.3900
    231     -8.4380      9.7870      6.9080      0.0100     78.3900
    232     -8.7420      7.9840      5.9240      1.5900     78.3900
    233     -8.1190      6.9240      6.6410      1.7700     78.3900
    234     -8.8990      6.5270      7.3330      0.0100     78.3900
    235     -7.6590      5.8250      5.7470      1.6800     78.3900
    236     -7.4380      6.0680      4.4100      1.7700     78.3900
    237     -7.6550      7.0770      4.0660      0.0100     78.3900
    238     -7.0190      5.1040      3.5810      1.7700     78.3900
    239     -6.8700      5.2730      2.5170      0.0100     78.3900
    240     -7.3880      4.5660      6.2720      1.7700     78.3900
    241     -7.5240      4.3730      7.4900      1.5900     78.3900
    242     -6.9780      3.5740      5.4470      1.6800     78.3900
    243     -6.7840      3.8170      4.1380      1.7700     78.3900
    244     -6.3820      2.8230      3.3490      1.6800     78.3900
    245     -6.2420      1.9090      3.7360      0.0100     78.3900
    246     -6.2940      2.9370      2.3610      0.0100     78.3900
    247     -6.9830      7.5230      7.4590      1.7700     78.3900
    248     -6.1320      6.8170      7.5730      0.0100     78.3900
    249     -7.4630      7.9170      8.7370      1.5900     78.3900
    250     -6.7820      8.4460      9.1930      0.0100     78.3900
    251     -6.5890      8.7140      6.5920      1.7700     78.3900
    252     -5.9910      8.3750      5.7170      0.0100     78.3900
    253     -5.9000      9.7620      7.2980      1.5900     78.3900
    254     -5.0380      9.4360      7.6020      0.0100     78.3900

     ----------------------------
     INPUT FOR TESSERA DEFINITION
     ----------------------------
     NTSALL  =        60     MTHALL  =         4
     MTHAUT  =         0     AUTFRE  =    2.0000
     NTSFRZ  =        60     KEEPSM  =         0
     AREAKP  =   10.0000     BONDRY  =    1.0000
     AREATL  =    0.0100

     SPHERE     INITS       METHOD
          1        60       FIXPVA
          2        60       FIXPVA
          3        60       FIXPVA
          4        60       FIXPVA
          5        60       FIXPVA
          6        60       FIXPVA
          7        60       FIXPVA
          8        60       FIXPVA
          9        60       FIXPVA
         10        60       FIXPVA
         11        60       FIXPVA
         12        60       FIXPVA
         13        60       FIXPVA
         14        60       FIXPVA
         15        60       FIXPVA
         16        60       FIXPVA
         17        60       FIXPVA
         18        60       FIXPVA
         19        60       FIXPVA
         20        60       FIXPVA
         21        60       FIXPVA
         22        60       FIXPVA
         23        60       FIXPVA
         24        60       FIXPVA
         25        60       FIXPVA
         26        60       FIXPVA
         27        60       FIXPVA
         28        60       FIXPVA
         29        60       FIXPVA
         30        60       FIXPVA
         31        60       FIXPVA
         32        60       FIXPVA
         33        60       FIXPVA
         34        60       FIXPVA
         35        60       FIXPVA
         36        60       FIXPVA
         37        60       FIXPVA
         38        60       FIXPVA
         39        60       FIXPVA
         40        60       FIXPVA
         41        60       FIXPVA
         42        60       FIXPVA
         43        60       FIXPVA
         44        60       FIXPVA
         45        60       FIXPVA
         46        60       FIXPVA
         47        60       FIXPVA
         48        60       FIXPVA
         49        60       FIXPVA
         50        60       FIXPVA
         51        60       FIXPVA
         52        60       FIXPVA
         53        60       FIXPVA
         54        60       FIXPVA
         55        60       FIXPVA
         56        60       FIXPVA
         57        60       FIXPVA
         58        60       FIXPVA
         59        60       FIXPVA
         60        60       FIXPVA
         61        60       FIXPVA
         62        60       FIXPVA
         63        60       FIXPVA
         64        60       FIXPVA
         65        60       FIXPVA
         66        60       FIXPVA
         67        60       FIXPVA
         68        60       FIXPVA
         69        60       FIXPVA
         70        60       FIXPVA
         71        60       FIXPVA
         72        60       FIXPVA
         73        60       FIXPVA
         74        60       FIXPVA
         75        60       FIXPVA
         76        60       FIXPVA
         77        60       FIXPVA
         78        60       FIXPVA
         79        60       FIXPVA
         80        60       FIXPVA
         81        60       FIXPVA
         82        60       FIXPVA
         83        60       FIXPVA
         84        60       FIXPVA
         85        60       FIXPVA
         86        60       FIXPVA
         87        60       FIXPVA
         88        60       FIXPVA
         89        60       FIXPVA
         90        60       FIXPVA
         91        60       FIXPVA
         92        60       FIXPVA
         93        60       FIXPVA
         94        60       FIXPVA
         95        60       FIXPVA
         96        60       FIXPVA
         97        60       FIXPVA
         98        60       FIXPVA
         99        60       FIXPVA
        100        60       FIXPVA
        101        60       FIXPVA
        102        60       FIXPVA
        103        60       FIXPVA
        104        60       FIXPVA
        105        60       FIXPVA
        106        60       FIXPVA
        107        60       FIXPVA
        108        60       FIXPVA
        109        60       FIXPVA
        110        60       FIXPVA
        111        60       FIXPVA
        112        60       FIXPVA
        113        60       FIXPVA
        114        60       FIXPVA
        115        60       FIXPVA
        116        60       FIXPVA
        117        60       FIXPVA
        118        60       FIXPVA
        119        60       FIXPVA
        120        60       FIXPVA
        121        60       FIXPVA
        122        60       FIXPVA
        123        60       FIXPVA
        124        60       FIXPVA
        125        60       FIXPVA
        126        60       FIXPVA
        127        60       FIXPVA
        128        60       FIXPVA
        129        60       FIXPVA
        130        60       FIXPVA
        131        60       FIXPVA
        132        60       FIXPVA
        133        60       FIXPVA
        134        60       FIXPVA
        135        60       FIXPVA
        136        60       FIXPVA
        137        60       FIXPVA
        138        60       FIXPVA
        139        60       FIXPVA
        140        60       FIXPVA
        141        60       FIXPVA
        142        60       FIXPVA
        143        60       FIXPVA
        144        60       FIXPVA
        145        60       FIXPVA
        146        60       FIXPVA
        147        60       FIXPVA
        148        60       FIXPVA
        149        60       FIXPVA
        150        60       FIXPVA
        151        60       FIXPVA
        152        60       FIXPVA
        153        60       FIXPVA
        154        60       FIXPVA
        155        60       FIXPVA
        156        60       FIXPVA
        157        60       FIXPVA
        158        60       FIXPVA
        159        60       FIXPVA
        160        60       FIXPVA
        161        60       FIXPVA
        162        60       FIXPVA
        163        60       FIXPVA
        164        60       FIXPVA
        165        60       FIXPVA
        166        60       FIXPVA
        167        60       FIXPVA
        168        60       FIXPVA
        169        60       FIXPVA
        170        60       FIXPVA
        171        60       FIXPVA
        172        60       FIXPVA
        173        60       FIXPVA
        174        60       FIXPVA
        175        60       FIXPVA
        176        60       FIXPVA
        177        60       FIXPVA
        178        60       FIXPVA
        179        60       FIXPVA
        180        60       FIXPVA
        181        60       FIXPVA
        182        60       FIXPVA
        183        60       FIXPVA
        184        60       FIXPVA
        185        60       FIXPVA
        186        60       FIXPVA
        187        60       FIXPVA
        188        60       FIXPVA
        189        60       FIXPVA
        190        60       FIXPVA
        191        60       FIXPVA
        192        60       FIXPVA
        193        60       FIXPVA
        194        60       FIXPVA
        195        60       FIXPVA
        196        60       FIXPVA
        197        60       FIXPVA
        198        60       FIXPVA
        199        60       FIXPVA
        200        60       FIXPVA
        201        60       FIXPVA
        202        60       FIXPVA
        203        60       FIXPVA
        204        60       FIXPVA
        205        60       FIXPVA
        206        60       FIXPVA
        207        60       FIXPVA
        208        60       FIXPVA
        209        60       FIXPVA
        210        60       FIXPVA
        211        60       FIXPVA
        212        60       FIXPVA
        213        60       FIXPVA
        214        60       FIXPVA
        215        60       FIXPVA
        216        60       FIXPVA
        217        60       FIXPVA
        218        60       FIXPVA
        219        60       FIXPVA
        220        60       FIXPVA
        221        60       FIXPVA
        222        60       FIXPVA
        223        60       FIXPVA
        224        60       FIXPVA
        225        60       FIXPVA
        226        60       FIXPVA
        227        60       FIXPVA
        228        60       FIXPVA
        229        60       FIXPVA
        230        60       FIXPVA
        231        60       FIXPVA
        232        60       FIXPVA
        233        60       FIXPVA
        234        60       FIXPVA
        235        60       FIXPVA
        236        60       FIXPVA
        237        60       FIXPVA
        238        60       FIXPVA
        239        60       FIXPVA
        240        60       FIXPVA
        241        60       FIXPVA
        242        60       FIXPVA
        243        60       FIXPVA
        244        60       FIXPVA
        245        60       FIXPVA
        246        60       FIXPVA
        247        60       FIXPVA
        248        60       FIXPVA
        249        60       FIXPVA
        250        60       FIXPVA
        251        60       FIXPVA
        252        60       FIXPVA
        253        60       FIXPVA
        254        60       FIXPVA

     ------------------------------
      FIXPVA TESSELLATION FOR PCM
         PEIFENG SU AND HUI LI
     UNIVERSITY OF NEBRASKA-LINCOLN
     ------------------------------


 PCM DIMENSIONS: MXSP=   254, MXTS=     10160, MEMORY=        104397

     INPUT FOR CAVITY DEFINITION 
     ---------------------------
   ATOM               COORDINATES                RADIUS       EPS
      1     -5.2900     -7.4410      7.4650      0.0100     78.3900
      2     -5.6000     -6.5930      7.8300      1.5900     78.3900
      3     -5.5210     -6.7060      9.2590      1.7700     78.3900
      4     -4.4730     -6.9430      9.5550      0.0100     78.3900
      5     -6.1700     -7.5440      9.5930      0.0100     78.3900
      6     -5.9550     -5.4310      9.9850      1.7700     78.3900
      7     -5.9040     -5.5700     11.0870      0.0100     78.3900
      8     -5.0490     -4.3360      9.6450      1.5900     78.3900
      9     -5.7990     -3.1340      9.5390      1.7700     78.3900
     10     -5.3320     -2.4000     10.2380      0.0100     78.3900
     11     -5.7540     -2.5890      8.1740      1.6800     78.3900
     12     -6.0770     -1.3100      7.8080      1.7700     78.3900
     13     -7.1250      1.8780      8.6450      1.6800     78.3900
     14     -7.2740      1.8100      9.6270      0.0100     78.3900
     15     -7.2850      2.7560      8.1860      0.0100     78.3900
     16     -6.5010     -0.3380      8.6330      1.6800     78.3900
     17     -6.6930      0.8150      7.9980      1.7700     78.3900
     18     -6.4540      0.9850      6.6590      1.6800     78.3900
     19     -6.6190      1.8960      6.2610      0.0100     78.3900
     20     -6.0050      0.0050      5.7830      1.7700     78.3900
     21     -5.8140      0.2440      4.5860      1.5900     78.3900
     22     -5.8340     -1.2400      6.4490      1.7700     78.3900
     23     -5.4090     -2.4680      5.9590      1.6800     78.3900
     24     -5.3720     -3.2410      7.0210      1.7700     78.3900
     25     -5.0700     -4.2920      7.0350      0.0100     78.3900
     26     -7.2080     -3.4340      9.9950      1.7700     78.3900
     27     -7.9650     -2.8070      9.4840      0.0100     78.3900
     28     -7.3030     -3.2470     11.3930      1.5900     78.3900
     29     -8.1890     -3.5300     11.6470      0.0100     78.3900
     30     -7.3540     -4.9050      9.6240      1.7700     78.3900
     31     -7.4680     -5.0220      8.5210      0.0100     78.3900
     32     -8.3590     -5.6230     10.3730      1.5900     78.3900
     33     -9.8290     -5.7360      9.8220      2.1000     78.3900
     34     -9.7720     -6.2490      8.4340      1.5900     78.3900
     35    -10.6270     -6.5330     10.7770      1.5900     78.3900
     36    -10.3640     -4.2480      9.8220      1.5900     78.3900
     37    -10.6610     -3.6120     11.0960      1.7700     78.3900
     38     -9.7850     -3.6340     11.7790      0.0100     78.3900
     39    -11.5010     -4.1350     11.6150      0.0100     78.3900
     40    -11.0770     -2.1450     10.9180      1.7700     78.3900
     41    -11.3090     -1.6750     11.8970      0.0100     78.3900
     42     -9.9940     -1.3840     10.3180      1.5900     78.3900
     43    -10.5450     -0.4300      9.4150      1.7700     78.3900
     44    -10.1780      0.5540      9.7820      0.0100     78.3900
     45    -10.0850     -0.6050      8.0120      1.6800     78.3900
     46     -9.5890     -1.8170      7.5980      1.7700     78.3900
     47     -9.5720     -2.6050      8.3500      0.0100     78.3900
     48     -9.1310     -1.9950      6.3520      1.7700     78.3900
     49     -8.6960     -2.9370      6.0200      0.0100     78.3900
     50    -10.1750      0.4510      7.1070      1.7700     78.3900
     51    -10.6460      1.5340      7.4790      1.5900     78.3900
     52     -9.7340      0.2810      5.8390      1.6800     78.3900
     53     -9.2130     -0.8940      5.4530      1.7700     78.3900
     54     -8.7590     -1.0190      4.2080      1.6800     78.3900
     55     -8.7870     -0.2280      3.5910      0.0100     78.3900
     56     -8.3190     -1.8570      3.8830      0.0100     78.3900
     57    -12.0550     -0.4780      9.5520      1.7700     78.3900
     58    -12.5760     -0.2680      8.5930      0.0100     78.3900
     59    -12.4920      0.4360     10.5470      1.5900     78.3900
     60    -13.4430      0.2850     10.6630      0.0100     78.3900
     61    -12.2720     -1.9260      9.9850      1.7700     78.3900
     62    -12.1340     -2.6110      9.1190      0.0100     78.3900
     63    -13.4970     -2.1930     10.7000      1.5900     78.3900
     64    -14.8400     -2.3450      9.8840      2.1000     78.3900
     65    -14.6340     -3.3850      8.8490      1.5900     78.3900
     66    -15.9300     -2.5690     10.8550      1.5900     78.3900
     67    -15.0660     -0.9490      9.1860      1.5900     78.3900
     68    -15.8040     -0.9270      7.9400      1.7700     78.3900
     69    -16.8740     -1.1880      8.1140      0.0100     78.3900
     70    -15.3860     -1.6560      7.2020      0.0100     78.3900
     71    -15.7520      0.4630      7.2990      1.7700     78.3900
     72    -16.1180      1.2370      8.0060      0.0100     78.3900
     73    -14.3900      0.8090      6.9440      1.5900     78.3900
     74    -14.3860      1.5260      5.7210      1.7700     78.3900
     75    -13.8910      2.5000      5.9370      0.0100     78.3900
     76    -13.6190      0.7930      4.6660      1.6800     78.3900
     77    -13.1800     -0.5000      4.8700      1.7700     78.3900
     78    -13.4660     -0.9650      5.8180      0.0100     78.3900
     79    -13.3090      1.4660      3.5050      1.7700     78.3900
     80    -13.6600      2.6200      3.3090      1.5900     78.3900
     81    -12.5680      0.7510      2.5920      1.6800     78.3900
     82    -12.3470      1.2410      1.7260      0.0100     78.3900
     83    -12.0680     -0.5270      2.7520      1.7700     78.3900
     84    -11.3740     -1.0410      1.8800      1.5900     78.3900
     85    -12.4300     -1.1620      3.9810      1.7700     78.3900
     86    -12.0820     -2.1750      4.1690      0.0100     78.3900
     87    -15.8440      1.7810      5.3410      1.7700     78.3900
     88    -15.9950      1.7670      4.2440      0.0100     78.3900
     89    -16.2910      3.0190      5.8700      1.5900     78.3900
     90    -17.2330      3.1040      5.6580      0.0100     78.3900
     91    -16.5390      0.5980      5.9990      1.7700     78.3900
     92    -16.3340     -0.3230      5.4070      0.0100     78.3900
     93    -17.9320      0.7920      6.3110      1.5900     78.3900
     94    -19.0770      0.2770      5.3760      2.1000     78.3900
     95    -20.2520     -0.0520      6.2190      1.5900     78.3900
     96    -19.2950      1.2620      4.3020      1.5900     78.3900
     97    -18.5350     -1.0580      4.7460      1.5900     78.3900
     98    -18.3480     -2.2620      5.5240      1.7700     78.3900
     99    -18.9430     -2.2670      6.4690      0.0100     78.3900
    100    -17.2740     -2.3530      5.7990      0.0100     78.3900
    101    -18.7280     -3.5080      4.7170      1.7700     78.3900
    102    -18.3780     -4.4340      5.2230      0.0100     78.3900
    103    -20.1760     -3.5950      4.6340      1.5900     78.3900
    104    -20.5480     -4.0740      3.3480      1.7700     78.3900
    105    -21.1480     -4.9930      3.5390      0.0100     78.3900
    106    -21.3810     -3.1020      2.5900      1.6800     78.3900
    107    -21.3830     -1.7730      2.9490      1.7700     78.3900
    108    -20.7300     -1.4990      3.7790      0.0100     78.3900
    109    -22.1700     -0.8860      2.3280      1.7700     78.3900
    110    -22.2150      0.1600      2.6220      0.0100     78.3900
    111    -22.1700     -3.5350      1.5250      1.7700     78.3900
    112    -22.1740     -4.7400      1.2250      1.5900     78.3900
    113    -22.9350     -2.6390      0.8520      1.6800     78.3900
    114    -22.9710     -1.3540      1.2470      1.7700     78.3900
    115    -23.7780     -0.5100      0.6070      1.6800     78.3900
    116    -24.3220     -0.8500     -0.1580      0.0100     78.3900
    117    -23.8070      0.4650      0.8250      0.0100     78.3900
    118    -19.2770     -4.4570      2.6110      1.7700     78.3900
    119    -19.3410     -4.2690      1.5160      0.0100     78.3900
    120    -18.9670     -5.8210      2.8390      1.5900     78.3900
    121    -18.0730     -5.9770      2.4940      0.0100     78.3900
    122    -18.2560     -3.5310      3.2560      1.7700     78.3900
    123    -18.3890     -2.5010      2.8540      0.0100     78.3900
    124    -16.8960     -3.9990      3.1900      1.5900     78.3900
    125    -15.8750     -3.4880      2.1090      2.1000     78.3900
    126    -14.5170     -3.5830      2.6910      1.5900     78.3900
    127    -16.0800     -4.2180      0.8350      1.5900     78.3900
    128    -16.2400     -1.9800      1.8660      1.5900     78.3900
    129    -15.2580     -1.0170      1.4190      1.7700     78.3900
    130    -14.2440     -1.4550      1.2680      0.0100     78.3900
    131    -15.1620     -0.2450      2.2140      0.0100     78.3900
    132    -15.6780     -0.3010      0.1210      1.7700     78.3900
    133    -15.7490     -1.0100     -0.7280      0.0100     78.3900
    134    -16.9920      0.2920      0.3030      1.5900     78.3900
    135    -17.0510      1.5450     -0.3450      1.7700     78.3900
    136    -17.8930      1.4820     -1.0710      0.0100     78.3900
    137    -17.3250      2.6170      0.6150      1.6800     78.3900
    138    -17.9460      4.5170      1.5290      1.7700     78.3900
    139    -17.5430      3.6960      2.5730      1.6800     78.3900
    140    -17.2000      2.5790      1.9840      1.7700     78.3900
    141    -16.8660      1.6700      2.4910      0.0100     78.3900
    142    -18.8460      6.3240      0.2840      1.6800     78.3900
    143    -18.6050      5.5870     -0.8040      1.7700     78.3900
    144    -18.8830      6.0530     -1.7560      0.0100     78.3900
    145    -18.1210      4.3430     -0.8970      1.6800     78.3900
    146    -17.8170      3.8610      0.3190      1.7700     78.3900
    147    -18.4970      5.8170      1.4960      1.7700     78.3900
    148    -18.7180      6.5630      2.5940      1.6800     78.3900
    149    -18.5040      6.2260      3.5140      0.0100     78.3900
    150    -19.0630      7.4980      2.4910      0.0100     78.3900
    151    -15.7490      1.7450     -1.0990      1.7700     78.3900
    152    -15.4190      2.8080     -1.1130      0.0100     78.3900
    153    -15.8800      1.2680     -2.4260      1.5900     78.3900
    154    -15.0040      1.3270     -2.8400      0.0100     78.3900
    155    -14.7810      0.8850     -0.2900      1.7700     78.3900
    156    -14.5120      1.4080      0.6570      0.0100     78.3900
    157    -13.6210      0.4130     -1.0270      1.5900     78.3900
    158    -12.3740      1.3770     -1.1590      2.1000     78.3900
    159    -12.2050      2.0680      0.1360      1.5900     78.3900
    160    -11.2200      0.6110     -1.6710      1.5900     78.3900
    161    -12.7900      2.4150     -2.2710      1.5900     78.3900
    162    -12.0040      3.6200     -2.4970      1.7700     78.3900
    163    -11.1960      3.4190     -3.2380      0.0100     78.3900
    164    -11.5060      3.9660     -1.5590      0.0100     78.3900
    165    -12.8530      4.8030     -3.0230      1.7700     78.3900
    166    -13.0060      4.7200     -4.1210      0.0100     78.3900
    167    -14.1760      4.7590     -2.4120      1.5900     78.3900
    168    -14.5610      6.0520     -1.9950      1.7700     78.3900
    169    -15.5830      6.2070     -2.4130      0.0100     78.3900
    170    -14.6190      6.1660     -0.5120      1.6800     78.3900
    171    -13.9270      5.2820      0.2920      1.7700     78.3900
    172    -13.3300      4.5170     -0.2130      0.0100     78.3900
    173    -13.9980      5.3600      1.6260      1.7700     78.3900
    174    -13.4490      4.6830      2.2750      0.0100     78.3900
    175    -15.3790      7.1800      0.0670      1.7700     78.3900
    176    -15.9910      7.9670     -0.6720      1.5900     78.3900
    177    -15.4400      7.2840      1.4130      1.6800     78.3900
    178    -14.7950      6.3980      2.1880      1.7700     78.3900
    179    -14.8820      6.5190      3.5110      1.6800     78.3900
    180    -14.4490      5.8650      4.1260      0.0100     78.3900
    181    -15.4570      7.2380      3.8990      0.0100     78.3900
    182    -13.6030      7.0460     -2.6320      1.7700     78.3900
    183    -13.4600      7.9570     -2.0130      0.0100     78.3900
    184    -14.0600      7.4020     -3.9290      1.5900     78.3900
    185    -13.3380      7.8730     -4.3820      0.0100     78.3900
    186    -12.3260      6.2230     -2.6960      1.7700     78.3900
    187    -11.8700      6.1580     -1.6810      0.0100     78.3900
    188    -11.4060      6.6820     -3.7080      1.5900     78.3900
    189    -10.0230      7.3260     -3.3360      2.1000     78.3900
    190     -9.1640      6.2640     -2.7650      1.5900     78.3900
    191     -9.4980      8.0420     -4.5210      1.5900     78.3900
    192    -10.3520      8.4100     -2.2380      1.5900     78.3900
    193     -9.4170      8.6440     -1.1440      1.7700     78.3900
    194     -8.9310      9.6380     -1.2600      0.0100     78.3900
    195     -8.5810      7.9010     -1.1030      0.0100     78.3900
    196    -10.1190      8.6220      0.2180      1.7700     78.3900
    197    -10.7590      9.5200      0.3520      0.0100     78.3900
    198    -10.9920      7.4620      0.3010      1.5900     78.3900
    199    -10.8820      6.8780      1.5790      1.7700     78.3900
    200    -11.9120      6.7920      1.9840      0.0100     78.3900
    201    -10.2770      5.5430      1.4970      1.6800     78.3900
    202    -10.2880      4.6110      2.4950      1.7700     78.3900
    203    -11.1390      3.6830      5.7190      1.6800     78.3900
    204    -11.6140      4.4900      6.0630      0.0100     78.3900
    205    -11.0020      2.8970      6.3290      0.0100     78.3900
    206    -10.8370      4.7710      3.7110      1.6800     78.3900
    207    -10.6860      3.6960      4.4790      1.7700     78.3900
    208    -10.0470      2.5590      4.0600      1.6800     78.3900
    209     -9.9600      1.7950      4.7110      0.0100     78.3900
    210     -9.4910      2.3570      2.8050      1.7700     78.3900
    211     -8.9400      1.2900      2.5170      1.5900     78.3900
    212     -9.6220      3.5140      1.9860      1.7700     78.3900
    213     -9.1820      3.7600      0.6880      1.6800     78.3900
    214     -9.6050      4.9760      0.4320      1.7700     78.3900
    215     -9.4760      5.5100     -0.5140      0.0100     78.3900
    216    -10.0890      7.8250      2.4510      1.7700     78.3900
    217     -9.5120      7.2960      3.2360      0.0100     78.3900
    218    -10.9570      8.7600      3.0610      1.5900     78.3900
    219    -10.4010      9.4370      3.4690      0.0100     78.3900
    220     -9.1790      8.4820      1.4260      1.7700     78.3900
    221     -8.3900      7.7560      1.1100      0.0100     78.3900
    222     -8.6580      9.7790      1.8210      1.5900     78.3900
    223     -7.1530      9.8670      2.2890      2.1000     78.3900
    224     -6.3270      8.9750      1.4490      1.5900     78.3900
    225     -6.7430     11.2850      2.3440      1.5900     78.3900
    226     -7.2010      9.2890      3.7530      1.5900     78.3900
    227     -7.9480      9.9880      4.7790      1.7700     78.3900
    228     -9.0060     10.1560      4.4720      0.0100     78.3900
    229     -7.4920     10.9860      4.9810      0.0100     78.3900
    230     -7.9600      9.2000      6.0950      1.7700     78.3900
    231     -8.4380      9.7870      6.9080      0.0100     78.3900
    232     -8.7420      7.9840      5.9240      1.5900     78.3900
    233     -8.1190      6.9240      6.6410      1.7700     78.3900
    234     -8.8990      6.5270      7.3330      0.0100     78.3900
    235     -7.6590      5.8250      5.7470      1.6800     78.3900
    236     -7.4380      6.0680      4.4100      1.7700     78.3900
    237     -7.6550      7.0770      4.0660      0.0100     78.3900
    238     -7.0190      5.1040      3.5810      1.7700     78.3900
    239     -6.8700      5.2730      2.5170      0.0100     78.3900
    240     -7.3880      4.5660      6.2720      1.7700     78.3900
    241     -7.5240      4.3730      7.4900      1.5900     78.3900
    242     -6.9780      3.5740      5.4470      1.6800     78.3900
    243     -6.7840      3.8170      4.1380      1.7700     78.3900
    244     -6.3820      2.8230      3.3490      1.6800     78.3900
    245     -6.2420      1.9090      3.7360      0.0100     78.3900
    246     -6.2940      2.9370      2.3610      0.0100     78.3900
    247     -6.9830      7.5230      7.4590      1.7700     78.3900
    248     -6.1320      6.8170      7.5730      0.0100     78.3900
    249     -7.4630      7.9170      8.7370      1.5900     78.3900
    250     -6.7820      8.4460      9.1930      0.0100     78.3900
    251     -6.5890      8.7140      6.5920      1.7700     78.3900
    252     -5.9910      8.3750      5.7170      0.0100     78.3900
    253     -5.9000      9.7620      7.2980      1.5900     78.3900
    254     -5.0380      9.4360      7.6020      0.0100     78.3900

 CREATION OF A NEW CAVITY WITH THE ORIGINAL SPHERE
 SIZES FOR THE COMPUTATION OF THE CAVITATION ENERGY.

     INPUT FOR CAVITY DEFINITION 
     ---------------------------
   ATOM               COORDINATES                RADIUS       EPS
      1     -5.2900     -7.4410      7.4650      0.0100     78.3900
      2     -5.6000     -6.5930      7.8300      1.5900     78.3900
      3     -5.5210     -6.7060      9.2590      1.7700     78.3900
      4     -4.4730     -6.9430      9.5550      0.0100     78.3900
      5     -6.1700     -7.5440      9.5930      0.0100     78.3900
      6     -5.9550     -5.4310      9.9850      1.7700     78.3900
      7     -5.9040     -5.5700     11.0870      0.0100     78.3900
      8     -5.0490     -4.3360      9.6450      1.5900     78.3900
      9     -5.7990     -3.1340      9.5390      1.7700     78.3900
     10     -5.3320     -2.4000     10.2380      0.0100     78.3900
     11     -5.7540     -2.5890      8.1740      1.6800     78.3900
     12     -6.0770     -1.3100      7.8080      1.7700     78.3900
     13     -7.1250      1.8780      8.6450      1.6800     78.3900
     14     -7.2740      1.8100      9.6270      0.0100     78.3900
     15     -7.2850      2.7560      8.1860      0.0100     78.3900
     16     -6.5010     -0.3380      8.6330      1.6800     78.3900
     17     -6.6930      0.8150      7.9980      1.7700     78.3900
     18     -6.4540      0.9850      6.6590      1.6800     78.3900
     19     -6.6190      1.8960      6.2610      0.0100     78.3900
     20     -6.0050      0.0050      5.7830      1.7700     78.3900
     21     -5.8140      0.2440      4.5860      1.5900     78.3900
     22     -5.8340     -1.2400      6.4490      1.7700     78.3900
     23     -5.4090     -2.4680      5.9590      1.6800     78.3900
     24     -5.3720     -3.2410      7.0210      1.7700     78.3900
     25     -5.0700     -4.2920      7.0350      0.0100     78.3900
     26     -7.2080     -3.4340      9.9950      1.7700     78.3900
     27     -7.9650     -2.8070      9.4840      0.0100     78.3900
     28     -7.3030     -3.2470     11.3930      1.5900     78.3900
     29     -8.1890     -3.5300     11.6470      0.0100     78.3900
     30     -7.3540     -4.9050      9.6240      1.7700     78.3900
     31     -7.4680     -5.0220      8.5210      0.0100     78.3900
     32     -8.3590     -5.6230     10.3730      1.5900     78.3900
     33     -9.8290     -5.7360      9.8220      2.1000     78.3900
     34     -9.7720     -6.2490      8.4340      1.5900     78.3900
     35    -10.6270     -6.5330     10.7770      1.5900     78.3900
     36    -10.3640     -4.2480      9.8220      1.5900     78.3900
     37    -10.6610     -3.6120     11.0960      1.7700     78.3900
     38     -9.7850     -3.6340     11.7790      0.0100     78.3900
     39    -11.5010     -4.1350     11.6150      0.0100     78.3900
     40    -11.0770     -2.1450     10.9180      1.7700     78.3900
     41    -11.3090     -1.6750     11.8970      0.0100     78.3900
     42     -9.9940     -1.3840     10.3180      1.5900     78.3900
     43    -10.5450     -0.4300      9.4150      1.7700     78.3900
     44    -10.1780      0.5540      9.7820      0.0100     78.3900
     45    -10.0850     -0.6050      8.0120      1.6800     78.3900
     46     -9.5890     -1.8170      7.5980      1.7700     78.3900
     47     -9.5720     -2.6050      8.3500      0.0100     78.3900
     48     -9.1310     -1.9950      6.3520      1.7700     78.3900
     49     -8.6960     -2.9370      6.0200      0.0100     78.3900
     50    -10.1750      0.4510      7.1070      1.7700     78.3900
     51    -10.6460      1.5340      7.4790      1.5900     78.3900
     52     -9.7340      0.2810      5.8390      1.6800     78.3900
     53     -9.2130     -0.8940      5.4530      1.7700     78.3900
     54     -8.7590     -1.0190      4.2080      1.6800     78.3900
     55     -8.7870     -0.2280      3.5910      0.0100     78.3900
     56     -8.3190     -1.8570      3.8830      0.0100     78.3900
     57    -12.0550     -0.4780      9.5520      1.7700     78.3900
     58    -12.5760     -0.2680      8.5930      0.0100     78.3900
     59    -12.4920      0.4360     10.5470      1.5900     78.3900
     60    -13.4430      0.2850     10.6630      0.0100     78.3900
     61    -12.2720     -1.9260      9.9850      1.7700     78.3900
     62    -12.1340     -2.6110      9.1190      0.0100     78.3900
     63    -13.4970     -2.1930     10.7000      1.5900     78.3900
     64    -14.8400     -2.3450      9.8840      2.1000     78.3900
     65    -14.6340     -3.3850      8.8490      1.5900     78.3900
     66    -15.9300     -2.5690     10.8550      1.5900     78.3900
     67    -15.0660     -0.9490      9.1860      1.5900     78.3900
     68    -15.8040     -0.9270      7.9400      1.7700     78.3900
     69    -16.8740     -1.1880      8.1140      0.0100     78.3900
     70    -15.3860     -1.6560      7.2020      0.0100     78.3900
     71    -15.7520      0.4630      7.2990      1.7700     78.3900
     72    -16.1180      1.2370      8.0060      0.0100     78.3900
     73    -14.3900      0.8090      6.9440      1.5900     78.3900
     74    -14.3860      1.5260      5.7210      1.7700     78.3900
     75    -13.8910      2.5000      5.9370      0.0100     78.3900
     76    -13.6190      0.7930      4.6660      1.6800     78.3900
     77    -13.1800     -0.5000      4.8700      1.7700     78.3900
     78    -13.4660     -0.9650      5.8180      0.0100     78.3900
     79    -13.3090      1.4660      3.5050      1.7700     78.3900
     80    -13.6600      2.6200      3.3090      1.5900     78.3900
     81    -12.5680      0.7510      2.5920      1.6800     78.3900
     82    -12.3470      1.2410      1.7260      0.0100     78.3900
     83    -12.0680     -0.5270      2.7520      1.7700     78.3900
     84    -11.3740     -1.0410      1.8800      1.5900     78.3900
     85    -12.4300     -1.1620      3.9810      1.7700     78.3900
     86    -12.0820     -2.1750      4.1690      0.0100     78.3900
     87    -15.8440      1.7810      5.3410      1.7700     78.3900
     88    -15.9950      1.7670      4.2440      0.0100     78.3900
     89    -16.2910      3.0190      5.8700      1.5900     78.3900
     90    -17.2330      3.1040      5.6580      0.0100     78.3900
     91    -16.5390      0.5980      5.9990      1.7700     78.3900
     92    -16.3340     -0.3230      5.4070      0.0100     78.3900
     93    -17.9320      0.7920      6.3110      1.5900     78.3900
     94    -19.0770      0.2770      5.3760      2.1000     78.3900
     95    -20.2520     -0.0520      6.2190      1.5900     78.3900
     96    -19.2950      1.2620      4.3020      1.5900     78.3900
     97    -18.5350     -1.0580      4.7460      1.5900     78.3900
     98    -18.3480     -2.2620      5.5240      1.7700     78.3900
     99    -18.9430     -2.2670      6.4690      0.0100     78.3900
    100    -17.2740     -2.3530      5.7990      0.0100     78.3900
    101    -18.7280     -3.5080      4.7170      1.7700     78.3900
    102    -18.3780     -4.4340      5.2230      0.0100     78.3900
    103    -20.1760     -3.5950      4.6340      1.5900     78.3900
    104    -20.5480     -4.0740      3.3480      1.7700     78.3900
    105    -21.1480     -4.9930      3.5390      0.0100     78.3900
    106    -21.3810     -3.1020      2.5900      1.6800     78.3900
    107    -21.3830     -1.7730      2.9490      1.7700     78.3900
    108    -20.7300     -1.4990      3.7790      0.0100     78.3900
    109    -22.1700     -0.8860      2.3280      1.7700     78.3900
    110    -22.2150      0.1600      2.6220      0.0100     78.3900
    111    -22.1700     -3.5350      1.5250      1.7700     78.3900
    112    -22.1740     -4.7400      1.2250      1.5900     78.3900
    113    -22.9350     -2.6390      0.8520      1.6800     78.3900
    114    -22.9710     -1.3540      1.2470      1.7700     78.3900
    115    -23.7780     -0.5100      0.6070      1.6800     78.3900
    116    -24.3220     -0.8500     -0.1580      0.0100     78.3900
    117    -23.8070      0.4650      0.8250      0.0100     78.3900
    118    -19.2770     -4.4570      2.6110      1.7700     78.3900
    119    -19.3410     -4.2690      1.5160      0.0100     78.3900
    120    -18.9670     -5.8210      2.8390      1.5900     78.3900
    121    -18.0730     -5.9770      2.4940      0.0100     78.3900
    122    -18.2560     -3.5310      3.2560      1.7700     78.3900
    123    -18.3890     -2.5010      2.8540      0.0100     78.3900
    124    -16.8960     -3.9990      3.1900      1.5900     78.3900
    125    -15.8750     -3.4880      2.1090      2.1000     78.3900
    126    -14.5170     -3.5830      2.6910      1.5900     78.3900
    127    -16.0800     -4.2180      0.8350      1.5900     78.3900
    128    -16.2400     -1.9800      1.8660      1.5900     78.3900
    129    -15.2580     -1.0170      1.4190      1.7700     78.3900
    130    -14.2440     -1.4550      1.2680      0.0100     78.3900
    131    -15.1620     -0.2450      2.2140      0.0100     78.3900
    132    -15.6780     -0.3010      0.1210      1.7700     78.3900
    133    -15.7490     -1.0100     -0.7280      0.0100     78.3900
    134    -16.9920      0.2920      0.3030      1.5900     78.3900
    135    -17.0510      1.5450     -0.3450      1.7700     78.3900
    136    -17.8930      1.4820     -1.0710      0.0100     78.3900
    137    -17.3250      2.6170      0.6150      1.6800     78.3900
    138    -17.9460      4.5170      1.5290      1.7700     78.3900
    139    -17.5430      3.6960      2.5730      1.6800     78.3900
    140    -17.2000      2.5790      1.9840      1.7700     78.3900
    141    -16.8660      1.6700      2.4910      0.0100     78.3900
    142    -18.8460      6.3240      0.2840      1.6800     78.3900
    143    -18.6050      5.5870     -0.8040      1.7700     78.3900
    144    -18.8830      6.0530     -1.7560      0.0100     78.3900
    145    -18.1210      4.3430     -0.8970      1.6800     78.3900
    146    -17.8170      3.8610      0.3190      1.7700     78.3900
    147    -18.4970      5.8170      1.4960      1.7700     78.3900
    148    -18.7180      6.5630      2.5940      1.6800     78.3900
    149    -18.5040      6.2260      3.5140      0.0100     78.3900
    150    -19.0630      7.4980      2.4910      0.0100     78.3900
    151    -15.7490      1.7450     -1.0990      1.7700     78.3900
    152    -15.4190      2.8080     -1.1130      0.0100     78.3900
    153    -15.8800      1.2680     -2.4260      1.5900     78.3900
    154    -15.0040      1.3270     -2.8400      0.0100     78.3900
    155    -14.7810      0.8850     -0.2900      1.7700     78.3900
    156    -14.5120      1.4080      0.6570      0.0100     78.3900
    157    -13.6210      0.4130     -1.0270      1.5900     78.3900
    158    -12.3740      1.3770     -1.1590      2.1000     78.3900
    159    -12.2050      2.0680      0.1360      1.5900     78.3900
    160    -11.2200      0.6110     -1.6710      1.5900     78.3900
    161    -12.7900      2.4150     -2.2710      1.5900     78.3900
    162    -12.0040      3.6200     -2.4970      1.7700     78.3900
    163    -11.1960      3.4190     -3.2380      0.0100     78.3900
    164    -11.5060      3.9660     -1.5590      0.0100     78.3900
    165    -12.8530      4.8030     -3.0230      1.7700     78.3900
    166    -13.0060      4.7200     -4.1210      0.0100     78.3900
    167    -14.1760      4.7590     -2.4120      1.5900     78.3900
    168    -14.5610      6.0520     -1.9950      1.7700     78.3900
    169    -15.5830      6.2070     -2.4130      0.0100     78.3900
    170    -14.6190      6.1660     -0.5120      1.6800     78.3900
    171    -13.9270      5.2820      0.2920      1.7700     78.3900
    172    -13.3300      4.5170     -0.2130      0.0100     78.3900
    173    -13.9980      5.3600      1.6260      1.7700     78.3900
    174    -13.4490      4.6830      2.2750      0.0100     78.3900
    175    -15.3790      7.1800      0.0670      1.7700     78.3900
    176    -15.9910      7.9670     -0.6720      1.5900     78.3900
    177    -15.4400      7.2840      1.4130      1.6800     78.3900
    178    -14.7950      6.3980      2.1880      1.7700     78.3900
    179    -14.8820      6.5190      3.5110      1.6800     78.3900
    180    -14.4490      5.8650      4.1260      0.0100     78.3900
    181    -15.4570      7.2380      3.8990      0.0100     78.3900
    182    -13.6030      7.0460     -2.6320      1.7700     78.3900
    183    -13.4600      7.9570     -2.0130      0.0100     78.3900
    184    -14.0600      7.4020     -3.9290      1.5900     78.3900
    185    -13.3380      7.8730     -4.3820      0.0100     78.3900
    186    -12.3260      6.2230     -2.6960      1.7700     78.3900
    187    -11.8700      6.1580     -1.6810      0.0100     78.3900
    188    -11.4060      6.6820     -3.7080      1.5900     78.3900
    189    -10.0230      7.3260     -3.3360      2.1000     78.3900
    190     -9.1640      6.2640     -2.7650      1.5900     78.3900
    191     -9.4980      8.0420     -4.5210      1.5900     78.3900
    192    -10.3520      8.4100     -2.2380      1.5900     78.3900
    193     -9.4170      8.6440     -1.1440      1.7700     78.3900
    194     -8.9310      9.6380     -1.2600      0.0100     78.3900
    195     -8.5810      7.9010     -1.1030      0.0100     78.3900
    196    -10.1190      8.6220      0.2180      1.7700     78.3900
    197    -10.7590      9.5200      0.3520      0.0100     78.3900
    198    -10.9920      7.4620      0.3010      1.5900     78.3900
    199    -10.8820      6.8780      1.5790      1.7700     78.3900
    200    -11.9120      6.7920      1.9840      0.0100     78.3900
    201    -10.2770      5.5430      1.4970      1.6800     78.3900
    202    -10.2880      4.6110      2.4950      1.7700     78.3900
    203    -11.1390      3.6830      5.7190      1.6800     78.3900
    204    -11.6140      4.4900      6.0630      0.0100     78.3900
    205    -11.0020      2.8970      6.3290      0.0100     78.3900
    206    -10.8370      4.7710      3.7110      1.6800     78.3900
    207    -10.6860      3.6960      4.4790      1.7700     78.3900
    208    -10.0470      2.5590      4.0600      1.6800     78.3900
    209     -9.9600      1.7950      4.7110      0.0100     78.3900
    210     -9.4910      2.3570      2.8050      1.7700     78.3900
    211     -8.9400      1.2900      2.5170      1.5900     78.3900
    212     -9.6220      3.5140      1.9860      1.7700     78.3900
    213     -9.1820      3.7600      0.6880      1.6800     78.3900
    214     -9.6050      4.9760      0.4320      1.7700     78.3900
    215     -9.4760      5.5100     -0.5140      0.0100     78.3900
    216    -10.0890      7.8250      2.4510      1.7700     78.3900
    217     -9.5120      7.2960      3.2360      0.0100     78.3900
    218    -10.9570      8.7600      3.0610      1.5900     78.3900
    219    -10.4010      9.4370      3.4690      0.0100     78.3900
    220     -9.1790      8.4820      1.4260      1.7700     78.3900
    221     -8.3900      7.7560      1.1100      0.0100     78.3900
    222     -8.6580      9.7790      1.8210      1.5900     78.3900
    223     -7.1530      9.8670      2.2890      2.1000     78.3900
    224     -6.3270      8.9750      1.4490      1.5900     78.3900
[...]
   202    7   6.0   0.00    0.0    0.000000    0.712399    0.716870
   203    7   7.0  11.04   21.6   -0.089941   -0.981195   -1.055256
   204    7   1.0   0.00    0.0    0.000000    0.440638    0.436618
   205    7   1.0   0.00    0.0    0.000000    0.474825    0.520921
   206    7   7.0   2.16    4.2    0.046384   -0.756131   -0.760478
   207    7   6.0   0.00    0.0    0.000001    0.985013    0.985007
   208    7   7.0   0.00    0.0    0.000474   -0.935983   -1.023748
   209    7   1.0   0.00    0.0    0.000000    0.484581    0.544915
   210    7   6.0   0.00    0.0    0.000000    0.886999    0.900665
   211    7   8.0   7.66   16.7    0.156477   -0.763712   -0.754371
   212    7   6.0   0.00    0.0    0.000000   -0.025940   -0.017994
   213    7   7.0   9.76   19.1    0.181045   -0.605001   -0.615896
   214    7   6.0   3.87    6.8    0.011555    0.238462    0.236799
   215    7   1.0   0.00    0.0    0.000000    0.305355    0.308581
   216    7   6.0   0.36    0.6    0.007597    0.143550    0.117790
   217    7   1.0   0.00    0.0    0.000000    0.188436    0.222025
   218    7   8.0  15.05   32.9    0.075730   -0.826255   -0.842496
   219    7   1.0   0.00    0.0    0.000000    0.495914    0.520263
   220    7   6.0   1.50    2.6   -0.034058    0.131370    0.087400
   221    7   1.0   0.00    0.0    0.000000    0.246498    0.245449
   222    7   8.0   4.74   10.4    0.051862   -0.800865   -0.803032
   223    7  15.0  11.54   14.5    0.150297    1.606675    1.658293
   224    7   8.0  15.24   33.3    0.314943   -0.896521   -0.894442
   225    7   8.0  17.52   38.3    0.346684   -0.889583   -0.884286
   226    7   8.0   0.86    1.9    0.015520   -0.972067   -0.786815
   227    8   6.0  12.03   21.2   -0.091564    0.188946   -0.025264
   228    8   1.0   0.00    0.0    0.000000    0.172882    0.180990
   229    8   1.0   0.00    0.0    0.000000    0.242997    0.223785
   230    8   6.0   7.30   12.9   -0.050962    0.089348    0.147916
   231    8   1.0   0.00    0.0    0.000000    0.253740    0.224166
   232    8   8.0   4.61   10.1    0.054947   -0.729845   -0.736291
   233    8   6.0   4.29    7.6   -0.040340    0.417933    0.417630
   234    8   1.0   0.00    0.0    0.000000    0.254749    0.248866
   235    8   7.0   0.10    0.2   -0.001433   -0.823970   -0.833165
   236    8   6.0   2.18    3.8    0.001910    0.197480    0.179106
   237    8   1.0   0.00    0.0    0.000000    0.304531    0.327572
   238    8   6.0   7.75   13.7   -0.040339   -0.396269   -0.406039
   239    8   1.0   0.00    0.0    0.000000    0.269641    0.276681
   240    8   6.0   2.35    4.1   -0.005430    1.069469    1.079830
   241    8   8.0   9.88   21.6    0.142576   -0.797048   -0.768217
   242    8   7.0   1.89    3.7    0.019095   -0.870032   -0.864176
   243    8   6.0   1.11    2.0   -0.001981    0.718904    0.728661
   244    8   7.0  13.28   26.0   -0.078812   -0.944789   -0.996357
   245    8   1.0   0.00    0.0    0.000000    0.463787    0.502030
   246    8   1.0   0.00    0.0    0.000000    0.446618    0.444451
   247    8   6.0   5.35    9.4   -0.054265    0.123669    0.124563
   248    8   1.0   0.00    0.0    0.000000    0.224525    0.223229
   249    8   8.0  20.90   45.7    0.043484   -0.842036   -0.844946
   250    8   1.0   0.00    0.0    0.000000    0.506986    0.506637
   251    8   6.0   5.75   10.1   -0.051908    0.162262    0.144364
   252    8   1.0   0.00    0.0    0.000000    0.220597    0.223925
   253    8   8.0  22.05   48.2   -0.016238   -0.848407   -0.852346
   254    8   1.0   0.00    0.0    0.000000    0.508055    0.507214

 Done with FMO properties.
 CPU     0: STEP CPU TIME=     0.00 TOTAL CPU TIME=      11618.3 (    193.6 MIN)
 TOTAL WALL CLOCK TIME=      26092.7 SECONDS, CPU UTILIZATION IS    44.53%
 CPU     0: STEP CPU TIME=     0.00 TOTAL CPU TIME=      11618.3 (    193.6 MIN)
 TOTAL WALL CLOCK TIME=      26092.7 SECONDS, CPU UTILIZATION IS    44.53%

 Total timing statistics in pairs (CPU,wall) for each rank, sec

    Rank   total     SCF    corr     DFT    CPHF     EFP    solv     ESP    geom
 -------------------------------------------------------------------------------
       1   11618.3   3490.5   4602.0      0.0    0.0   0.0   86.9  3259.6    0.0
       1   26092.9   7407.3  11522.5      0.0    0.0   0.0  252.0  6466.1    0.0
       2   11684.5   3446.9   4700.9      0.0    0.0   0.0   87.2  3268.4    0.0
       2   26092.8   7405.5  11519.1      0.0    0.0   0.0  252.1  6465.4    0.0
       3   10985.3   3421.0   4127.3      0.0    0.0   0.0   87.5  3180.4    0.0
       3   26092.9   7405.8  11519.1      0.0    0.0   0.0  251.9  6465.5    0.0
       4   11513.3   3469.9   4596.6      0.0    0.0   0.0   86.5  3183.8    0.0
       4   26092.8   7406.2  11519.1      0.0    0.0   0.0  251.2  6465.3    0.0
       5   11528.5   3455.8   4544.8      0.0    0.0   0.0   87.0  3277.7    0.0
       5   26092.9   7406.3  11519.1      0.0    0.0   0.0  251.6  6465.6    0.0
       6   11803.3   3463.1   4767.8      0.0    0.0   0.0   87.0  3310.9    0.0
       6   26092.9   7406.8  11519.1      0.0    0.0   0.0  250.9  6465.3    0.0
       7   10819.7   3373.9   4066.7      0.0    0.0   0.0   86.8  3125.6    0.0
       7   26092.9   7406.8  11519.1      0.0    0.0   0.0  251.0  6465.4    0.0
       8   11308.8   3379.2   4506.6      0.0    0.0   0.0   86.1  3159.3    0.0
       8   26092.9   7407.1  11519.1      0.0    0.0   0.0  250.4  6465.2    0.0
       9   11460.8   3436.0   4554.6      0.0    0.0   0.0   84.8  3216.6    0.0
       9   26092.9   7407.2  11519.1      0.0    0.0   0.0  250.6  6465.7    0.0
      10   11640.8   3465.1   4704.5      0.0    0.0   0.0   85.4  3214.8    0.0
      10   26092.8   7406.8  11519.1      0.0    0.0   0.0  250.6  6465.6    0.0
      11   10962.8   3421.6   4107.1      0.0    0.0   0.0   85.6  3187.9    0.0
      11   26092.9   7407.4  11519.1      0.0    0.0   0.0  250.3  6465.5    0.0
      12   10780.7   3390.4   3976.9      0.0    0.0   0.0   85.2  3159.6    0.0
      12   26092.8   7407.5  11519.1      0.0    0.0   0.0  249.8  6465.5    0.0
      13   11386.2   3486.1   4482.2      0.0    0.0   0.0   84.9  3161.6    0.0
      13   26092.9   7407.8  11519.1      0.0    0.0   0.0  250.1  6465.5    0.0
      14   11687.1   3457.3   4862.4      0.0    0.0   0.0   85.2  3117.5    0.0
      14   26092.9   7407.4  11519.1      0.0    0.0   0.0  250.1  6465.6    0.0
      15   11327.9   3466.5   4477.5      0.0    0.0   0.0   85.4  3121.7    0.0
      15   26092.8   7407.4  11519.1      0.0    0.0   0.0  250.1  6465.5    0.0
      16   10509.4   3356.0   3913.7      0.0    0.0   0.0   85.3  2999.6    0.0
      16   26092.8   7407.7  11519.1      0.0    0.0   0.0  249.5  6465.5    0.0
averaged   11313.6   3436.2   4437.0      0.0    0.0   0.0   86.0  3184.1    0.0
averaged   26092.9   7406.9  11519.3      0.0    0.0   0.0  250.8  6465.5    0.0

  FMO  timing statistics in pairs (CPU,wall) for each rank, sec

    Rank  FMOini FMOscf1  FMOdm1 FMOsyn1 FMOscf2  FMOes2 FMOsyn2 FMOscf3 FMOsyn3
 -------------------------------------------------------------------------------
       1    1.6    4490.3    0.2    0.0    7002.3     123.9    0.0    0.0    0.0
       1    4.0    9254.7    0.4    0.0   16588.0     245.4    0.0    0.0    0.0
       2    1.2    4377.5    0.1    0.0    7178.0     127.7    0.0    0.0    0.0
       2    4.0    9254.7    0.4    0.0   16592.8     240.6    0.0    0.0    0.0
       3    1.3    4457.8    0.1    0.0    6410.2     115.8    0.0    0.0    0.0
       3    4.0    9254.7    0.4    0.0   16592.8     240.6    0.0    0.0    0.0
       4    1.2    4382.4    0.1    0.0    7005.5     124.2    0.0    0.0    0.0
       4    4.0    9254.7    0.4    0.0   16592.8     240.7    0.0    0.0    0.0
       5    1.4    4502.5    0.2    0.0    6915.1     109.3    0.0    0.0    0.0
       5    4.0    9254.7    0.4    0.0   16592.8     240.6    0.0    0.0    0.0
       6    1.2    4493.5    0.0    0.0    7186.8     121.8    0.0    0.0    0.0
       6    4.0    9254.7    0.4    0.0   16592.6     240.9    0.0    0.0    0.0
       7    1.3    4426.4    0.1    0.0    6278.5     113.3    0.0    0.0    0.0
       7    4.0    9254.7    0.4    0.0   16592.9     240.6    0.0    0.0    0.0
       8    1.1    4374.5    0.1    0.0    6807.5     125.6    0.0    0.0    0.0
       8    4.0    9254.7    0.4    0.0   16592.6     240.8    0.0    0.0    0.0
       9    1.4    4438.4    0.2    0.0    6905.0     115.9    0.0    0.0    0.0
       9    4.0    9254.7    0.4    0.0   16592.7     240.8    0.0    0.0    0.0
      10    1.1    4413.8    0.1    0.0    7106.0     119.9    0.0    0.0    0.0
      10    4.0    9254.7    0.4    0.0   16592.8     240.7    0.0    0.0    0.0
      11    1.2    4427.1    0.1    0.0    6426.3     108.2    0.0    0.0    0.0
      11    4.0    9254.7    0.4    0.0   16593.0     240.5    0.0    0.0    0.0
      12    1.0    4379.9    0.1    0.0    6282.0     117.6    0.0    0.0    0.0
      12    4.0    9254.7    0.4    0.0   16592.5     241.0    0.0    0.0    0.0
      13    1.3    4401.5    0.1    0.0    6864.2     119.1    0.0    0.0    0.0
      13    4.0    9254.7    0.4    0.0   16592.6     240.8    0.0    0.0    0.0
      14    1.0    4374.5    0.1    0.0    7197.7     113.8    0.0    0.0    0.0
      14    4.0    9254.7    0.4    0.0   16593.1     240.4    0.0    0.0    0.0
      15    1.2    4312.0    0.1    0.0    6889.3     125.3    0.0    0.0    0.0
      15    4.0    9254.7    0.4    0.0   16592.6     240.8    0.0    0.0    0.0
      16    1.1    4220.1    0.0    0.0    6184.7     103.4    0.0    0.0    0.0
      16    4.0    9254.7    0.4    0.0   16592.7     240.7    0.0    0.0    0.0
averaged    1.2    4404.5    0.1    0.0    6789.9     117.8    0.0    0.0    0.0
averaged    4.0    9254.7    0.4    0.0   16592.5     241.0    0.0    0.0    0.0
             62778773  WORDS OF DYNAMIC MEMORY USED
 EXECUTION OF GAMESS TERMINATED NORMALLY Sun Nov 17 01:11:21 2019
 DDI: 263640 bytes (0.3 MB / 0 MWords) used by master data server.

 ----------------------------------------
 CPU timing information for all processes
 ========================================
 0: 11320.03 + 298.424 = 11618.427
 1: 11401.153 + 283.405 = 11684.558
 2: 10723.13 + 262.407 = 10985.420
 3: 11235.865 + 277.532 = 11513.397
 4: 11239.928 + 288.609 = 11528.537
 5: 11516.924 + 286.523 = 11803.447
 6: 10551.744 + 268.52 = 10819.797
 7: 11040.235 + 268.626 = 11308.861
 8: 11170.267 + 290.671 = 11460.939
 9: 11373.21 + 267.880 = 11640.901
 10: 10711.391 + 251.506 = 10962.898
 11: 10548.938 + 231.819 = 10780.757
 12: 11107.834 + 278.498 = 11386.333
 13: 11404.735 + 282.478 = 11687.214
 14: 11057.392 + 270.585 = 11327.977
 15: 10280.336 + 229.119 = 10509.455
 ----------------------------------------
 ddikick.x: exited gracefully.
----- accounting info -----
Files used on the master node gollum050.lsa.umich.edu were:
-rw-r--r-- 1 hazwong frank    13421 Nov 16 17:56 /scratch/hazwong/636425/4A4S_4/usrc/4A4S_4_fmo_input.F05
-rw-r--r-- 1 hazwong frank      634 Nov 17 01:11 /scratch/hazwong/636425/4A4S_4/usrc/4A4S_4_fmo_input.F06.001
-rw-r--r-- 1 hazwong frank      634 Nov 17 01:11 /scratch/hazwong/636425/4A4S_4/usrc/4A4S_4_fmo_input.F06.002
-rw-r--r-- 1 hazwong frank      634 Nov 17 01:11 /scratch/hazwong/636425/4A4S_4/usrc/4A4S_4_fmo_input.F06.003
-rw-r--r-- 1 hazwong frank      634 Nov 17 01:11 /scratch/hazwong/636425/4A4S_4/usrc/4A4S_4_fmo_input.F06.004
-rw-r--r-- 1 hazwong frank      634 Nov 17 01:11 /scratch/hazwong/636425/4A4S_4/usrc/4A4S_4_fmo_input.F06.005
-rw-r--r-- 1 hazwong frank      634 Nov 17 01:11 /scratch/hazwong/636425/4A4S_4/usrc/4A4S_4_fmo_input.F06.006
-rw-r--r-- 1 hazwong frank      634 Nov 17 01:11 /scratch/hazwong/636425/4A4S_4/usrc/4A4S_4_fmo_input.F06.007
-rw-r--r-- 1 hazwong frank      634 Nov 17 01:11 /scratch/hazwong/636425/4A4S_4/usrc/4A4S_4_fmo_input.F06.008
-rw-r--r-- 1 hazwong frank      634 Nov 17 01:11 /scratch/hazwong/636425/4A4S_4/usrc/4A4S_4_fmo_input.F06.009
-rw-r--r-- 1 hazwong frank      634 Nov 17 01:11 /scratch/hazwong/636425/4A4S_4/usrc/4A4S_4_fmo_input.F06.010
-rw-r--r-- 1 hazwong frank      634 Nov 17 01:11 /scratch/hazwong/636425/4A4S_4/usrc/4A4S_4_fmo_input.F06.011
-rw-r--r-- 1 hazwong frank      634 Nov 17 01:11 /scratch/hazwong/636425/4A4S_4/usrc/4A4S_4_fmo_input.F06.012
-rw-r--r-- 1 hazwong frank      634 Nov 17 01:11 /scratch/hazwong/636425/4A4S_4/usrc/4A4S_4_fmo_input.F06.013
-rw-r--r-- 1 hazwong frank      634 Nov 17 01:11 /scratch/hazwong/636425/4A4S_4/usrc/4A4S_4_fmo_input.F06.014
-rw-r--r-- 1 hazwong frank      634 Nov 17 01:11 /scratch/hazwong/636425/4A4S_4/usrc/4A4S_4_fmo_input.F06.015
-rw-r--r-- 1 hazwong frank     6172 Nov 17 01:11 /scratch/hazwong/636425/4A4S_4/usrc/4A4S_4_fmo_input.F07
-rw-r--r-- 1 hazwong frank        0 Nov 16 17:56 /scratch/hazwong/636425/4A4S_4/usrc/4A4S_4_fmo_input.F07.001
-rw-r--r-- 1 hazwong frank        0 Nov 16 17:56 /scratch/hazwong/636425/4A4S_4/usrc/4A4S_4_fmo_input.F07.002
-rw-r--r-- 1 hazwong frank        0 Nov 16 17:56 /scratch/hazwong/636425/4A4S_4/usrc/4A4S_4_fmo_input.F07.003
-rw-r--r-- 1 hazwong frank        0 Nov 16 17:56 /scratch/hazwong/636425/4A4S_4/usrc/4A4S_4_fmo_input.F07.004
-rw-r--r-- 1 hazwong frank        0 Nov 16 17:56 /scratch/hazwong/636425/4A4S_4/usrc/4A4S_4_fmo_input.F07.005
-rw-r--r-- 1 hazwong frank        0 Nov 16 17:56 /scratch/hazwong/636425/4A4S_4/usrc/4A4S_4_fmo_input.F07.006
-rw-r--r-- 1 hazwong frank        0 Nov 16 17:56 /scratch/hazwong/636425/4A4S_4/usrc/4A4S_4_fmo_input.F07.007
-rw-r--r-- 1 hazwong frank        0 Nov 16 17:56 /scratch/hazwong/636425/4A4S_4/usrc/4A4S_4_fmo_input.F07.008
-rw-r--r-- 1 hazwong frank        0 Nov 16 17:56 /scratch/hazwong/636425/4A4S_4/usrc/4A4S_4_fmo_input.F07.009
-rw-r--r-- 1 hazwong frank        0 Nov 16 17:56 /scratch/hazwong/636425/4A4S_4/usrc/4A4S_4_fmo_input.F07.010
-rw-r--r-- 1 hazwong frank        0 Nov 16 17:56 /scratch/hazwong/636425/4A4S_4/usrc/4A4S_4_fmo_input.F07.011
-rw-r--r-- 1 hazwong frank        0 Nov 16 17:56 /scratch/hazwong/636425/4A4S_4/usrc/4A4S_4_fmo_input.F07.012
-rw-r--r-- 1 hazwong frank        0 Nov 16 17:56 /scratch/hazwong/636425/4A4S_4/usrc/4A4S_4_fmo_input.F07.013
-rw-r--r-- 1 hazwong frank        0 Nov 16 17:56 /scratch/hazwong/636425/4A4S_4/usrc/4A4S_4_fmo_input.F07.014
-rw-r--r-- 1 hazwong frank        0 Nov 16 17:56 /scratch/hazwong/636425/4A4S_4/usrc/4A4S_4_fmo_input.F07.015
-rw-r--r-- 1 hazwong frank    65440 Nov 17 01:11 /scratch/hazwong/636425/4A4S_4/usrc/4A4S_4_fmo_input.F10.000
-rw-r--r-- 1 hazwong frank        0 Nov 16 17:56 /scratch/hazwong/636425/4A4S_4/usrc/4A4S_4_fmo_input.F26.000
-rw-r--r-- 1 hazwong frank        0 Nov 16 17:56 /scratch/hazwong/636425/4A4S_4/usrc/4A4S_4_fmo_input.F26.001
-rw-r--r-- 1 hazwong frank        0 Nov 16 17:56 /scratch/hazwong/636425/4A4S_4/usrc/4A4S_4_fmo_input.F26.002
-rw-r--r-- 1 hazwong frank        0 Nov 16 17:56 /scratch/hazwong/636425/4A4S_4/usrc/4A4S_4_fmo_input.F26.003
-rw-r--r-- 1 hazwong frank        0 Nov 16 17:56 /scratch/hazwong/636425/4A4S_4/usrc/4A4S_4_fmo_input.F26.004
-rw-r--r-- 1 hazwong frank        0 Nov 16 17:56 /scratch/hazwong/636425/4A4S_4/usrc/4A4S_4_fmo_input.F26.005
-rw-r--r-- 1 hazwong frank        0 Nov 16 17:56 /scratch/hazwong/636425/4A4S_4/usrc/4A4S_4_fmo_input.F26.006
-rw-r--r-- 1 hazwong frank        0 Nov 16 17:56 /scratch/hazwong/636425/4A4S_4/usrc/4A4S_4_fmo_input.F26.007
-rw-r--r-- 1 hazwong frank        0 Nov 16 17:56 /scratch/hazwong/636425/4A4S_4/usrc/4A4S_4_fmo_input.F26.008
-rw-r--r-- 1 hazwong frank        0 Nov 16 17:56 /scratch/hazwong/636425/4A4S_4/usrc/4A4S_4_fmo_input.F26.009
-rw-r--r-- 1 hazwong frank        0 Nov 16 17:56 /scratch/hazwong/636425/4A4S_4/usrc/4A4S_4_fmo_input.F26.010
-rw-r--r-- 1 hazwong frank        0 Nov 16 17:56 /scratch/hazwong/636425/4A4S_4/usrc/4A4S_4_fmo_input.F26.011
-rw-r--r-- 1 hazwong frank        0 Nov 16 17:56 /scratch/hazwong/636425/4A4S_4/usrc/4A4S_4_fmo_input.F26.012
-rw-r--r-- 1 hazwong frank        0 Nov 16 17:56 /scratch/hazwong/636425/4A4S_4/usrc/4A4S_4_fmo_input.F26.013
-rw-r--r-- 1 hazwong frank        0 Nov 16 17:56 /scratch/hazwong/636425/4A4S_4/usrc/4A4S_4_fmo_input.F26.014
-rw-r--r-- 1 hazwong frank        0 Nov 16 17:56 /scratch/hazwong/636425/4A4S_4/usrc/4A4S_4_fmo_input.F26.015
-rw-r--r-- 1 hazwong frank        0 Nov 16 17:56 /scratch/hazwong/636425/4A4S_4/usrc/4A4S_4_fmo_input.F27.000
-rw-r--r-- 1 hazwong frank        0 Nov 16 17:56 /scratch/hazwong/636425/4A4S_4/usrc/4A4S_4_fmo_input.F27.001
-rw-r--r-- 1 hazwong frank        0 Nov 16 17:56 /scratch/hazwong/636425/4A4S_4/usrc/4A4S_4_fmo_input.F27.002
-rw-r--r-- 1 hazwong frank        0 Nov 16 17:56 /scratch/hazwong/636425/4A4S_4/usrc/4A4S_4_fmo_input.F27.003
-rw-r--r-- 1 hazwong frank        0 Nov 16 17:56 /scratch/hazwong/636425/4A4S_4/usrc/4A4S_4_fmo_input.F27.004
-rw-r--r-- 1 hazwong frank        0 Nov 16 17:56 /scratch/hazwong/636425/4A4S_4/usrc/4A4S_4_fmo_input.F27.005
-rw-r--r-- 1 hazwong frank        0 Nov 16 17:56 /scratch/hazwong/636425/4A4S_4/usrc/4A4S_4_fmo_input.F27.006
-rw-r--r-- 1 hazwong frank        0 Nov 16 17:56 /scratch/hazwong/636425/4A4S_4/usrc/4A4S_4_fmo_input.F27.007
-rw-r--r-- 1 hazwong frank        0 Nov 16 17:56 /scratch/hazwong/636425/4A4S_4/usrc/4A4S_4_fmo_input.F27.008
-rw-r--r-- 1 hazwong frank        0 Nov 16 17:56 /scratch/hazwong/636425/4A4S_4/usrc/4A4S_4_fmo_input.F27.009
-rw-r--r-- 1 hazwong frank        0 Nov 16 17:56 /scratch/hazwong/636425/4A4S_4/usrc/4A4S_4_fmo_input.F27.010
-rw-r--r-- 1 hazwong frank        0 Nov 16 17:56 /scratch/hazwong/636425/4A4S_4/usrc/4A4S_4_fmo_input.F27.011
-rw-r--r-- 1 hazwong frank        0 Nov 16 17:56 /scratch/hazwong/636425/4A4S_4/usrc/4A4S_4_fmo_input.F27.012
-rw-r--r-- 1 hazwong frank        0 Nov 16 17:56 /scratch/hazwong/636425/4A4S_4/usrc/4A4S_4_fmo_input.F27.013
-rw-r--r-- 1 hazwong frank        0 Nov 16 17:56 /scratch/hazwong/636425/4A4S_4/usrc/4A4S_4_fmo_input.F27.014
-rw-r--r-- 1 hazwong frank        0 Nov 16 17:56 /scratch/hazwong/636425/4A4S_4/usrc/4A4S_4_fmo_input.F27.015
-rw-r--r-- 1 hazwong frank 15876096 Nov 16 20:30 /scratch/hazwong/636425/4A4S_4/usrc/4A4S_4_fmo_input.F40.000
-rw-r--r-- 1 hazwong frank 15876096 Nov 16 20:30 /scratch/hazwong/636425/4A4S_4/usrc/4A4S_4_fmo_input.F40.001
-rw-r--r-- 1 hazwong frank 15876096 Nov 16 20:30 /scratch/hazwong/636425/4A4S_4/usrc/4A4S_4_fmo_input.F40.002
-rw-r--r-- 1 hazwong frank 15876096 Nov 16 20:30 /scratch/hazwong/636425/4A4S_4/usrc/4A4S_4_fmo_input.F40.003
-rw-r--r-- 1 hazwong frank 15876096 Nov 16 20:30 /scratch/hazwong/636425/4A4S_4/usrc/4A4S_4_fmo_input.F40.004
-rw-r--r-- 1 hazwong frank 15876096 Nov 16 20:30 /scratch/hazwong/636425/4A4S_4/usrc/4A4S_4_fmo_input.F40.005
-rw-r--r-- 1 hazwong frank 15876096 Nov 16 20:30 /scratch/hazwong/636425/4A4S_4/usrc/4A4S_4_fmo_input.F40.006
-rw-r--r-- 1 hazwong frank 15876096 Nov 16 20:30 /scratch/hazwong/636425/4A4S_4/usrc/4A4S_4_fmo_input.F40.007
-rw-r--r-- 1 hazwong frank 15876096 Nov 16 20:30 /scratch/hazwong/636425/4A4S_4/usrc/4A4S_4_fmo_input.F40.008
-rw-r--r-- 1 hazwong frank 15876096 Nov 16 20:30 /scratch/hazwong/636425/4A4S_4/usrc/4A4S_4_fmo_input.F40.009
-rw-r--r-- 1 hazwong frank 15876096 Nov 16 20:30 /scratch/hazwong/636425/4A4S_4/usrc/4A4S_4_fmo_input.F40.010
-rw-r--r-- 1 hazwong frank 15876096 Nov 16 20:30 /scratch/hazwong/636425/4A4S_4/usrc/4A4S_4_fmo_input.F40.011
-rw-r--r-- 1 hazwong frank 15876096 Nov 16 20:30 /scratch/hazwong/636425/4A4S_4/usrc/4A4S_4_fmo_input.F40.012
-rw-r--r-- 1 hazwong frank 15876096 Nov 16 20:30 /scratch/hazwong/636425/4A4S_4/usrc/4A4S_4_fmo_input.F40.013
-rw-r--r-- 1 hazwong frank 15876096 Nov 16 20:30 /scratch/hazwong/636425/4A4S_4/usrc/4A4S_4_fmo_input.F40.014
-rw-r--r-- 1 hazwong frank 15876096 Nov 16 20:30 /scratch/hazwong/636425/4A4S_4/usrc/4A4S_4_fmo_input.F40.015
Sun Nov 17 01:11:24 EST 2019
0.185u 0.079s 7:14:56.43 0.0%	0+0k 1352+128io 25pf+0w
