----- GAMESS execution script 'rungms' -----
This job is running on host gollum080.lsa.umich.edu
under operating system Linux at Sat Dec 7 00:11:24 EST 2019
Available scratch disk space (Kbyte units) at beginning of the job is
Filesystem     1K-blocks  Used Available Use% Mounted on
/dev/sda4      426933580 33428 426900152   1% /scratch
GAMESS temporary binary files will be written to /scratch/hazwong/824208/4A4U_2/usrc
GAMESS supplementary output files will be written to /scratch/hazwong/824208/4A4U_2/src
Copying input file 4A4U_2_fmo_input.inp to your run's scratch directory...
This is a GDDI run, keeping various output files on local disks
 
Assuming a single but multicore node.
 

 Distributed Data Interface kickoff program.
 Initiating 16 compute processes on 1 nodes to run the following command:
 /export/apps/CentOS7/gamess/src/build//gamess.R3.x 4A4U_2_fmo_input 

          ******************************************************
          *         GAMESS VERSION = 30 SEP 2018 (R3)         *
          *             FROM IOWA STATE UNIVERSITY             *
          * M.W.SCHMIDT, K.K.BALDRIDGE, J.A.BOATZ, S.T.ELBERT, *
          *   M.S.GORDON, J.H.JENSEN, S.KOSEKI, N.MATSUNAGA,   *
          *          K.A.NGUYEN, S.J.SU, T.L.WINDUS,           *
          *       TOGETHER WITH M.DUPUIS, J.A.MONTGOMERY       *
          *         J.COMPUT.CHEM.  14, 1347-1363(1993)        *
          **************** 64 BIT LINUX VERSION ****************

  SINCE 1993, STUDENTS AND POSTDOCS WORKING AT IOWA STATE UNIVERSITY
  AND ALSO IN THEIR VARIOUS JOBS AFTER LEAVING ISU HAVE MADE IMPORTANT
  CONTRIBUTIONS TO THE CODE:
     IVANA ADAMOVIC, CHRISTINE AIKENS, YURI ALEXEEV, POOJA ARORA,
     ANDREY ASADCHEV, ROB BELL, PRADIPTA BANDYOPADHYAY, JONATHAN BENTZ,
     BRETT BODE, KURT BRORSEN, CALEB CARLIN, GALINA CHABAN, WEI CHEN,
     CHEOL HO CHOI, PAUL DAY, ALBERT DEFUSCO, NUWAN DESILVA, TIM DUDLEY,
     DMITRI FEDOROV, ALEX FINDLATER, GRAHAM FLETCHER, MARK FREITAG,
     KURT GLAESEMANN, ANASTASIA GUNINA,
     DAN KEMP, GRANT MERRILL, NORIYUKI MINEZAWA, JONATHAN MULLIN,
     TAKESHI NAGATA, SEAN NEDD, HEATHER NETZLOFF, BOSILJKA NJEGIC, RYAN OLSON,
     MIKE PAK, BUU PHAM,
     SPENCER PRUITT, LUKE ROSKOP, JIM SHOEMAKER, LYUDMILA SLIPCHENKO,
     TONY SMITH, SAROM SOK LEANG, JIE SONG, TETSUYA TAKETSUGU, SIMON WEBB,
     PENG XU, SOOHAENG YOO, FEDERICO ZAHARIEV

  ADDITIONAL CODE HAS BEEN PROVIDED BY COLLABORATORS IN OTHER GROUPS:
     IOWA STATE UNIVERSITY:
          JOE IVANIC, AARON WEST, LAIMUTIS BYTAUTAS, KLAUS RUEDENBERG
     UNIVERSITY OF TOKYO: KIMIHIKO HIRAO, TAKAHITO NAKAJIMA,
          TAKAO TSUNEDA, MUNEAKI KAMIYA, SUSUMU YANAGISAWA,
          KIYOSHI YAGI, MAHITO CHIBA, SEIKEN TOKURA, NAOAKI KAWAKAMI
     UNIVERSITY OF AARHUS: FRANK JENSEN
     UNIVERSITY OF IOWA: VISVALDAS KAIRYS, HUI LI
     NATIONAL INST. OF STANDARDS AND TECHNOLOGY: WALT STEVENS, DAVID GARMER
     UNIVERSITY OF PISA: BENEDETTA MENNUCCI, JACOPO TOMASI
     UNIVERSITY OF MEMPHIS: HENRY KURTZ, PRAKASHAN KORAMBATH
     UNIVERSITY OF ALBERTA: TOBY ZENG, MARIUSZ KLOBUKOWSKI
     UNIVERSITY OF NEW ENGLAND: MARK SPACKMAN
     MIE UNIVERSITY: HIROAKI UMEDA
     NAT. INST. OF ADVANCED INDUSTRIAL SCIENCE AND TECHNOLOGY: KAZUO KITAURA
     MICHIGAN STATE UNIVERSITY:
          KAROL KOWALSKI, MARTA WLOCH, JEFFREY GOUR, JESSE LUTZ,
          WEI LI, JUN SHEN, J. EMILIANO DEUSTUA, PIOTR PIECUCH
     UNIVERSITY OF MINNESOTA:
          YINAN SHU
     UNIVERSITY OF SILESIA: MONIKA MUSIAL, STANISLAW KUCHARSKI
     FACULTES UNIVERSITAIRES NOTRE-DAME DE LA PAIX:
          OLIVIER QUINET, BENOIT CHAMPAGNE
     UNIVERSITY OF CALIFORNIA - SANTA BARBARA: BERNARD KIRTMAN
     INSTITUTE FOR MOLECULAR SCIENCE:
          KAZUYA ISHIMURA, MICHIO KATOUDA, AND SHIGERU NAGASE
     UNIVERSITY OF NOTRE DAME: ANNA POMOGAEVA, DAN CHIPMAN
     KYUSHU UNIVERSITY:
          HARUYUKI NAKANO,
          FENG LONG GU, JACEK KORCHOWIEC, MARCIN MAKOWSKI, AND YURIKO AOKI,
          HIROTOSHI MORI AND EISAKU MIYOSHI
     PENNSYLVANIA STATE UNIVERSITY:
          TZVETELIN IORDANOV, CHET SWALINA, JONATHAN SKONE,
          SHARON HAMMES-SCHIFFER
     WASEDA UNIVERSITY:
          MASATO KOBAYASHI, TOMOKO AKAMA, TSUGUKI TOUMA,
          TAKESHI YOSHIKAWA, YASUHIRO IKABATA, JUNJI SEINO,
          YUYA NAKAJIMA, HIROMI NAKAI
     NANJING UNIVERSITY: SHUHUA LI
     UNIVERSITY OF NEBRASKA:
          PEIFENG SU, DEJUN SI, NANDUN THELLAMUREGE, YALI WANG, HUI LI
     UNIVERSITY OF ZURICH: ROBERTO PEVERATI, KIM BALDRIDGE
     N. COPERNICUS UNIVERSITY AND JACKSON STATE UNIVERSITY:
          MARIA BARYSZ
     UNIVERSITY OF COPENHAGEN: Jimmy Kromann, CASPER STEINMANN
     TOKYO INSTITUTE OF TECHNOLOGY: HIROYA NAKATA
     NAGOYA UNIVERSITY: YOSHIO NISHIMOTO, STEPHAN IRLE
     MOSCOW STATE UNIVERSITY: VLADIMIR MIRONOV


 PARALLEL VERSION RUNNING ON       16 PROCESSORS IN        1 NODES.

 EXECUTION OF GAMESS BEGUN Sat Dec  7 00:11:24 2019

            ECHO OF THE FIRST FEW INPUT CARDS -
 INPUT CARD>!*** FMO 5.3 (Gamess) INPUT generated by Facio 22.1.1.32 ***                    
 INPUT CARD> $CONTRL RUNTYP=ENERGY NPRINT=-5 ISPHER=1 MAXIT=200 $END                        
 INPUT CARD> $SYSTEM MWORDS=63 MEMDDI=63 $END                                               
 INPUT CARD> $GDDI NGROUP=1 $END                                                            
 INPUT CARD> $SCF DIRSCF=.TRUE. NPUNCH=0 $END                                               
 INPUT CARD>!*** NumCPU : 2  MemPerNode : 512MB                                             
 INPUT CARD> $PCM SOLVNT=WATER IEF=-10 ICOMP=2 ICAV=1 IDISP=1 IFMO=-1 $END                  
 INPUT CARD> $PCMCAV RADII=SUAHF $END                                                       
 INPUT CARD> $TESCAV NTSALL=60 $END                                                         
 INPUT CARD> $FMOPRP                                                                        
 INPUT CARD>    NAODIR=200                                                                  
 INPUT CARD>    NGRFMO(1)=1, 1, 0, 0, 0,   0, 0, 0, 0, 0                                    
 INPUT CARD>    IPIEDA=1                                                                    
 INPUT CARD>    NPRINT=9                                                                    
 INPUT CARD> $END                                                                           
 INPUT CARD> $FMO                                                                           
 INPUT CARD>      SCFTYP(1)=RHF                                                             
 INPUT CARD>      MODGRD=10                                                                 
 INPUT CARD>      MODMUL=0                                                                  
 INPUT CARD>      MAXCAO=5                                                                  
 INPUT CARD>      MAXBND=10                                                                 
 INPUT CARD>      NLAYER=1                                                                  
 INPUT CARD>      MPLEVL(1)=2                                                               
 INPUT CARD>      NFRAG=8                                                                   
 INPUT CARD>      ICHARG(1)=-1, -1, -1, -1, -1, -1, -1, 0                                   
 INPUT CARD>      FRGNAM(1)=F1, F2, F3, F4, F5, F6, F7, F8                                  
 INPUT CARD>      indat(1)=0                                                                
 INPUT CARD>               1   -36   0                                                      
 INPUT CARD>               37   -67   0                                                     
 INPUT CARD>               68   -97   0                                                     
 INPUT CARD>               98   -131   0                                                    
 INPUT CARD>               132   -164   0                                                   
 INPUT CARD>               165   -195   0                                                   
 INPUT CARD>               196   -229   0                                                   
 INPUT CARD>               230   -257   0                                                   
 INPUT CARD> $END                                                                           
 INPUT CARD>                                                                                
 INPUT CARD> $FMOBND                                                                        
 INPUT CARD>   -37   36       6-31G*    MINI                                                
 INPUT CARD>   -68   67       6-31G*    MINI                                                
 INPUT CARD>   -98   97       6-31G*    MINI                                                
 INPUT CARD>   -132   131       6-31G*    MINI                                              
 INPUT CARD>   -165   164       6-31G*    MINI                                              
 INPUT CARD>   -196   195       6-31G*    MINI                                              
 INPUT CARD>   -230   229       6-31G*    MINI                                              
 INPUT CARD> $END                                                                           
 INPUT CARD> $FMOHYB                                                                        
 INPUT CARD> 6-31G*      15   5                                                             
 INPUT CARD>   1 0  -0.065034   0.288264   0.000000   0.000000   0.604412                   
 INPUT CARD>         0.290129   0.000000   0.000000   0.319045  -0.017106                   


 -------------------------------------------------------------
 GROUP DDI, PROGRAMMED BY: RYAN M. OLSON AND DMITRI G. FEDOROV
        FEDOROV ET AL., J. COMPUT. CHEM., 25 (2004) 872.
 -------------------------------------------------------------

 -------------------------------------------------------
 GDDI: INITIALIZATION COMPLETED FOR GROUP     1 OF     1
 WITH    16 PROCESSES BALTYP=DLB   global rank=        0
 -------------------------------------------------------

   63000000 WORDS OF MEMORY AVAILABLE


     RUN TITLE
     ---------
  FMO calculation                                                                

 THE POINT GROUP OF THE MOLECULE IS C1      
 THE ORDER OF THE PRINCIPAL AXIS IS     0

 ATOM   ATOMIC CHARGE
 H.1-1       1.0
 O.1-1       8.0
 C.1-1       6.0
 N.1-1       7.0
 P.1-1      15.0

     ATOMIC BASIS SET LIBRARY
     ----------------
 THE CONTRACTED PRIMITIVE FUNCTIONS HAVE BEEN UNNORMALIZED
 THE CONTRACTED BASIS FUNCTIONS ARE NOW NORMALIZED TO UNITY

  SHELL TYPE  PRIMITIVE        EXPONENT          CONTRACTION COEFFICIENT(S)

 H.1-1     

      1   S       1            18.7311370    0.033494604338
      1   S       2             2.8253944    0.234726953484
      1   S       3             0.6401217    0.813757326146

      2   S       4             0.1612778    1.000000000000

 O.1-1     

      3   S       5          5484.6716600    0.001831074430
      3   S       6           825.2349460    0.013950172200
      3   S       7           188.0469580    0.068445078098
      3   S       8            52.9645000    0.232714335992
      3   S       9            16.8975704    0.470192897984
      3   S      10             5.7996353    0.358520852987

      4   L      11            15.5396162   -0.110777549525    0.070874268231
      4   L      12             3.5999336   -0.148026262701    0.339752839147
      4   L      13             1.0137618    1.130767015354    0.727158577316

      5   L      14             0.2700058    1.000000000000    1.000000000000

      6   D      15             0.8000000    1.000000000000

 C.1-1     

      7   S      16          3047.5248800    0.001834737132
      7   S      17           457.3695180    0.014037322813
      7   S      18           103.9486850    0.068842622264
      7   S      19            29.2101553    0.232184443216
      7   S      20             9.2866630    0.467941348435
      7   S      21             3.1639270    0.362311985337

      8   L      22             7.8682723   -0.119332419775    0.068999066591
      8   L      23             1.8812885   -0.160854151696    0.316423960957
      8   L      24             0.5442493    1.143456437840    0.744308290898

      9   L      25             0.1687145    1.000000000000    1.000000000000

     10   D      26             0.8000000    1.000000000000

 N.1-1     

     11   S      27          4173.5114600    0.001834772160
     11   S      28           627.4579110    0.013994627002
     11   S      29           142.9020930    0.068586551812
     11   S      30            40.2343293    0.232240873040
     11   S      31            12.8202129    0.469069948082
     11   S      32             4.3904370    0.360455199063

     12   L      33            11.6263619   -0.114961181702    0.067579743878
     12   L      34             2.7162798   -0.169117478561    0.323907295893
     12   L      35             0.7722184    1.145851947027    0.740895139755

     13   L      36             0.2120315    1.000000000000    1.000000000000

     14   D      37             0.8000000    1.000000000000

 P.1-1     

     15   S      38         19413.3000000    0.001851598923
     15   S      39          2909.4200000    0.014206191735
     15   S      40           661.3640000    0.069999459277
     15   S      41           185.7590000    0.240078860331
     15   S      42            59.1943000    0.484761717984
     15   S      43            20.0310000    0.335199804993

     16   L      44           339.4780000   -0.002782170105    0.004564616191
     16   L      45            81.0101000   -0.036049901354    0.033693571881
     16   L      46            25.8780000   -0.116631004382    0.139754883368
     16   L      47             9.4522100    0.096832803638    0.339361716786
     16   L      48             3.6656600    0.614418023082    0.450920623685
     16   L      49             1.4674600    0.403798015170    0.238585800889

     17   L      50             2.1562300   -0.252924113863   -0.017765312733
     17   L      51             0.7489970    0.032851844678    0.274058196433
     17   L      52             0.2831450    1.081254761783    0.785421562957

     18   L      53             0.0998317    1.000000000000    1.000000000000

     19   D      54             0.5500000    1.000000000000

 TOTAL NUMBER OF BASIS SET SHELLS             =   19
 NUMBER OF CARTESIAN GAUSSIAN BASIS FUNCTIONS =   66

     $CONTRL OPTIONS
     ---------------
 SCFTYP=RHF          RUNTYP=ENERGY       EXETYP=RUN     
 MPLEVL=       0     CITYP =NONE         CCTYP =NONE         VBTYP =NONE    
 DFTTYP=NONE         TDDFT =NONE    
 MULT  =       1     ICHARG=       0     NZVAR =       0     COORD =UNIQUE  
 PP    =NONE         RELWFN=NONE         LOCAL =NONE         NUMGRD=       F
 ISPHER=       1     NOSYM =       0     MAXIT =     200     UNITS =ANGS    
 PLTORB=       F     MOLPLT=       F     AIMPAC=       F     FRIEND=        
 NPRINT=      -5     IREST =       0     GEOM  =INPUT   
 NORMF =       0     NORMP =       0     ITOL  =      24     ICUT  =      12
 INTTYP=BEST         GRDTYP=BEST         QMTTOL= 1.0E-06

     $SYSTEM OPTIONS
     ---------------
  REPLICATED MEMORY=    63000000 WORDS (ON EVERY NODE).
 DISTRIBUTED MEMDDI=          63 MILLION WORDS IN AGGREGATE,
 MEMDDI DISTRIBUTED OVER  16 PROCESSORS IS     3937500 WORDS/PROCESSOR.
 TOTAL MEMORY REQUESTED ON EACH PROCESSOR=    66937500 WORDS.
 TIMLIM=      525600.00 MINUTES, OR     365.0 DAYS.
 PARALL= T  BALTYP=  DLB     KDIAG=    0  COREFL= F
 MXSEQ2=     300 MXSEQ3=     150  mem10=         0

 ** LOOKING UP INTERNALLY STORED DATA FOR SOLVENT=WATER    **
 OPTICAL AND PHYSICAL CONSTANTS:
 EPS= 78.390; EPSINF=  1.776; RSOLV=  1.385 A; VMOL=  18.070 ML/MOL;
 TCE= .25700E-03 1/K; STEN= 71.810 DYN/CM;  DSTEN=  0.6500; CMF=  1.2770


     -----------------------------------
     INPUT FOR PCM SOLVATION CALCULATION 
     -----------------------------------
     IEF   =     -10
     ICOMP =       2     IFIELD=       0     ICAV  =       1
     IDISP =       1     IREP  =       0     IDP   =       0

     SOLVNT=WATER        EPS   = 78.3900     EPSINF=  1.7760
     VMOL  = 18.0700     TCE   =  0.00025700 STEN  = 71.8100
     DSTEN =  0.6500     CMF   =  1.2770     RSOLV =  1.3850

     NESFP =       0
     OMEGA = 40.0000     RET   =100.0000     FRO   =  0.7000

     TABS  =298.0000     IPRINT=       0

     --------------------------------
     INPUT FOR ITERATIVE C-PCM METHOD 
     --------------------------------
     IPCMIT  =         1     MXDIIS  =        50
     MXITR1  =       200     MXITR2  =       200
     THRES   = 0.100E-09     IMUL    =         3
     RCUT(1) =   20.0000     RCUT(2) =   50.0000

     IDIRCT  =         1
     IMGABI  =         0     RABI    =    4.0000
     IMGASC  =         0     RASC    =   20.0000
     THRSLS  = 0.500E-03     DENSLS  =    0.0100
     IEFPOL  =         1     REFPOL  =    0.0000

     INPUT FOR ISOTROPIC DIELECTRICS
     -------------------------------
     EPS=    78.39

          ----------------
          PROPERTIES INPUT
          ----------------

     MOMENTS            FIELD           POTENTIAL          DENSITY
 IEMOM =       1   IEFLD =       0   IEPOT =       0   IEDEN =       0
 WHERE =COMASS     WHERE =NUCLEI     WHERE =NUCLEI     WHERE =NUCLEI  
 OUTPUT=BOTH       OUTPUT=BOTH       OUTPUT=NONE       OUTPUT=BOTH    
 IEMINT=       0   IEFINT=       0                     IEDINT=       0
                                                       MORB  =       0
          EXTRAPOLATION IN EFFECT
          SOSCF IN EFFECT
 ORBITAL PRINTING OPTION: NPREO=     1 32767     2     1

     -------------------------------
     INTEGRAL TRANSFORMATION OPTIONS
     -------------------------------
     NWORD  =            0
     CUTOFF = 1.0E-10     MPTRAN =       0
     DIRTRF =       T     AOINTS =DUP     

          ----------------------
          INTEGRAL INPUT OPTIONS
          ----------------------
 NOPK  =       1 NORDER=       0 SCHWRZ=       T

 ..... DONE SETTING UP THE RUN .....
 CPU     0: STEP CPU TIME=     0.04 TOTAL CPU TIME=          0.0 (      0.0 MIN)
 TOTAL WALL CLOCK TIME=          0.1 SECONDS, CPU UTILIZATION IS    66.67%
 CPU     0: STEP CPU TIME=     0.00 TOTAL CPU TIME=          0.0 (      0.0 MIN)
 TOTAL WALL CLOCK TIME=          0.1 SECONDS, CPU UTILIZATION IS    66.67%

                    ----------------------
                    AO INTEGRAL TECHNOLOGY
                    ----------------------
     S,P,L SHELL ROTATED AXIS INTEGRALS, REPROGRAMMED BY
        KAZUYA ISHIMURA (IMS) AND JOSE SIERRA (SYNSTAR).
     S,P,D,L SHELL ROTATED AXIS INTEGRALS PROGRAMMED BY
        KAZUYA ISHIMURA (INSTITUTE FOR MOLECULAR SCIENCE).
     S,P,D,F,G SHELL TO TOTAL QUARTET ANGULAR MOMENTUM SUM 5,
        ERIC PROGRAM BY GRAHAM FLETCHER (ELORET AND NASA ADVANCED
        SUPERCOMPUTING DIVISION, AMES RESEARCH CENTER).
     S,P,D,F,G,L SHELL GENERAL RYS QUADRATURE PROGRAMMED BY
        MICHEL DUPUIS (PACIFIC NORTHWEST NATIONAL LABORATORY).
 Setting modorb=1 flag...
 Setting modorb=1 flag...

          -----------------------
          MP2 CONTROL INFORMATION
          -----------------------
          NACORE =        8  NBCORE =        8
          LMOMP2 =        F  AOINTS = DUP     
          METHOD =        2  NWORD  =               0
          MP2PRP =        F  OSPT   = NONE    
          CUTOFF = 1.00E-12  CPHFBS = BASISAO 
          CODE   = IMS     

          NUMBER OF CORE -A-  ORBITALS =     8
          NUMBER OF CORE -B-  ORBITALS =     8
          NUMBER OF OCC. -A-  ORBITALS =    18
          NUMBER OF OCC. -B-  ORBITALS =    18
          NUMBER OF MOLECULAR ORBITALS =    66
          NUMBER OF   BASIS  FUNCTIONS =    66

 CPU     0: STEP CPU TIME=     0.02 TOTAL CPU TIME=          0.1 (      0.0 MIN)
 TOTAL WALL CLOCK TIME=          0.1 SECONDS, CPU UTILIZATION IS    60.00%
 CPU     0: STEP CPU TIME=     0.00 TOTAL CPU TIME=          0.1 (      0.0 MIN)
 TOTAL WALL CLOCK TIME=          0.1 SECONDS, CPU UTILIZATION IS    60.00%

     INPUT FOR CAVITY DEFINITION 
     ---------------------------
   ATOM               COORDINATES                RADIUS       EPS
      1    -11.8630     -5.5800     -2.2860      0.0100     78.3900
      2    -11.3190     -5.9690     -1.5740      1.5900     78.3900
      3    -11.2590     -7.3800     -1.8240      1.7700     78.3900
      4    -10.7910     -7.5520     -2.8200      0.0100     78.3900
      5    -12.2920     -7.7920     -1.8530      0.0100     78.3900
      6    -10.4530     -8.1410     -0.7660      1.7700     78.3900
      7    -10.4330     -9.2290     -0.9980      0.0100     78.3900
      8     -9.0720     -7.6720     -0.7560      1.5900     78.3900
      9     -8.5980     -7.6390      0.5820      1.7700     78.3900
     10     -7.6720     -8.2570      0.6170      0.0100     78.3900
     11     -8.2740     -6.2680      1.0020      1.6800     78.3900
     12     -7.4900     -5.9190      2.0670      1.7700     78.3900
     13     -5.5600     -6.8220      4.7940      1.6800     78.3900
     14     -5.6260     -7.8180      4.7870      0.0100     78.3900
     15     -5.0010     -6.3740      5.4970      0.0100     78.3900
     16     -6.9040     -6.7710      2.9250      1.6800     78.3900
     17     -6.1810     -6.1430      3.8490      1.7700     78.3900
     18     -6.0320     -4.7810      3.8850      1.6800     78.3900
     19     -5.4560     -4.3870      4.6120      0.0100     78.3900
     20     -6.6050     -3.8750      3.0000      1.7700     78.3900
     21     -6.4120     -2.6580      3.1030      1.5900     78.3900
     22     -7.4190     -4.5380      2.0410      1.7700     78.3900
     23     -8.1820     -4.0240      0.9990      1.6800     78.3900
     24     -8.6720     -5.0900      0.4070      1.7700     78.3900
     25     -9.3180     -5.0880     -0.4750      0.0100     78.3900
     26     -9.6570     -8.2770      1.4550      1.7700     78.3900
     27     -9.6870     -7.8510      2.4780      0.0100     78.3900
     28     -9.4370     -9.6730      1.5280      1.5900     78.3900
     29    -10.1690    -10.0410      2.0370      0.0100     78.3900
     30    -10.9290     -7.9530      0.6800      1.7700     78.3900
     31    -11.1910     -6.8760      0.7950      0.0100     78.3900
     32    -12.0410     -8.8300      0.9430      1.5900     78.3900
     33    -13.0960     -8.4520      2.0440      2.1000     78.3900
     34    -13.5610     -7.0670      1.8160      1.5900     78.3900
     35    -14.1290     -9.5110      2.0520      1.5900     78.3900
     36    -12.2750     -8.4970      3.3900      1.5900     78.3900
     37    -11.8660     -9.7780      3.9260      1.7700     78.3900
     38    -11.2550    -10.3550      3.1960      0.0100     78.3900
     39    -12.7590    -10.3950      4.1800      0.0100     78.3900
     40    -11.0350     -9.6200      5.2000      1.7700     78.3900
     41    -10.7560    -10.6150      5.6060      0.0100     78.3900
     42     -9.7900     -8.9220      4.9120      1.5900     78.3900
     43     -9.4630     -8.0960      6.0240      1.7700     78.3900
     44     -8.4560     -8.4360      6.3560      0.0100     78.3900
     45     -9.3980     -6.6500      5.6750      1.6800     78.3900
     46    -10.0620     -6.1740      4.5680      1.7700     78.3900
     47    -10.6320     -6.9140      4.0050      0.0100     78.3900
     48     -9.9850     -4.8860      4.2080      1.7700     78.3900
     49    -10.4770     -4.4980      3.3180      0.0100     78.3900
     50     -8.6880     -5.7660      6.4850      1.7700     78.3900
     51     -8.1240     -6.1930      7.5040      1.5900     78.3900
     52     -8.6070     -4.4630      6.1420      1.6800     78.3900
     53     -9.2220     -4.0130      5.0380      1.7700     78.3900
     54     -9.1090     -2.7250      4.7300      1.6800     78.3900
     55     -8.5920     -2.1230      5.3440      0.0100     78.3900
     56     -9.5100     -2.3340      3.8990      0.0100     78.3900
     57    -10.4680     -8.3890      7.1240      1.7700     78.3900
     58    -10.6940     -7.4960      7.7440      0.0100     78.3900
     59     -9.9990     -9.4490      7.9410      1.5900     78.3900
     60    -10.7450     -9.7490      8.4810      0.0100     78.3900
     61    -11.6890     -8.8120      6.3210      1.7700     78.3900
     62    -12.1750     -7.9310      5.8440      0.0100     78.3900
     63    -12.6150     -9.6480      7.0400      1.5900     78.3900
     64    -13.8460     -9.0180      7.7830      2.1000     78.3900
     65    -14.7500     -8.4480      6.7630      1.5900     78.3900
     66    -14.4150    -10.0520      8.6770      1.5900     78.3900
     67    -13.2490     -7.8400      8.6170      1.5900     78.3900
     68    -12.5880     -8.0160      9.8860      1.7700     78.3900
     69    -11.6560     -8.6140      9.7780      0.0100     78.3900
     70    -13.2550     -8.5460     10.6050      0.0100     78.3900
     71    -12.2160     -6.6590     10.4970      1.7700     78.3900
     72    -11.7340     -6.7820     11.4890      0.0100     78.3900
     73    -11.2690     -5.9690      9.6300      1.5900     78.3900
     74    -11.5450     -4.5780      9.6440      1.7700     78.3900
     75    -10.6010     -4.1210     10.0070      0.0100     78.3900
     76    -11.8620     -4.0610      8.2860      1.6800     78.3900
     77    -12.4120     -4.8910      7.3410      1.7700     78.3900
     78    -12.5520     -5.9220      7.6550      0.0100     78.3900
     79    -11.5550     -2.7460      7.9930      1.7700     78.3900
     80    -11.0690     -1.9840      8.8070      1.5900     78.3900
     81    -11.8480     -2.3700      6.6990      1.6800     78.3900
     82    -11.6040     -1.4200      6.4590      0.0100     78.3900
     83    -12.3700     -3.1580      5.6940      1.7700     78.3900
     84    -12.5310     -2.7050      4.5610      1.5900     78.3900
     85    -12.6690     -4.5010      6.0860      1.7700     78.3900
     86    -13.0430     -5.1940      5.3370      0.0100     78.3900
     87    -12.6480     -4.3410     10.6680      1.7700     78.3900
     88    -13.3170     -3.4910     10.4150      0.0100     78.3900
     89    -12.0410     -4.1490     11.9330      1.5900     78.3900
     90    -12.0900     -3.2110     12.2070      0.0100     78.3900
     91    -13.3840     -5.6720     10.6310      1.7700     78.3900
     92    -13.9670     -5.7510      9.6860      0.0100     78.3900
     93    -14.1650     -5.9710     11.8120      1.5900     78.3900
     94    -15.7250     -5.7860     11.7910      2.1000     78.3900
     95    -16.2450     -6.2580     10.4920      1.5900     78.3900
     96    -16.2840     -6.4380     12.9960      1.5900     78.3900
     97    -15.9620     -4.2300     11.9130      1.5900     78.3900
     98    -17.3210     -3.7140     11.9380      1.7700     78.3900
     99    -18.0910     -4.5110     12.0920      0.0100     78.3900
    100    -17.5450     -3.2340     10.9580      0.0100     78.3900
    101    -17.5260     -2.6690     13.0480      1.7700     78.3900
    102    -18.5520     -2.2420     13.0060      0.0100     78.3900
    103    -17.3960     -3.3190     14.3410      1.5900     78.3900
    104    -16.7240     -2.4520     15.2430      1.7700     78.3900
    105    -17.3940     -2.3320     16.1230      0.0100     78.3900
    106    -15.4500     -3.0290     15.6950      1.6800     78.3900
    107    -14.6930     -2.6050     16.7570      1.7700     78.3900
    108    -14.1490     -0.4420     19.4060      1.6800     78.3900
    109    -13.5050     -0.3380     20.1590      0.0100     78.3900
    110    -14.9470      0.1630     19.3580      0.0100     78.3900
    111    -14.9770     -1.5720     17.5710      1.6800     78.3900
    112    -14.0620     -1.4260     18.5310      1.7700     78.3900
    113    -12.9920     -2.2680     18.6900      1.6800     78.3900
    114    -12.3570     -2.0910     19.4440      0.0100     78.3900
    115    -12.6990     -3.3600     17.8820      1.7700     78.3900
    116    -11.7290     -4.0930     18.0900      1.5900     78.3900
    117    -13.6330     -3.4890     16.8240      1.7700     78.3900
    118    -13.6990     -4.4260     15.8050      1.6800     78.3900
    119    -14.7940     -4.1140     15.1570      1.7700     78.3900
    120    -15.1900     -4.6420     14.2890      0.0100     78.3900
    121    -16.5470     -1.1140     14.5600      1.7700     78.3900
    122    -15.6030     -0.6130     14.8570      0.0100     78.3900
    123    -17.6530     -0.2750     14.8450      1.5900     78.3900
    124    -17.5940      0.4830     14.2480      0.0100     78.3900
    125    -16.5140     -1.5110     13.0920      1.7700     78.3900
    126    -15.5210     -1.9540     12.8410      0.0100     78.3900
    127    -16.9180     -0.4500     12.1960      1.5900     78.3900
    128    -15.8640      0.2570     11.2730      2.1000     78.3900
    129    -15.0430     -0.7580     10.5870      1.5900     78.3900
    130    -16.5950      1.2270     10.4290      1.5900     78.3900
    131    -14.9460      1.0610     12.2530      1.5900     78.3900
    132    -15.4010      2.1410     13.0890      1.7700     78.3900
    133    -16.3520      1.8870     13.6130      0.0100     78.3900
    134    -15.5910      3.0450     12.4670      0.0100     78.3900
    135    -14.3370      2.4890     14.1470      1.7700     78.3900
    136    -14.6550      3.3560     14.7620      0.0100     78.3900
    137    -14.1780      1.3540     15.0480      1.5900     78.3900
    138    -12.8100      1.1660     15.3600      1.7700     78.3900
    139    -12.7330      1.1630     16.4710      0.0100     78.3900
    140    -12.3260     -0.1140     14.8280      1.6800     78.3900
    141    -11.2530     -2.0060     14.5190      1.7700     78.3900
    142    -12.1250     -1.8730     13.4520      1.6800     78.3900
    143    -12.7450     -0.7550     13.6870      1.7700     78.3900
    144    -13.5360     -0.3690     13.0590      0.0100     78.3900
    145     -9.5830     -2.8270     15.9870      1.6800     78.3900
    146     -9.7760     -1.7060     16.6890      1.7700     78.3900
    147     -9.1530     -1.6200     17.5880      0.0100     78.3900
    148    -10.6510     -0.7090     16.4940      1.6800     78.3900
    149    -11.3550     -0.9200     15.3700      1.7700     78.3900
    150    -10.3300     -3.0160     14.8670      1.7700     78.3900
    151    -10.1860     -4.1480     14.1500      1.6800     78.3900
    152    -10.8390     -4.3740     13.4180      0.0100     78.3900
    153     -9.5910     -4.8730     14.5000      0.0100     78.3900
    154    -12.0450      2.3450     14.7970      1.7700     78.3900
    155    -11.0280      2.0640     14.4520      0.0100     78.3900
    156    -11.9580      3.3800     15.7580      1.5900     78.3900
    157    -11.5540      4.1410     15.3100      0.0100     78.3900
    158    -12.9150      2.7550     13.6120      1.7700     78.3900
    159    -12.7560      2.0520     12.7630      0.0100     78.3900
    160    -12.7810      4.1380     13.2080      1.5900     78.3900
    161    -11.5410      4.5580     12.3270      2.1000     78.3900
    162    -11.1840      3.4200     11.4510      1.5900     78.3900
    163    -11.8270      5.8570     11.6720      1.5900     78.3900
    164    -10.3710      4.8160     13.3620      1.5900     78.3900
    165     -8.9850      4.8040     12.8890      1.7700     78.3900
    166     -8.6150      5.8500     12.7950      0.0100     78.3900
    167     -8.8690      4.3270     11.8800      0.0100     78.3900
    168     -8.0410      4.0600     13.8640      1.7700     78.3900
    169     -7.8360      4.6910     14.7550      0.0100     78.3900
    170     -8.7150      2.8730     14.3650      1.5900     78.3900
    171     -7.8150      1.7930     14.4170      1.7700     78.3900
    172     -7.8980      1.3910     15.4480      0.0100     78.3900
    173     -8.1680      0.7110     13.4570      1.6800     78.3900
    174     -8.9520      0.9870     12.3530      1.7700     78.3900
    175     -9.2940      2.0200     12.2430      0.0100     78.3900
    176     -9.2950      0.0250     11.4870      1.7700     78.3900
    177     -9.9150      0.2230     10.6150      0.0100     78.3900
    178     -7.6990     -0.5840     13.6690      1.7700     78.3900
    179     -6.9760     -0.8110     14.6520      1.5900     78.3900
    180     -8.0370     -1.5620     12.8000      1.6800     78.3900
    181     -8.8130     -1.2920     11.7390      1.7700     78.3900
    182     -9.1230     -2.2830     10.9130      1.6800     78.3900
    183     -8.8290     -3.1990     11.1840      0.0100     78.3900
    184     -9.7890     -2.1670     10.1740      0.0100     78.3900
    185     -6.4250      2.3590     14.2170      1.7700     78.3900
    186     -5.7560      1.6200     13.7550      0.0100     78.3900
    187     -5.8700      2.7770     15.4540      1.5900     78.3900
    188     -5.0370      3.2340     15.2540      0.0100     78.3900
    189     -6.7020      3.5430     13.2930      1.7700     78.3900
    190     -6.9220      3.1800     12.2620      0.0100     78.3900
    191     -5.6920      4.5890     13.3250      1.5900     78.3900
    192     -4.4600      4.4560     12.3340      2.1000     78.3900
    193     -4.9660      4.0020     11.0230      1.5900     78.3900
    194     -3.7030      5.7310     12.3420      1.5900     78.3900
    195     -3.5250      3.3480     12.9650      1.5900     78.3900
    196     -2.6620      2.5400     12.1160      1.7700     78.3900
    197     -1.5970      2.7930     12.3140      0.0100     78.3900
    198     -2.8240      2.7240     11.0250      0.0100     78.3900
    199     -2.8640      1.0340     12.3460      1.7700     78.3900
    200     -2.4950      0.7290     13.3470      0.0100     78.3900
    201     -4.2780      0.7320     12.3080      1.5900     78.3900
    202     -4.5010     -0.5130     11.6920      1.7700     78.3900
    203     -5.0900     -1.1250     12.4130      0.0100     78.3900
    204     -5.2740     -0.3510     10.4570      1.6800     78.3900
    205     -5.8190     -1.3570      9.7100      1.7700     78.3900
    206     -6.3950     -4.7290      9.1710      1.6800     78.3900
    207     -5.9590     -5.1580      9.9620      0.0100     78.3900
    208     -6.9460     -5.2950      8.5510      0.0100     78.3900
    209     -5.7230     -2.6720      9.9660      1.6800     78.3900
    210     -6.3830     -3.4120      9.0810      1.7700     78.3900
    211     -7.0660     -2.8770      8.0210      1.6800     78.3900
    212     -7.5550     -3.5030      7.4000      0.0100     78.3900
    213     -7.1770     -1.5240      7.7280      1.7700     78.3900
    214     -7.8100     -1.1230      6.7480      1.5900     78.3900
    215     -6.4770     -0.7290      8.6710      1.7700     78.3900
    216     -6.3420      0.6500      8.7570      1.6800     78.3900
    217     -5.6190      0.8330      9.8370      1.7700     78.3900
    218     -5.3030      1.8010     10.2380      0.0100     78.3900
    219     -3.1460     -1.1380     11.4640      1.7700     78.3900
    220     -3.1220     -1.7990     10.5760      0.0100     78.3900
    221     -2.7620     -1.8720     12.6110      1.5900     78.3900
    222     -1.8550     -2.1640     12.4700      0.0100     78.3900
    223     -2.2760      0.1020     11.2760      1.7700     78.3900
    224     -2.4890      0.5770     10.2890      0.0100     78.3900
    225     -0.8700     -0.1010     11.5230      1.5900     78.3900
    226      0.1050     -0.3600     10.3160      2.1000     78.3900
    227     -0.2410      0.5540      9.2030      1.5900     78.3900
    228      1.5000     -0.3030     10.8160      1.5900     78.3900
    229     -0.2560     -1.8330      9.8780      1.5900     78.3900
    230     -0.0280     -2.9420     10.7750      1.7700     78.3900
    231     -0.4990     -2.7790     11.7700      0.0100     78.3900
    232      1.0640     -3.0690     10.9500      0.0100     78.3900
    233     -0.5590     -4.2580     10.1950      1.7700     78.3900
    234     -0.3120     -5.1130     10.8610      0.0100     78.3900
    235     -2.0090     -4.2080     10.0760      1.5900     78.3900
    236     -2.3980     -4.8580      8.8690      1.7700     78.3900
    237     -3.1200     -5.6520      9.1710      0.0100     78.3900
    238     -3.0600     -3.9330      7.9070      1.6800     78.3900
    239     -2.8750     -2.5740      8.0110      1.7700     78.3900
    240     -2.2470     -2.2390      8.8350      0.0100     78.3900
    241     -3.4630     -1.7190      7.1670      1.7700     78.3900
    242     -3.3530     -0.6410      7.2600      0.0100     78.3900
    243     -3.8300     -4.4410      6.8650      1.7700     78.3900
    244     -3.9490     -5.6690      6.7440      1.5900     78.3900
    245     -4.4240     -3.5940      5.9950      1.6800     78.3900
    246     -4.2640     -2.2660      6.1270      1.7700     78.3900
    247     -4.8880     -1.4560      5.2760      1.6800     78.3900
    248     -5.4580     -1.8450      4.5490      0.0100     78.3900
    249     -4.8180     -0.4600      5.3420      0.0100     78.3900
    250     -1.1580     -5.5150      8.2800      1.7700     78.3900
    251     -1.1810     -5.5300      7.1680      0.0100     78.3900
    252     -1.0160     -6.8360      8.7790      1.5900     78.3900
    253     -0.1430     -7.1750      8.5200      0.0100     78.3900
    254     -0.0610     -4.5850      8.7830      1.7700     78.3900
    255     -0.0530     -3.6460      8.1900      0.0100     78.3900
    256      1.2500     -5.1780      8.8290      1.5900     78.3900
    257      1.5580     -5.3810      7.9260      0.0100     78.3900

     ----------------------------
     INPUT FOR TESSERA DEFINITION
     ----------------------------
     NTSALL  =        60     MTHALL  =         4
     MTHAUT  =         0     AUTFRE  =    2.0000
     NTSFRZ  =        60     KEEPSM  =         0
     AREAKP  =   10.0000     BONDRY  =    1.0000
     AREATL  =    0.0100

     SPHERE     INITS       METHOD
          1        60       FIXPVA
          2        60       FIXPVA
          3        60       FIXPVA
          4        60       FIXPVA
          5        60       FIXPVA
          6        60       FIXPVA
          7        60       FIXPVA
          8        60       FIXPVA
          9        60       FIXPVA
         10        60       FIXPVA
         11        60       FIXPVA
         12        60       FIXPVA
         13        60       FIXPVA
         14        60       FIXPVA
         15        60       FIXPVA
         16        60       FIXPVA
         17        60       FIXPVA
         18        60       FIXPVA
         19        60       FIXPVA
         20        60       FIXPVA
         21        60       FIXPVA
         22        60       FIXPVA
         23        60       FIXPVA
         24        60       FIXPVA
         25        60       FIXPVA
         26        60       FIXPVA
         27        60       FIXPVA
         28        60       FIXPVA
         29        60       FIXPVA
         30        60       FIXPVA
         31        60       FIXPVA
         32        60       FIXPVA
         33        60       FIXPVA
         34        60       FIXPVA
         35        60       FIXPVA
         36        60       FIXPVA
         37        60       FIXPVA
         38        60       FIXPVA
         39        60       FIXPVA
         40        60       FIXPVA
         41        60       FIXPVA
         42        60       FIXPVA
         43        60       FIXPVA
         44        60       FIXPVA
         45        60       FIXPVA
         46        60       FIXPVA
         47        60       FIXPVA
         48        60       FIXPVA
         49        60       FIXPVA
         50        60       FIXPVA
         51        60       FIXPVA
         52        60       FIXPVA
         53        60       FIXPVA
         54        60       FIXPVA
         55        60       FIXPVA
         56        60       FIXPVA
         57        60       FIXPVA
         58        60       FIXPVA
         59        60       FIXPVA
         60        60       FIXPVA
         61        60       FIXPVA
         62        60       FIXPVA
         63        60       FIXPVA
         64        60       FIXPVA
         65        60       FIXPVA
         66        60       FIXPVA
         67        60       FIXPVA
         68        60       FIXPVA
         69        60       FIXPVA
         70        60       FIXPVA
         71        60       FIXPVA
         72        60       FIXPVA
         73        60       FIXPVA
         74        60       FIXPVA
         75        60       FIXPVA
         76        60       FIXPVA
         77        60       FIXPVA
         78        60       FIXPVA
         79        60       FIXPVA
         80        60       FIXPVA
         81        60       FIXPVA
         82        60       FIXPVA
         83        60       FIXPVA
         84        60       FIXPVA
         85        60       FIXPVA
         86        60       FIXPVA
         87        60       FIXPVA
         88        60       FIXPVA
         89        60       FIXPVA
         90        60       FIXPVA
         91        60       FIXPVA
         92        60       FIXPVA
         93        60       FIXPVA
         94        60       FIXPVA
         95        60       FIXPVA
         96        60       FIXPVA
         97        60       FIXPVA
         98        60       FIXPVA
         99        60       FIXPVA
        100        60       FIXPVA
        101        60       FIXPVA
        102        60       FIXPVA
        103        60       FIXPVA
        104        60       FIXPVA
        105        60       FIXPVA
        106        60       FIXPVA
        107        60       FIXPVA
        108        60       FIXPVA
        109        60       FIXPVA
        110        60       FIXPVA
        111        60       FIXPVA
        112        60       FIXPVA
        113        60       FIXPVA
        114        60       FIXPVA
        115        60       FIXPVA
        116        60       FIXPVA
        117        60       FIXPVA
        118        60       FIXPVA
        119        60       FIXPVA
        120        60       FIXPVA
        121        60       FIXPVA
        122        60       FIXPVA
        123        60       FIXPVA
        124        60       FIXPVA
        125        60       FIXPVA
        126        60       FIXPVA
        127        60       FIXPVA
        128        60       FIXPVA
        129        60       FIXPVA
        130        60       FIXPVA
        131        60       FIXPVA
        132        60       FIXPVA
        133        60       FIXPVA
        134        60       FIXPVA
        135        60       FIXPVA
        136        60       FIXPVA
        137        60       FIXPVA
        138        60       FIXPVA
        139        60       FIXPVA
        140        60       FIXPVA
        141        60       FIXPVA
        142        60       FIXPVA
        143        60       FIXPVA
        144        60       FIXPVA
        145        60       FIXPVA
        146        60       FIXPVA
        147        60       FIXPVA
        148        60       FIXPVA
        149        60       FIXPVA
        150        60       FIXPVA
        151        60       FIXPVA
        152        60       FIXPVA
        153        60       FIXPVA
        154        60       FIXPVA
        155        60       FIXPVA
        156        60       FIXPVA
        157        60       FIXPVA
        158        60       FIXPVA
        159        60       FIXPVA
        160        60       FIXPVA
        161        60       FIXPVA
        162        60       FIXPVA
        163        60       FIXPVA
        164        60       FIXPVA
        165        60       FIXPVA
        166        60       FIXPVA
        167        60       FIXPVA
        168        60       FIXPVA
        169        60       FIXPVA
        170        60       FIXPVA
        171        60       FIXPVA
        172        60       FIXPVA
        173        60       FIXPVA
        174        60       FIXPVA
        175        60       FIXPVA
        176        60       FIXPVA
        177        60       FIXPVA
        178        60       FIXPVA
        179        60       FIXPVA
        180        60       FIXPVA
        181        60       FIXPVA
        182        60       FIXPVA
        183        60       FIXPVA
        184        60       FIXPVA
        185        60       FIXPVA
        186        60       FIXPVA
        187        60       FIXPVA
        188        60       FIXPVA
        189        60       FIXPVA
        190        60       FIXPVA
        191        60       FIXPVA
        192        60       FIXPVA
        193        60       FIXPVA
        194        60       FIXPVA
        195        60       FIXPVA
        196        60       FIXPVA
        197        60       FIXPVA
        198        60       FIXPVA
        199        60       FIXPVA
        200        60       FIXPVA
        201        60       FIXPVA
        202        60       FIXPVA
        203        60       FIXPVA
        204        60       FIXPVA
        205        60       FIXPVA
        206        60       FIXPVA
        207        60       FIXPVA
        208        60       FIXPVA
        209        60       FIXPVA
        210        60       FIXPVA
        211        60       FIXPVA
        212        60       FIXPVA
        213        60       FIXPVA
        214        60       FIXPVA
        215        60       FIXPVA
        216        60       FIXPVA
        217        60       FIXPVA
        218        60       FIXPVA
        219        60       FIXPVA
        220        60       FIXPVA
        221        60       FIXPVA
        222        60       FIXPVA
        223        60       FIXPVA
        224        60       FIXPVA
        225        60       FIXPVA
        226        60       FIXPVA
        227        60       FIXPVA
        228        60       FIXPVA
        229        60       FIXPVA
        230        60       FIXPVA
        231        60       FIXPVA
        232        60       FIXPVA
        233        60       FIXPVA
        234        60       FIXPVA
        235        60       FIXPVA
        236        60       FIXPVA
        237        60       FIXPVA
        238        60       FIXPVA
        239        60       FIXPVA
        240        60       FIXPVA
        241        60       FIXPVA
        242        60       FIXPVA
        243        60       FIXPVA
        244        60       FIXPVA
        245        60       FIXPVA
        246        60       FIXPVA
        247        60       FIXPVA
        248        60       FIXPVA
        249        60       FIXPVA
        250        60       FIXPVA
        251        60       FIXPVA
        252        60       FIXPVA
        253        60       FIXPVA
        254        60       FIXPVA
        255        60       FIXPVA
        256        60       FIXPVA
        257        60       FIXPVA

     ------------------------------
      FIXPVA TESSELLATION FOR PCM
         PEIFENG SU AND HUI LI
     UNIVERSITY OF NEBRASKA-LINCOLN
     ------------------------------


 PCM DIMENSIONS: MXSP=   257, MXTS=     10280, MEMORY=        105630

     INPUT FOR CAVITY DEFINITION 
     ---------------------------
   ATOM               COORDINATES                RADIUS       EPS
      1    -11.8630     -5.5800     -2.2860      0.0100     78.3900
      2    -11.3190     -5.9690     -1.5740      1.5900     78.3900
      3    -11.2590     -7.3800     -1.8240      1.7700     78.3900
      4    -10.7910     -7.5520     -2.8200      0.0100     78.3900
      5    -12.2920     -7.7920     -1.8530      0.0100     78.3900
      6    -10.4530     -8.1410     -0.7660      1.7700     78.3900
      7    -10.4330     -9.2290     -0.9980      0.0100     78.3900
      8     -9.0720     -7.6720     -0.7560      1.5900     78.3900
      9     -8.5980     -7.6390      0.5820      1.7700     78.3900
     10     -7.6720     -8.2570      0.6170      0.0100     78.3900
     11     -8.2740     -6.2680      1.0020      1.6800     78.3900
     12     -7.4900     -5.9190      2.0670      1.7700     78.3900
     13     -5.5600     -6.8220      4.7940      1.6800     78.3900
     14     -5.6260     -7.8180      4.7870      0.0100     78.3900
     15     -5.0010     -6.3740      5.4970      0.0100     78.3900
     16     -6.9040     -6.7710      2.9250      1.6800     78.3900
     17     -6.1810     -6.1430      3.8490      1.7700     78.3900
     18     -6.0320     -4.7810      3.8850      1.6800     78.3900
     19     -5.4560     -4.3870      4.6120      0.0100     78.3900
     20     -6.6050     -3.8750      3.0000      1.7700     78.3900
     21     -6.4120     -2.6580      3.1030      1.5900     78.3900
     22     -7.4190     -4.5380      2.0410      1.7700     78.3900
     23     -8.1820     -4.0240      0.9990      1.6800     78.3900
     24     -8.6720     -5.0900      0.4070      1.7700     78.3900
     25     -9.3180     -5.0880     -0.4750      0.0100     78.3900
     26     -9.6570     -8.2770      1.4550      1.7700     78.3900
     27     -9.6870     -7.8510      2.4780      0.0100     78.3900
     28     -9.4370     -9.6730      1.5280      1.5900     78.3900
     29    -10.1690    -10.0410      2.0370      0.0100     78.3900
     30    -10.9290     -7.9530      0.6800      1.7700     78.3900
     31    -11.1910     -6.8760      0.7950      0.0100     78.3900
     32    -12.0410     -8.8300      0.9430      1.5900     78.3900
     33    -13.0960     -8.4520      2.0440      2.1000     78.3900
     34    -13.5610     -7.0670      1.8160      1.5900     78.3900
     35    -14.1290     -9.5110      2.0520      1.5900     78.3900
     36    -12.2750     -8.4970      3.3900      1.5900     78.3900
     37    -11.8660     -9.7780      3.9260      1.7700     78.3900
     38    -11.2550    -10.3550      3.1960      0.0100     78.3900
     39    -12.7590    -10.3950      4.1800      0.0100     78.3900
     40    -11.0350     -9.6200      5.2000      1.7700     78.3900
     41    -10.7560    -10.6150      5.6060      0.0100     78.3900
     42     -9.7900     -8.9220      4.9120      1.5900     78.3900
     43     -9.4630     -8.0960      6.0240      1.7700     78.3900
     44     -8.4560     -8.4360      6.3560      0.0100     78.3900
     45     -9.3980     -6.6500      5.6750      1.6800     78.3900
     46    -10.0620     -6.1740      4.5680      1.7700     78.3900
     47    -10.6320     -6.9140      4.0050      0.0100     78.3900
     48     -9.9850     -4.8860      4.2080      1.7700     78.3900
     49    -10.4770     -4.4980      3.3180      0.0100     78.3900
     50     -8.6880     -5.7660      6.4850      1.7700     78.3900
     51     -8.1240     -6.1930      7.5040      1.5900     78.3900
     52     -8.6070     -4.4630      6.1420      1.6800     78.3900
     53     -9.2220     -4.0130      5.0380      1.7700     78.3900
     54     -9.1090     -2.7250      4.7300      1.6800     78.3900
     55     -8.5920     -2.1230      5.3440      0.0100     78.3900
     56     -9.5100     -2.3340      3.8990      0.0100     78.3900
     57    -10.4680     -8.3890      7.1240      1.7700     78.3900
     58    -10.6940     -7.4960      7.7440      0.0100     78.3900
     59     -9.9990     -9.4490      7.9410      1.5900     78.3900
     60    -10.7450     -9.7490      8.4810      0.0100     78.3900
     61    -11.6890     -8.8120      6.3210      1.7700     78.3900
     62    -12.1750     -7.9310      5.8440      0.0100     78.3900
     63    -12.6150     -9.6480      7.0400      1.5900     78.3900
     64    -13.8460     -9.0180      7.7830      2.1000     78.3900
     65    -14.7500     -8.4480      6.7630      1.5900     78.3900
     66    -14.4150    -10.0520      8.6770      1.5900     78.3900
     67    -13.2490     -7.8400      8.6170      1.5900     78.3900
     68    -12.5880     -8.0160      9.8860      1.7700     78.3900
     69    -11.6560     -8.6140      9.7780      0.0100     78.3900
     70    -13.2550     -8.5460     10.6050      0.0100     78.3900
     71    -12.2160     -6.6590     10.4970      1.7700     78.3900
     72    -11.7340     -6.7820     11.4890      0.0100     78.3900
     73    -11.2690     -5.9690      9.6300      1.5900     78.3900
     74    -11.5450     -4.5780      9.6440      1.7700     78.3900
     75    -10.6010     -4.1210     10.0070      0.0100     78.3900
     76    -11.8620     -4.0610      8.2860      1.6800     78.3900
     77    -12.4120     -4.8910      7.3410      1.7700     78.3900
     78    -12.5520     -5.9220      7.6550      0.0100     78.3900
     79    -11.5550     -2.7460      7.9930      1.7700     78.3900
     80    -11.0690     -1.9840      8.8070      1.5900     78.3900
     81    -11.8480     -2.3700      6.6990      1.6800     78.3900
     82    -11.6040     -1.4200      6.4590      0.0100     78.3900
     83    -12.3700     -3.1580      5.6940      1.7700     78.3900
     84    -12.5310     -2.7050      4.5610      1.5900     78.3900
     85    -12.6690     -4.5010      6.0860      1.7700     78.3900
     86    -13.0430     -5.1940      5.3370      0.0100     78.3900
     87    -12.6480     -4.3410     10.6680      1.7700     78.3900
     88    -13.3170     -3.4910     10.4150      0.0100     78.3900
     89    -12.0410     -4.1490     11.9330      1.5900     78.3900
     90    -12.0900     -3.2110     12.2070      0.0100     78.3900
     91    -13.3840     -5.6720     10.6310      1.7700     78.3900
     92    -13.9670     -5.7510      9.6860      0.0100     78.3900
     93    -14.1650     -5.9710     11.8120      1.5900     78.3900
     94    -15.7250     -5.7860     11.7910      2.1000     78.3900
     95    -16.2450     -6.2580     10.4920      1.5900     78.3900
     96    -16.2840     -6.4380     12.9960      1.5900     78.3900
     97    -15.9620     -4.2300     11.9130      1.5900     78.3900
     98    -17.3210     -3.7140     11.9380      1.7700     78.3900
     99    -18.0910     -4.5110     12.0920      0.0100     78.3900
    100    -17.5450     -3.2340     10.9580      0.0100     78.3900
    101    -17.5260     -2.6690     13.0480      1.7700     78.3900
    102    -18.5520     -2.2420     13.0060      0.0100     78.3900
    103    -17.3960     -3.3190     14.3410      1.5900     78.3900
    104    -16.7240     -2.4520     15.2430      1.7700     78.3900
    105    -17.3940     -2.3320     16.1230      0.0100     78.3900
    106    -15.4500     -3.0290     15.6950      1.6800     78.3900
    107    -14.6930     -2.6050     16.7570      1.7700     78.3900
    108    -14.1490     -0.4420     19.4060      1.6800     78.3900
    109    -13.5050     -0.3380     20.1590      0.0100     78.3900
    110    -14.9470      0.1630     19.3580      0.0100     78.3900
    111    -14.9770     -1.5720     17.5710      1.6800     78.3900
    112    -14.0620     -1.4260     18.5310      1.7700     78.3900
    113    -12.9920     -2.2680     18.6900      1.6800     78.3900
    114    -12.3570     -2.0910     19.4440      0.0100     78.3900
    115    -12.6990     -3.3600     17.8820      1.7700     78.3900
    116    -11.7290     -4.0930     18.0900      1.5900     78.3900
    117    -13.6330     -3.4890     16.8240      1.7700     78.3900
    118    -13.6990     -4.4260     15.8050      1.6800     78.3900
    119    -14.7940     -4.1140     15.1570      1.7700     78.3900
    120    -15.1900     -4.6420     14.2890      0.0100     78.3900
    121    -16.5470     -1.1140     14.5600      1.7700     78.3900
    122    -15.6030     -0.6130     14.8570      0.0100     78.3900
    123    -17.6530     -0.2750     14.8450      1.5900     78.3900
    124    -17.5940      0.4830     14.2480      0.0100     78.3900
    125    -16.5140     -1.5110     13.0920      1.7700     78.3900
    126    -15.5210     -1.9540     12.8410      0.0100     78.3900
    127    -16.9180     -0.4500     12.1960      1.5900     78.3900
    128    -15.8640      0.2570     11.2730      2.1000     78.3900
    129    -15.0430     -0.7580     10.5870      1.5900     78.3900
    130    -16.5950      1.2270     10.4290      1.5900     78.3900
    131    -14.9460      1.0610     12.2530      1.5900     78.3900
    132    -15.4010      2.1410     13.0890      1.7700     78.3900
    133    -16.3520      1.8870     13.6130      0.0100     78.3900
    134    -15.5910      3.0450     12.4670      0.0100     78.3900
    135    -14.3370      2.4890     14.1470      1.7700     78.3900
    136    -14.6550      3.3560     14.7620      0.0100     78.3900
    137    -14.1780      1.3540     15.0480      1.5900     78.3900
    138    -12.8100      1.1660     15.3600      1.7700     78.3900
    139    -12.7330      1.1630     16.4710      0.0100     78.3900
    140    -12.3260     -0.1140     14.8280      1.6800     78.3900
    141    -11.2530     -2.0060     14.5190      1.7700     78.3900
    142    -12.1250     -1.8730     13.4520      1.6800     78.3900
    143    -12.7450     -0.7550     13.6870      1.7700     78.3900
    144    -13.5360     -0.3690     13.0590      0.0100     78.3900
    145     -9.5830     -2.8270     15.9870      1.6800     78.3900
    146     -9.7760     -1.7060     16.6890      1.7700     78.3900
    147     -9.1530     -1.6200     17.5880      0.0100     78.3900
    148    -10.6510     -0.7090     16.4940      1.6800     78.3900
    149    -11.3550     -0.9200     15.3700      1.7700     78.3900
    150    -10.3300     -3.0160     14.8670      1.7700     78.3900
    151    -10.1860     -4.1480     14.1500      1.6800     78.3900
    152    -10.8390     -4.3740     13.4180      0.0100     78.3900
    153     -9.5910     -4.8730     14.5000      0.0100     78.3900
    154    -12.0450      2.3450     14.7970      1.7700     78.3900
    155    -11.0280      2.0640     14.4520      0.0100     78.3900
    156    -11.9580      3.3800     15.7580      1.5900     78.3900
    157    -11.5540      4.1410     15.3100      0.0100     78.3900
    158    -12.9150      2.7550     13.6120      1.7700     78.3900
    159    -12.7560      2.0520     12.7630      0.0100     78.3900
    160    -12.7810      4.1380     13.2080      1.5900     78.3900
    161    -11.5410      4.5580     12.3270      2.1000     78.3900
    162    -11.1840      3.4200     11.4510      1.5900     78.3900
    163    -11.8270      5.8570     11.6720      1.5900     78.3900
    164    -10.3710      4.8160     13.3620      1.5900     78.3900
    165     -8.9850      4.8040     12.8890      1.7700     78.3900
    166     -8.6150      5.8500     12.7950      0.0100     78.3900
    167     -8.8690      4.3270     11.8800      0.0100     78.3900
    168     -8.0410      4.0600     13.8640      1.7700     78.3900
    169     -7.8360      4.6910     14.7550      0.0100     78.3900
    170     -8.7150      2.8730     14.3650      1.5900     78.3900
    171     -7.8150      1.7930     14.4170      1.7700     78.3900
    172     -7.8980      1.3910     15.4480      0.0100     78.3900
    173     -8.1680      0.7110     13.4570      1.6800     78.3900
    174     -8.9520      0.9870     12.3530      1.7700     78.3900
    175     -9.2940      2.0200     12.2430      0.0100     78.3900
    176     -9.2950      0.0250     11.4870      1.7700     78.3900
    177     -9.9150      0.2230     10.6150      0.0100     78.3900
    178     -7.6990     -0.5840     13.6690      1.7700     78.3900
    179     -6.9760     -0.8110     14.6520      1.5900     78.3900
    180     -8.0370     -1.5620     12.8000      1.6800     78.3900
    181     -8.8130     -1.2920     11.7390      1.7700     78.3900
    182     -9.1230     -2.2830     10.9130      1.6800     78.3900
    183     -8.8290     -3.1990     11.1840      0.0100     78.3900
    184     -9.7890     -2.1670     10.1740      0.0100     78.3900
    185     -6.4250      2.3590     14.2170      1.7700     78.3900
    186     -5.7560      1.6200     13.7550      0.0100     78.3900
    187     -5.8700      2.7770     15.4540      1.5900     78.3900
    188     -5.0370      3.2340     15.2540      0.0100     78.3900
    189     -6.7020      3.5430     13.2930      1.7700     78.3900
    190     -6.9220      3.1800     12.2620      0.0100     78.3900
    191     -5.6920      4.5890     13.3250      1.5900     78.3900
    192     -4.4600      4.4560     12.3340      2.1000     78.3900
    193     -4.9660      4.0020     11.0230      1.5900     78.3900
    194     -3.7030      5.7310     12.3420      1.5900     78.3900
    195     -3.5250      3.3480     12.9650      1.5900     78.3900
    196     -2.6620      2.5400     12.1160      1.7700     78.3900
    197     -1.5970      2.7930     12.3140      0.0100     78.3900
    198     -2.8240      2.7240     11.0250      0.0100     78.3900
    199     -2.8640      1.0340     12.3460      1.7700     78.3900
    200     -2.4950      0.7290     13.3470      0.0100     78.3900
    201     -4.2780      0.7320     12.3080      1.5900     78.3900
    202     -4.5010     -0.5130     11.6920      1.7700     78.3900
    203     -5.0900     -1.1250     12.4130      0.0100     78.3900
    204     -5.2740     -0.3510     10.4570      1.6800     78.3900
    205     -5.8190     -1.3570      9.7100      1.7700     78.3900
    206     -6.3950     -4.7290      9.1710      1.6800     78.3900
    207     -5.9590     -5.1580      9.9620      0.0100     78.3900
    208     -6.9460     -5.2950      8.5510      0.0100     78.3900
    209     -5.7230     -2.6720      9.9660      1.6800     78.3900
    210     -6.3830     -3.4120      9.0810      1.7700     78.3900
    211     -7.0660     -2.8770      8.0210      1.6800     78.3900
    212     -7.5550     -3.5030      7.4000      0.0100     78.3900
    213     -7.1770     -1.5240      7.7280      1.7700     78.3900
    214     -7.8100     -1.1230      6.7480      1.5900     78.3900
    215     -6.4770     -0.7290      8.6710      1.7700     78.3900
    216     -6.3420      0.6500      8.7570      1.6800     78.3900
    217     -5.6190      0.8330      9.8370      1.7700     78.3900
    218     -5.3030      1.8010     10.2380      0.0100     78.3900
    219     -3.1460     -1.1380     11.4640      1.7700     78.3900
    220     -3.1220     -1.7990     10.5760      0.0100     78.3900
    221     -2.7620     -1.8720     12.6110      1.5900     78.3900
    222     -1.8550     -2.1640     12.4700      0.0100     78.3900
    223     -2.2760      0.1020     11.2760      1.7700     78.3900
    224     -2.4890      0.5770     10.2890      0.0100     78.3900
    225     -0.8700     -0.1010     11.5230      1.5900     78.3900
    226      0.1050     -0.3600     10.3160      2.1000     78.3900
    227     -0.2410      0.5540      9.2030      1.5900     78.3900
    228      1.5000     -0.3030     10.8160      1.5900     78.3900
    229     -0.2560     -1.8330      9.8780      1.5900     78.3900
    230     -0.0280     -2.9420     10.7750      1.7700     78.3900
    231     -0.4990     -2.7790     11.7700      0.0100     78.3900
    232      1.0640     -3.0690     10.9500      0.0100     78.3900
    233     -0.5590     -4.2580     10.1950      1.7700     78.3900
    234     -0.3120     -5.1130     10.8610      0.0100     78.3900
    235     -2.0090     -4.2080     10.0760      1.5900     78.3900
    236     -2.3980     -4.8580      8.8690      1.7700     78.3900
    237     -3.1200     -5.6520      9.1710      0.0100     78.3900
    238     -3.0600     -3.9330      7.9070      1.6800     78.3900
    239     -2.8750     -2.5740      8.0110      1.7700     78.3900
    240     -2.2470     -2.2390      8.8350      0.0100     78.3900
    241     -3.4630     -1.7190      7.1670      1.7700     78.3900
    242     -3.3530     -0.6410      7.2600      0.0100     78.3900
    243     -3.8300     -4.4410      6.8650      1.7700     78.3900
    244     -3.9490     -5.6690      6.7440      1.5900     78.3900
    245     -4.4240     -3.5940      5.9950      1.6800     78.3900
    246     -4.2640     -2.2660      6.1270      1.7700     78.3900
    247     -4.8880     -1.4560      5.2760      1.6800     78.3900
    248     -5.4580     -1.8450      4.5490      0.0100     78.3900
    249     -4.8180     -0.4600      5.3420      0.0100     78.3900
    250     -1.1580     -5.5150      8.2800      1.7700     78.3900
    251     -1.1810     -5.5300      7.1680      0.0100     78.3900
    252     -1.0160     -6.8360      8.7790      1.5900     78.3900
    253     -0.1430     -7.1750      8.5200      0.0100     78.3900
    254     -0.0610     -4.5850      8.7830      1.7700     78.3900
    255     -0.0530     -3.6460      8.1900      0.0100     78.3900
    256      1.2500     -5.1780      8.8290      1.5900     78.3900
    257      1.5580     -5.3810      7.9260      0.0100     78.3900

 CREATION OF A NEW CAVITY WITH THE ORIGINAL SPHERE
 SIZES FOR THE COMPUTATION OF THE CAVITATION ENERGY.

     INPUT FOR CAVITY DEFINITION 
     ---------------------------
   ATOM               COORDINATES                RADIUS       EPS
      1    -11.8630     -5.5800     -2.2860      0.0100     78.3900
      2    -11.3190     -5.9690     -1.5740      1.5900     78.3900
      3    -11.2590     -7.3800     -1.8240      1.7700     78.3900
      4    -10.7910     -7.5520     -2.8200      0.0100     78.3900
      5    -12.2920     -7.7920     -1.8530      0.0100     78.3900
      6    -10.4530     -8.1410     -0.7660      1.7700     78.3900
      7    -10.4330     -9.2290     -0.9980      0.0100     78.3900
      8     -9.0720     -7.6720     -0.7560      1.5900     78.3900
      9     -8.5980     -7.6390      0.5820      1.7700     78.3900
     10     -7.6720     -8.2570      0.6170      0.0100     78.3900
     11     -8.2740     -6.2680      1.0020      1.6800     78.3900
     12     -7.4900     -5.9190      2.0670      1.7700     78.3900
     13     -5.5600     -6.8220      4.7940      1.6800     78.3900
     14     -5.6260     -7.8180      4.7870      0.0100     78.3900
     15     -5.0010     -6.3740      5.4970      0.0100     78.3900
     16     -6.9040     -6.7710      2.9250      1.6800     78.3900
     17     -6.1810     -6.1430      3.8490      1.7700     78.3900
     18     -6.0320     -4.7810      3.8850      1.6800     78.3900
     19     -5.4560     -4.3870      4.6120      0.0100     78.3900
     20     -6.6050     -3.8750      3.0000      1.7700     78.3900
     21     -6.4120     -2.6580      3.1030      1.5900     78.3900
     22     -7.4190     -4.5380      2.0410      1.7700     78.3900
     23     -8.1820     -4.0240      0.9990      1.6800     78.3900
     24     -8.6720     -5.0900      0.4070      1.7700     78.3900
     25     -9.3180     -5.0880     -0.4750      0.0100     78.3900
     26     -9.6570     -8.2770      1.4550      1.7700     78.3900
     27     -9.6870     -7.8510      2.4780      0.0100     78.3900
     28     -9.4370     -9.6730      1.5280      1.5900     78.3900
     29    -10.1690    -10.0410      2.0370      0.0100     78.3900
     30    -10.9290     -7.9530      0.6800      1.7700     78.3900
     31    -11.1910     -6.8760      0.7950      0.0100     78.3900
     32    -12.0410     -8.8300      0.9430      1.5900     78.3900
     33    -13.0960     -8.4520      2.0440      2.1000     78.3900
     34    -13.5610     -7.0670      1.8160      1.5900     78.3900
     35    -14.1290     -9.5110      2.0520      1.5900     78.3900
     36    -12.2750     -8.4970      3.3900      1.5900     78.3900
     37    -11.8660     -9.7780      3.9260      1.7700     78.3900
     38    -11.2550    -10.3550      3.1960      0.0100     78.3900
     39    -12.7590    -10.3950      4.1800      0.0100     78.3900
     40    -11.0350     -9.6200      5.2000      1.7700     78.3900
     41    -10.7560    -10.6150      5.6060      0.0100     78.3900
     42     -9.7900     -8.9220      4.9120      1.5900     78.3900
     43     -9.4630     -8.0960      6.0240      1.7700     78.3900
     44     -8.4560     -8.4360      6.3560      0.0100     78.3900
     45     -9.3980     -6.6500      5.6750      1.6800     78.3900
     46    -10.0620     -6.1740      4.5680      1.7700     78.3900
     47    -10.6320     -6.9140      4.0050      0.0100     78.3900
     48     -9.9850     -4.8860      4.2080      1.7700     78.3900
     49    -10.4770     -4.4980      3.3180      0.0100     78.3900
     50     -8.6880     -5.7660      6.4850      1.7700     78.3900
     51     -8.1240     -6.1930      7.5040      1.5900     78.3900
     52     -8.6070     -4.4630      6.1420      1.6800     78.3900
     53     -9.2220     -4.0130      5.0380      1.7700     78.3900
     54     -9.1090     -2.7250      4.7300      1.6800     78.3900
     55     -8.5920     -2.1230      5.3440      0.0100     78.3900
     56     -9.5100     -2.3340      3.8990      0.0100     78.3900
     57    -10.4680     -8.3890      7.1240      1.7700     78.3900
     58    -10.6940     -7.4960      7.7440      0.0100     78.3900
     59     -9.9990     -9.4490      7.9410      1.5900     78.3900
     60    -10.7450     -9.7490      8.4810      0.0100     78.3900
     61    -11.6890     -8.8120      6.3210      1.7700     78.3900
     62    -12.1750     -7.9310      5.8440      0.0100     78.3900
     63    -12.6150     -9.6480      7.0400      1.5900     78.3900
     64    -13.8460     -9.0180      7.7830      2.1000     78.3900
     65    -14.7500     -8.4480      6.7630      1.5900     78.3900
     66    -14.4150    -10.0520      8.6770      1.5900     78.3900
     67    -13.2490     -7.8400      8.6170      1.5900     78.3900
     68    -12.5880     -8.0160      9.8860      1.7700     78.3900
     69    -11.6560     -8.6140      9.7780      0.0100     78.3900
     70    -13.2550     -8.5460     10.6050      0.0100     78.3900
     71    -12.2160     -6.6590     10.4970      1.7700     78.3900
     72    -11.7340     -6.7820     11.4890      0.0100     78.3900
     73    -11.2690     -5.9690      9.6300      1.5900     78.3900
     74    -11.5450     -4.5780      9.6440      1.7700     78.3900
     75    -10.6010     -4.1210     10.0070      0.0100     78.3900
     76    -11.8620     -4.0610      8.2860      1.6800     78.3900
     77    -12.4120     -4.8910      7.3410      1.7700     78.3900
     78    -12.5520     -5.9220      7.6550      0.0100     78.3900
     79    -11.5550     -2.7460      7.9930      1.7700     78.3900
     80    -11.0690     -1.9840      8.8070      1.5900     78.3900
     81    -11.8480     -2.3700      6.6990      1.6800     78.3900
     82    -11.6040     -1.4200      6.4590      0.0100     78.3900
     83    -12.3700     -3.1580      5.6940      1.7700     78.3900
     84    -12.5310     -2.7050      4.5610      1.5900     78.3900
     85    -12.6690     -4.5010      6.0860      1.7700     78.3900
     86    -13.0430     -5.1940      5.3370      0.0100     78.3900
     87    -12.6480     -4.3410     10.6680      1.7700     78.3900
     88    -13.3170     -3.4910     10.4150      0.0100     78.3900
     89    -12.0410     -4.1490     11.9330      1.5900     78.3900
     90    -12.0900     -3.2110     12.2070      0.0100     78.3900
     91    -13.3840     -5.6720     10.6310      1.7700     78.3900
     92    -13.9670     -5.7510      9.6860      0.0100     78.3900
     93    -14.1650     -5.9710     11.8120      1.5900     78.3900
     94    -15.7250     -5.7860     11.7910      2.1000     78.3900
     95    -16.2450     -6.2580     10.4920      1.5900     78.3900
     96    -16.2840     -6.4380     12.9960      1.5900     78.3900
     97    -15.9620     -4.2300     11.9130      1.5900     78.3900
     98    -17.3210     -3.7140     11.9380      1.7700     78.3900
     99    -18.0910     -4.5110     12.0920      0.0100     78.3900
    100    -17.5450     -3.2340     10.9580      0.0100     78.3900
    101    -17.5260     -2.6690     13.0480      1.7700     78.3900
    102    -18.5520     -2.2420     13.0060      0.0100     78.3900
    103    -17.3960     -3.3190     14.3410      1.5900     78.3900
    104    -16.7240     -2.4520     15.2430      1.7700     78.3900
    105    -17.3940     -2.3320     16.1230      0.0100     78.3900
    106    -15.4500     -3.0290     15.6950      1.6800     78.3900
    107    -14.6930     -2.6050     16.7570      1.7700     78.3900
    108    -14.1490     -0.4420     19.4060      1.6800     78.3900
    109    -13.5050     -0.3380     20.1590      0.0100     78.3900
    110    -14.9470      0.1630     19.3580      0.0100     78.3900
    111    -14.9770     -1.5720     17.5710      1.6800     78.3900
    112    -14.0620     -1.4260     18.5310      1.7700     78.3900
    113    -12.9920     -2.2680     18.6900      1.6800     78.3900
    114    -12.3570     -2.0910     19.4440      0.0100     78.3900
    115    -12.6990     -3.3600     17.8820      1.7700     78.3900
    116    -11.7290     -4.0930     18.0900      1.5900     78.3900
    117    -13.6330     -3.4890     16.8240      1.7700     78.3900
    118    -13.6990     -4.4260     15.8050      1.6800     78.3900
    119    -14.7940     -4.1140     15.1570      1.7700     78.3900
    120    -15.1900     -4.6420     14.2890      0.0100     78.3900
    121    -16.5470     -1.1140     14.5600      1.7700     78.3900
    122    -15.6030     -0.6130     14.8570      0.0100     78.3900
    123    -17.6530     -0.2750     14.8450      1.5900     78.3900
    124    -17.5940      0.4830     14.2480      0.0100     78.3900
    125    -16.5140     -1.5110     13.0920      1.7700     78.3900
    126    -15.5210     -1.9540     12.8410      0.0100     78.3900
    127    -16.9180     -0.4500     12.1960      1.5900     78.3900
    128    -15.8640      0.2570     11.2730      2.1000     78.3900
    129    -15.0430     -0.7580     10.5870      1.5900     78.3900
    130    -16.5950      1.2270     10.4290      1.5900     78.3900
    131    -14.9460      1.0610     12.2530      1.5900     78.3900
    132    -15.4010      2.1410     13.0890      1.7700     78.3900
    133    -16.3520      1.8870     13.6130      0.0100     78.3900
    134    -15.5910      3.0450     12.4670      0.0100     78.3900
    135    -14.3370      2.4890     14.1470      1.7700     78.3900
    136    -14.6550      3.3560     14.7620      0.0100     78.3900
    137    -14.1780      1.3540     15.0480      1.5900     78.3900
    138    -12.8100      1.1660     15.3600      1.7700     78.3900
    139    -12.7330      1.1630     16.4710      0.0100     78.3900
    140    -12.3260     -0.1140     14.8280      1.6800     78.3900
    141    -11.2530     -2.0060     14.5190      1.7700     78.3900
    142    -12.1250     -1.8730     13.4520      1.6800     78.3900
    143    -12.7450     -0.7550     13.6870      1.7700     78.3900
    144    -13.5360     -0.3690     13.0590      0.0100     78.3900
    145     -9.5830     -2.8270     15.9870      1.6800     78.3900
    146     -9.7760     -1.7060     16.6890      1.7700     78.3900
    147     -9.1530     -1.6200     17.5880      0.0100     78.3900
    148    -10.6510     -0.7090     16.4940      1.6800     78.3900
    149    -11.3550     -0.9200     15.3700      1.7700     78.3900
    150    -10.3300     -3.0160     14.8670      1.7700     78.3900
    151    -10.1860     -4.1480     14.1500      1.6800     78.3900
    152    -10.8390     -4.3740     13.4180      0.0100     78.3900
    153     -9.5910     -4.8730     14.5000      0.0100     78.3900
    154    -12.0450      2.3450     14.7970      1.7700     78.3900
    155    -11.0280      2.0640     14.4520      0.0100     78.3900
    156    -11.9580      3.3800     15.7580      1.5900     78.3900
    157    -11.5540      4.1410     15.3100      0.0100     78.3900
    158    -12.9150      2.7550     13.6120      1.7700     78.3900
    159    -12.7560      2.0520     12.7630      0.0100     78.3900
    160    -12.7810      4.1380     13.2080      1.5900     78.3900
    161    -11.5410      4.5580     12.3270      2.1000     78.3900
    162    -11.1840      3.4200     11.4510      1.5900     78.3900
    163    -11.8270      5.8570     11.6720      1.5900     78.3900
    164    -10.3710      4.8160     13.3620      1.5900     78.3900
    165     -8.9850      4.8040     12.8890      1.7700     78.3900
    166     -8.6150      5.8500     12.7950      0.0100     78.3900
    167     -8.8690      4.3270     11.8800      0.0100     78.3900
    168     -8.0410      4.0600     13.8640      1.7700     78.3900
    169     -7.8360      4.6910     14.7550      0.0100     78.3900
    170     -8.7150      2.8730     14.3650      1.5900     78.3900
    171     -7.8150      1.7930     14.4170      1.7700     78.3900
    172     -7.8980      1.3910     15.4480      0.0100     78.3900
    173     -8.1680      0.7110     13.4570      1.6800     78.3900
    174     -8.9520      0.9870     12.3530      1.7700     78.3900
    175     -9.2940      2.0200     12.2430      0.0100     78.3900
    176     -9.2950      0.0250     11.4870      1.7700     78.3900
    177     -9.9150      0.2230     10.6150      0.0100     78.3900
    178     -7.6990     -0.5840     13.6690      1.7700     78.3900
    179     -6.9760     -0.8110     14.6520      1.5900     78.3900
    180     -8.0370     -1.5620     12.8000      1.6800     78.3900
    181     -8.8130     -1.2920     11.7390      1.7700     78.3900
    182     -9.1230     -2.2830     10.9130      1.6800     78.3900
    183     -8.8290     -3.1990     11.1840      0.0100     78.3900
    184     -9.7890     -2.1670     10.1740      0.0100     78.3900
    185     -6.4250      2.3590     14.2170      1.7700     78.3900
    186     -5.7560      1.6200     13.7550      0.0100     78.3900
    187     -5.8700      2.7770     15.4540      1.5900     78.3900
    188     -5.0370      3.2340     15.2540      0.0100     78.3900
    189     -6.7020      3.5430     13.2930      1.7700     78.3900
    190     -6.9220      3.1800     12.2620      0.0100     78.3900
    191     -5.6920      4.5890     13.3250      1.5900     78.3900
    192     -4.4600      4.4560     12.3340      2.1000     78.3900
    193     -4.9660      4.0020     11.0230      1.5900     78.3900
    194     -3.7030      5.7310     12.3420      1.5900     78.3900
    195     -3.5250      3.3480     12.9650      1.5900     78.3900
    196     -2.6620      2.5400     12.1160      1.7700     78.3900
    197     -1.5970      2.7930     12.3140      0.0100     78.3900
    198     -2.8240      2.7240     11.0250      0.0100     78.3900
    199     -2.8640      1.0340     12.3460      1.7700     78.3900
    200     -2.4950      0.7290     13.3470      0.0100     78.3900
    201     -4.2780      0.7320     12.3080      1.5900     78.3900
    202     -4.5010     -0.5130     11.6920      1.7700     78.3900
    203     -5.0900     -1.1250     12.4130      0.0100     78.3900
    204     -5.2740     -0.3510     10.4570      1.6800     78.3900
    205     -5.8190     -1.3570      9.7100      1.7700     78.3900
    206     -6.3950     -4.7290      9.1710      1.6800     78.3900
    207     -5.9590     -5.1580      9.9620      0.0100     78.3900
    208     -6.9460     -5.2950      8.5510      0.0100     78.3900
    209     -5.7230     -2.6720      9.9660      1.6800     78.3900
    210     -6.3830     -3.4120      9.0810      1.7700     78.3900
    211     -7.0660     -2.8770      8.0210      1.6800     78.3900
    212     -7.5550     -3.5030      7.4000      0.0100     78.3900
    213     -7.1770     -1.5240      7.7280      1.7700     78.3900
    214     -7.8100     -1.1230      6.7480      1.5900     78.3900
    215     -6.4770     -0.7290      8.6710      1.7700     78.3900
    216     -6.3420      0.6500      8.7570      1.6800     78.3900
    217     -5.6190      0.8330      9.8370      1.7700     78.3900
[...]
   205    7   6.0   0.00    0.0    0.000000    0.715015    0.718881
   206    7   7.0  12.31   24.1   -0.099497   -0.970506   -1.044618
   207    7   1.0   0.00    0.0    0.000000    0.443728    0.439828
   208    7   1.0   0.00    0.0    0.000000    0.475313    0.516757
   209    7   7.0   3.25    6.4    0.068473   -0.744189   -0.749601
   210    7   6.0   0.00    0.0    0.000069    0.964188    0.970786
   211    7   7.0   0.00    0.0    0.000004   -0.930193   -1.017219
   212    7   1.0   0.00    0.0    0.000000    0.485599    0.545301
   213    7   6.0   0.00    0.0    0.000026    0.879082    0.879803
   214    7   8.0   9.58   20.9    0.163120   -0.765241   -0.750557
   215    7   6.0   0.13    0.2    0.004221   -0.055575   -0.049075
   216    7   7.0  11.92   23.3    0.178797   -0.611617   -0.617239
   217    7   6.0   7.37   13.0    0.020021    0.249958    0.237377
   218    7   1.0   0.00    0.0    0.000000    0.315774    0.317796
   219    7   6.0   0.00    0.0    0.000434    0.126933    0.093250
   220    7   1.0   0.00    0.0    0.000000    0.195325    0.233019
   221    7   8.0  17.52   38.3    0.104793   -0.827941   -0.845408
   222    7   1.0   0.00    0.0    0.000000    0.498433    0.526199
   223    7   6.0   1.91    3.4   -0.038133    0.142360    0.099396
   224    7   1.0   0.00    0.0    0.000000    0.241815    0.241299
   225    7   8.0   4.55    9.9    0.054860   -0.795001   -0.797662
   226    7  15.0   9.08   11.4    0.128314    1.606887    1.660130
   227    7   8.0  14.74   32.2    0.331525   -0.897253   -0.895428
   228    7   8.0  18.26   39.9    0.361654   -0.891383   -0.887380
   229    7   8.0   0.98    2.1    0.015953   -0.975238   -0.789801
   230    8   6.0  13.76   24.3   -0.098929    0.207149   -0.029536
   231    8   1.0   0.00    0.0    0.000000    0.142828    0.170134
   232    8   1.0   0.00    0.0    0.000000    0.245295    0.227588
   233    8   6.0   6.73   11.9   -0.044570    0.093176    0.151580
   234    8   1.0   0.00    0.0    0.000000    0.254097    0.225105
   235    8   8.0   3.89    8.5    0.047586   -0.726911   -0.734473
   236    8   6.0   3.20    5.6   -0.038395    0.420661    0.418021
   237    8   1.0   0.00    0.0    0.000000    0.253669    0.250552
   238    8   7.0   0.00    0.0    0.000000   -0.824525   -0.833591
   239    8   6.0   2.77    4.9    0.003043    0.204647    0.184011
   240    8   1.0   0.00    0.0    0.000000    0.301105    0.327475
   241    8   6.0   9.32   16.4   -0.045343   -0.399092   -0.409447
   242    8   1.0   0.00    0.0    0.000000    0.273018    0.280592
   243    8   6.0   1.93    3.4   -0.004661    1.070208    1.081572
   244    8   8.0   9.24   20.2    0.141354   -0.800279   -0.770046
   245    8   7.0   2.48    4.9    0.025237   -0.870223   -0.865779
   246    8   6.0   1.95    3.4   -0.003393    0.720774    0.732717
   247    8   7.0  15.44   30.2   -0.093327   -0.949235   -1.003203
   248    8   1.0   0.00    0.0    0.000000    0.462237    0.498893
   249    8   1.0   0.00    0.0    0.000000    0.451334    0.450811
   250    8   6.0   5.77   10.2   -0.045852    0.119651    0.121003
   251    8   1.0   0.00    0.0    0.000000    0.224756    0.223082
   252    8   8.0  21.79   47.6    0.033904   -0.842439   -0.844077
   253    8   1.0   0.00    0.0    0.000000    0.508103    0.508219
   254    8   6.0   7.55   13.3   -0.063512    0.162611    0.146839
   255    8   1.0   0.00    0.0    0.000000    0.221565    0.224591
   256    8   8.0  22.21   48.6   -0.015229   -0.851277   -0.855086
   257    8   1.0   0.00    0.0    0.000000    0.510084    0.509364

 Done with FMO properties.
 CPU     0: STEP CPU TIME=     0.00 TOTAL CPU TIME=      12727.1 (    212.1 MIN)
 TOTAL WALL CLOCK TIME=      29482.9 SECONDS, CPU UTILIZATION IS    43.17%
 CPU     0: STEP CPU TIME=     0.01 TOTAL CPU TIME=      12727.1 (    212.1 MIN)
 TOTAL WALL CLOCK TIME=      29482.9 SECONDS, CPU UTILIZATION IS    43.17%

 Total timing statistics in pairs (CPU,wall) for each rank, sec

    Rank   total     SCF    corr     DFT    CPHF     EFP    solv     ESP    geom
 -------------------------------------------------------------------------------
       1   12727.1   3678.6   5099.4      0.0    0.0   0.0   88.5  3680.9    0.0
       1   29483.0   7795.9  13505.8      0.0    0.0   0.0  277.9  7455.7    0.0
       2   12585.1   3613.9   5055.1      0.0    0.0   0.0   89.7  3652.9    0.0
       2   29483.0   7793.6  13500.3      0.0    0.0   0.0  277.9  7455.4    0.0
       3   12528.4   3622.5   4956.0      0.0    0.0   0.0   89.7  3678.6    0.0
       3   29483.0   7794.0  13500.3      0.0    0.0   0.0  277.8  7455.2    0.0
       4   12417.1   3608.6   4835.2      0.0    0.0   0.0   89.0  3710.0    0.0
       4   29483.0   7794.5  13500.3      0.0    0.0   0.0  277.0  7455.0    0.0
       5   12672.2   3642.8   5049.6      0.0    0.0   0.0   89.7  3713.6    0.0
       5   29483.0   7794.0  13500.3      0.0    0.0   0.0  277.8  7455.3    0.0
       6   12421.2   3599.6   4903.5      0.0    0.0   0.0   88.6  3656.7    0.0
       6   29483.0   7794.5  13500.3      0.0    0.0   0.0  277.0  7455.2    0.0
       7   12590.0   3633.0   5005.9      0.0    0.0   0.0   89.2  3680.6    0.0
       7   29483.0   7794.1  13500.2      0.0    0.0   0.0  277.4  7455.2    0.0
       8   12500.4   3628.7   4931.0      0.0    0.0   0.0   88.9  3674.4    0.0
       8   29483.0   7794.6  13500.2      0.0    0.0   0.0  276.7  7455.2    0.0
       9   12376.9   3641.0   4818.0      0.0    0.0   0.0   87.5  3656.0    0.0
       9   29483.0   7795.2  13500.3      0.0    0.0   0.0  276.6  7455.1    0.0
      10   12552.6   3636.2   5012.9      0.0    0.0   0.0   87.7  3648.5    0.0
      10   29483.0   7795.1  13500.3      0.0    0.0   0.0  276.8  7455.0    0.0
      11   12465.4   3616.9   4947.7      0.0    0.0   0.0   88.1  3637.6    0.0
      11   29483.0   7794.8  13500.3      0.0    0.0   0.0  276.9  7455.0    0.0
      12   12652.7   3631.7   5086.5      0.0    0.0   0.0   88.1  3675.3    0.0
      12   29483.0   7795.3  13500.3      0.0    0.0   0.0  276.2  7454.8    0.0
      13   12615.8   3628.6   5074.7      0.0    0.0   0.0   87.3  3649.4    0.0
      13   29483.0   7795.8  13500.2      0.0    0.0   0.0  276.4  7454.9    0.0
      14   12674.6   3659.2   5057.3      0.0    0.0   0.0   88.0  3703.4    0.0
      14   29483.0   7795.6  13500.3      0.0    0.0   0.0  276.0  7454.9    0.0
      15   12558.2   3677.3   4941.6      0.0    0.0   0.0   88.0  3675.3    0.0
      15   29483.0   7795.5  13500.2      0.0    0.0   0.0  276.3  7454.8    0.0
      16   12612.4   3639.3   4952.5      0.0    0.0   0.0   87.8  3748.1    0.0
      16   29483.0   7795.9  13500.2      0.0    0.0   0.0  275.6  7454.7    0.0
averaged   12559.4   3634.9   4982.9      0.0    0.0   0.0   88.5  3677.6    0.0
averaged   29483.0   7794.9  13500.6      0.0    0.0   0.0  276.9  7455.1    0.0

  FMO  timing statistics in pairs (CPU,wall) for each rank, sec

    Rank  FMOini FMOscf1  FMOdm1 FMOsyn1 FMOscf2  FMOes2 FMOsyn2 FMOscf3 FMOsyn3
 -------------------------------------------------------------------------------
       1    1.6    4848.0    0.3    0.0    7754.5     122.6    0.0    0.0    0.0
       1    4.0   10161.4    0.4    0.0   19067.7     249.1    0.0    0.0    0.0
       2    1.2    4792.7    0.0    0.0    7671.9     119.3    0.0    0.0    0.0
       2    4.0   10161.4    0.4    0.0   19067.9     248.9    0.0    0.0    0.0
       3    1.4    4819.1    0.1    0.0    7581.2     126.6    0.0    0.0    0.0
       3    4.0   10161.4    0.4    0.0   19067.7     249.1    0.0    0.0    0.0
       4    1.2    4847.4    0.1    0.0    7447.7     120.7    0.0    0.0    0.0
       4    4.0   10161.4    0.4    0.0   19067.5     249.3    0.0    0.0    0.0
       5    1.5    4829.9    0.1    0.0    7720.1     120.6    0.0    0.0    0.0
       5    4.0   10161.4    0.4    0.0   19067.5     249.3    0.0    0.0    0.0
       6    1.2    4782.4    0.1    0.0    7517.9     119.7    0.0    0.0    0.0
       6    4.0   10161.4    0.4    0.0   19068.0     248.8    0.0    0.0    0.0
       7    1.4    4808.3    0.1    0.0    7653.4     126.9    0.0    0.0    0.0
       7    4.0   10161.4    0.4    0.0   19067.8     249.0    0.0    0.0    0.0
       8    1.1    4851.4    0.1    0.0    7523.1     124.7    0.0    0.0    0.0
       8    4.0   10161.4    0.4    0.0   19068.6     248.2    0.0    0.0    0.0
       9    1.4    4839.6    0.2    0.0    7415.9     119.7    0.0    0.0    0.0
       9    4.0   10161.4    0.4    0.0   19068.0     248.8    0.0    0.0    0.0
      10    1.1    4816.6    0.1    0.0    7621.0     113.8    0.0    0.0    0.0
      10    4.0   10161.4    0.4    0.0   19067.4     249.4    0.0    0.0    0.0
      11    1.2    4794.3    0.1    0.0    7548.8     120.9    0.0    0.0    0.0
      11    4.0   10161.4    0.4    0.0   19067.9     248.9    0.0    0.0    0.0
      12    1.1    4825.0    0.1    0.0    7708.5     118.0    0.0    0.0    0.0
      12    4.0   10161.4    0.4    0.0   19067.8     249.0    0.0    0.0    0.0
      13    1.3    4811.8    0.2    0.0    7680.3     122.2    0.0    0.0    0.0
      13    4.0   10161.4    0.4    0.0   19067.9     248.9    0.0    0.0    0.0
      14    1.1    4859.1    0.1    0.0    7700.3     114.1    0.0    0.0    0.0
      14    4.0   10161.4    0.4    0.0   19068.1     248.7    0.0    0.0    0.0
      15    1.2    4849.4    0.1    0.0    7584.1     123.4    0.0    0.0    0.0
      15    4.0   10161.4    0.4    0.0   19067.7     249.1    0.0    0.0    0.0
      16    1.1    4850.8    0.1    0.0    7627.4     132.9    0.0    0.0    0.0
      16    4.0   10161.4    0.4    0.0   19068.5     248.3    0.0    0.0    0.0
averaged    1.3    4826.6    0.1    0.0    7609.8     121.6    0.0    0.0    0.0
averaged    4.0   10161.4    0.4    0.0   19067.9     248.9    0.0    0.0    0.0
             62779910  WORDS OF DYNAMIC MEMORY USED
 EXECUTION OF GAMESS TERMINATED NORMALLY Sat Dec  7 08:22:47 2019
 DDI: 263640 bytes (0.3 MB / 0 MWords) used by master data server.

 ----------------------------------------
 CPU timing information for all processes
 ========================================
 0: 12404.847 + 322.328 = 12727.175
 1: 12301.117 + 284.125 = 12585.242
 2: 12233.777 + 294.724 = 12528.501
 3: 12130.240 + 286.896 = 12417.136
 4: 12368.68 + 304.213 = 12672.281
 5: 12138.186 + 283.97 = 12421.284
 6: 12287.835 + 302.246 = 12590.81
 7: 12222.298 + 278.178 = 12500.477
 8: 12071.62 + 305.885 = 12376.947
 9: 12264.753 + 287.907 = 12552.661
 10: 12172.534 + 292.891 = 12465.425
 11: 12362.523 + 290.266 = 12652.789
 12: 12304.435 + 311.457 = 12615.893
 13: 12383.852 + 290.859 = 12674.711
 14: 12257.309 + 301.13 = 12558.323
 15: 12339.757 + 272.656 = 12612.414
 ----------------------------------------
 ddikick.x: exited gracefully.
----- accounting info -----
Files used on the master node gollum080.lsa.umich.edu were:
-rw-r--r-- 1 hazwong frank    13692 Dec  7 00:11 /scratch/hazwong/824208/4A4U_2/usrc/4A4U_2_fmo_input.F05
-rw-r--r-- 1 hazwong frank      634 Dec  7 08:22 /scratch/hazwong/824208/4A4U_2/usrc/4A4U_2_fmo_input.F06.001
-rw-r--r-- 1 hazwong frank      634 Dec  7 08:22 /scratch/hazwong/824208/4A4U_2/usrc/4A4U_2_fmo_input.F06.002
-rw-r--r-- 1 hazwong frank      634 Dec  7 08:22 /scratch/hazwong/824208/4A4U_2/usrc/4A4U_2_fmo_input.F06.003
-rw-r--r-- 1 hazwong frank      634 Dec  7 08:22 /scratch/hazwong/824208/4A4U_2/usrc/4A4U_2_fmo_input.F06.004
-rw-r--r-- 1 hazwong frank      634 Dec  7 08:22 /scratch/hazwong/824208/4A4U_2/usrc/4A4U_2_fmo_input.F06.005
-rw-r--r-- 1 hazwong frank      634 Dec  7 08:22 /scratch/hazwong/824208/4A4U_2/usrc/4A4U_2_fmo_input.F06.006
-rw-r--r-- 1 hazwong frank      634 Dec  7 08:22 /scratch/hazwong/824208/4A4U_2/usrc/4A4U_2_fmo_input.F06.007
-rw-r--r-- 1 hazwong frank      634 Dec  7 08:22 /scratch/hazwong/824208/4A4U_2/usrc/4A4U_2_fmo_input.F06.008
-rw-r--r-- 1 hazwong frank      634 Dec  7 08:22 /scratch/hazwong/824208/4A4U_2/usrc/4A4U_2_fmo_input.F06.009
-rw-r--r-- 1 hazwong frank      634 Dec  7 08:22 /scratch/hazwong/824208/4A4U_2/usrc/4A4U_2_fmo_input.F06.010
-rw-r--r-- 1 hazwong frank      634 Dec  7 08:22 /scratch/hazwong/824208/4A4U_2/usrc/4A4U_2_fmo_input.F06.011
-rw-r--r-- 1 hazwong frank      634 Dec  7 08:22 /scratch/hazwong/824208/4A4U_2/usrc/4A4U_2_fmo_input.F06.012
-rw-r--r-- 1 hazwong frank      634 Dec  7 08:22 /scratch/hazwong/824208/4A4U_2/usrc/4A4U_2_fmo_input.F06.013
-rw-r--r-- 1 hazwong frank      634 Dec  7 08:22 /scratch/hazwong/824208/4A4U_2/usrc/4A4U_2_fmo_input.F06.014
-rw-r--r-- 1 hazwong frank      634 Dec  7 08:22 /scratch/hazwong/824208/4A4U_2/usrc/4A4U_2_fmo_input.F06.015
-rw-r--r-- 1 hazwong frank     6172 Dec  7 08:22 /scratch/hazwong/824208/4A4U_2/usrc/4A4U_2_fmo_input.F07
-rw-r--r-- 1 hazwong frank        0 Dec  7 00:11 /scratch/hazwong/824208/4A4U_2/usrc/4A4U_2_fmo_input.F07.001
-rw-r--r-- 1 hazwong frank        0 Dec  7 00:11 /scratch/hazwong/824208/4A4U_2/usrc/4A4U_2_fmo_input.F07.002
-rw-r--r-- 1 hazwong frank        0 Dec  7 00:11 /scratch/hazwong/824208/4A4U_2/usrc/4A4U_2_fmo_input.F07.003
-rw-r--r-- 1 hazwong frank        0 Dec  7 00:11 /scratch/hazwong/824208/4A4U_2/usrc/4A4U_2_fmo_input.F07.004
-rw-r--r-- 1 hazwong frank        0 Dec  7 00:11 /scratch/hazwong/824208/4A4U_2/usrc/4A4U_2_fmo_input.F07.005
-rw-r--r-- 1 hazwong frank        0 Dec  7 00:11 /scratch/hazwong/824208/4A4U_2/usrc/4A4U_2_fmo_input.F07.006
-rw-r--r-- 1 hazwong frank        0 Dec  7 00:11 /scratch/hazwong/824208/4A4U_2/usrc/4A4U_2_fmo_input.F07.007
-rw-r--r-- 1 hazwong frank        0 Dec  7 00:11 /scratch/hazwong/824208/4A4U_2/usrc/4A4U_2_fmo_input.F07.008
-rw-r--r-- 1 hazwong frank        0 Dec  7 00:11 /scratch/hazwong/824208/4A4U_2/usrc/4A4U_2_fmo_input.F07.009
-rw-r--r-- 1 hazwong frank        0 Dec  7 00:11 /scratch/hazwong/824208/4A4U_2/usrc/4A4U_2_fmo_input.F07.010
-rw-r--r-- 1 hazwong frank        0 Dec  7 00:11 /scratch/hazwong/824208/4A4U_2/usrc/4A4U_2_fmo_input.F07.011
-rw-r--r-- 1 hazwong frank        0 Dec  7 00:11 /scratch/hazwong/824208/4A4U_2/usrc/4A4U_2_fmo_input.F07.012
-rw-r--r-- 1 hazwong frank        0 Dec  7 00:11 /scratch/hazwong/824208/4A4U_2/usrc/4A4U_2_fmo_input.F07.013
-rw-r--r-- 1 hazwong frank        0 Dec  7 00:11 /scratch/hazwong/824208/4A4U_2/usrc/4A4U_2_fmo_input.F07.014
-rw-r--r-- 1 hazwong frank        0 Dec  7 00:11 /scratch/hazwong/824208/4A4U_2/usrc/4A4U_2_fmo_input.F07.015
-rw-r--r-- 1 hazwong frank    65440 Dec  7 08:22 /scratch/hazwong/824208/4A4U_2/usrc/4A4U_2_fmo_input.F10.000
-rw-r--r-- 1 hazwong frank        0 Dec  7 00:11 /scratch/hazwong/824208/4A4U_2/usrc/4A4U_2_fmo_input.F26.000
-rw-r--r-- 1 hazwong frank        0 Dec  7 00:11 /scratch/hazwong/824208/4A4U_2/usrc/4A4U_2_fmo_input.F26.001
-rw-r--r-- 1 hazwong frank        0 Dec  7 00:11 /scratch/hazwong/824208/4A4U_2/usrc/4A4U_2_fmo_input.F26.002
-rw-r--r-- 1 hazwong frank        0 Dec  7 00:11 /scratch/hazwong/824208/4A4U_2/usrc/4A4U_2_fmo_input.F26.003
-rw-r--r-- 1 hazwong frank        0 Dec  7 00:11 /scratch/hazwong/824208/4A4U_2/usrc/4A4U_2_fmo_input.F26.004
-rw-r--r-- 1 hazwong frank        0 Dec  7 00:11 /scratch/hazwong/824208/4A4U_2/usrc/4A4U_2_fmo_input.F26.005
-rw-r--r-- 1 hazwong frank        0 Dec  7 00:11 /scratch/hazwong/824208/4A4U_2/usrc/4A4U_2_fmo_input.F26.006
-rw-r--r-- 1 hazwong frank        0 Dec  7 00:11 /scratch/hazwong/824208/4A4U_2/usrc/4A4U_2_fmo_input.F26.007
-rw-r--r-- 1 hazwong frank        0 Dec  7 00:11 /scratch/hazwong/824208/4A4U_2/usrc/4A4U_2_fmo_input.F26.008
-rw-r--r-- 1 hazwong frank        0 Dec  7 00:11 /scratch/hazwong/824208/4A4U_2/usrc/4A4U_2_fmo_input.F26.009
-rw-r--r-- 1 hazwong frank        0 Dec  7 00:11 /scratch/hazwong/824208/4A4U_2/usrc/4A4U_2_fmo_input.F26.010
-rw-r--r-- 1 hazwong frank        0 Dec  7 00:11 /scratch/hazwong/824208/4A4U_2/usrc/4A4U_2_fmo_input.F26.011
-rw-r--r-- 1 hazwong frank        0 Dec  7 00:11 /scratch/hazwong/824208/4A4U_2/usrc/4A4U_2_fmo_input.F26.012
-rw-r--r-- 1 hazwong frank        0 Dec  7 00:11 /scratch/hazwong/824208/4A4U_2/usrc/4A4U_2_fmo_input.F26.013
-rw-r--r-- 1 hazwong frank        0 Dec  7 00:11 /scratch/hazwong/824208/4A4U_2/usrc/4A4U_2_fmo_input.F26.014
-rw-r--r-- 1 hazwong frank        0 Dec  7 00:11 /scratch/hazwong/824208/4A4U_2/usrc/4A4U_2_fmo_input.F26.015
-rw-r--r-- 1 hazwong frank        0 Dec  7 00:11 /scratch/hazwong/824208/4A4U_2/usrc/4A4U_2_fmo_input.F27.000
-rw-r--r-- 1 hazwong frank        0 Dec  7 00:11 /scratch/hazwong/824208/4A4U_2/usrc/4A4U_2_fmo_input.F27.001
-rw-r--r-- 1 hazwong frank        0 Dec  7 00:11 /scratch/hazwong/824208/4A4U_2/usrc/4A4U_2_fmo_input.F27.002
-rw-r--r-- 1 hazwong frank        0 Dec  7 00:11 /scratch/hazwong/824208/4A4U_2/usrc/4A4U_2_fmo_input.F27.003
-rw-r--r-- 1 hazwong frank        0 Dec  7 00:11 /scratch/hazwong/824208/4A4U_2/usrc/4A4U_2_fmo_input.F27.004
-rw-r--r-- 1 hazwong frank        0 Dec  7 00:11 /scratch/hazwong/824208/4A4U_2/usrc/4A4U_2_fmo_input.F27.005
-rw-r--r-- 1 hazwong frank        0 Dec  7 00:11 /scratch/hazwong/824208/4A4U_2/usrc/4A4U_2_fmo_input.F27.006
-rw-r--r-- 1 hazwong frank        0 Dec  7 00:11 /scratch/hazwong/824208/4A4U_2/usrc/4A4U_2_fmo_input.F27.007
-rw-r--r-- 1 hazwong frank        0 Dec  7 00:11 /scratch/hazwong/824208/4A4U_2/usrc/4A4U_2_fmo_input.F27.008
-rw-r--r-- 1 hazwong frank        0 Dec  7 00:11 /scratch/hazwong/824208/4A4U_2/usrc/4A4U_2_fmo_input.F27.009
-rw-r--r-- 1 hazwong frank        0 Dec  7 00:11 /scratch/hazwong/824208/4A4U_2/usrc/4A4U_2_fmo_input.F27.010
-rw-r--r-- 1 hazwong frank        0 Dec  7 00:11 /scratch/hazwong/824208/4A4U_2/usrc/4A4U_2_fmo_input.F27.011
-rw-r--r-- 1 hazwong frank        0 Dec  7 00:11 /scratch/hazwong/824208/4A4U_2/usrc/4A4U_2_fmo_input.F27.012
-rw-r--r-- 1 hazwong frank        0 Dec  7 00:11 /scratch/hazwong/824208/4A4U_2/usrc/4A4U_2_fmo_input.F27.013
-rw-r--r-- 1 hazwong frank        0 Dec  7 00:11 /scratch/hazwong/824208/4A4U_2/usrc/4A4U_2_fmo_input.F27.014
-rw-r--r-- 1 hazwong frank        0 Dec  7 00:11 /scratch/hazwong/824208/4A4U_2/usrc/4A4U_2_fmo_input.F27.015
-rw-r--r-- 1 hazwong frank 16400384 Dec  7 03:00 /scratch/hazwong/824208/4A4U_2/usrc/4A4U_2_fmo_input.F40.000
-rw-r--r-- 1 hazwong frank 16400384 Dec  7 03:00 /scratch/hazwong/824208/4A4U_2/usrc/4A4U_2_fmo_input.F40.001
-rw-r--r-- 1 hazwong frank 16400384 Dec  7 03:00 /scratch/hazwong/824208/4A4U_2/usrc/4A4U_2_fmo_input.F40.002
-rw-r--r-- 1 hazwong frank 16400384 Dec  7 03:00 /scratch/hazwong/824208/4A4U_2/usrc/4A4U_2_fmo_input.F40.003
-rw-r--r-- 1 hazwong frank 16400384 Dec  7 03:00 /scratch/hazwong/824208/4A4U_2/usrc/4A4U_2_fmo_input.F40.004
-rw-r--r-- 1 hazwong frank 16400384 Dec  7 03:00 /scratch/hazwong/824208/4A4U_2/usrc/4A4U_2_fmo_input.F40.005
-rw-r--r-- 1 hazwong frank 16400384 Dec  7 03:00 /scratch/hazwong/824208/4A4U_2/usrc/4A4U_2_fmo_input.F40.006
-rw-r--r-- 1 hazwong frank 16400384 Dec  7 03:00 /scratch/hazwong/824208/4A4U_2/usrc/4A4U_2_fmo_input.F40.007
-rw-r--r-- 1 hazwong frank 16400384 Dec  7 03:00 /scratch/hazwong/824208/4A4U_2/usrc/4A4U_2_fmo_input.F40.008
-rw-r--r-- 1 hazwong frank 16400384 Dec  7 03:00 /scratch/hazwong/824208/4A4U_2/usrc/4A4U_2_fmo_input.F40.009
-rw-r--r-- 1 hazwong frank 16400384 Dec  7 03:00 /scratch/hazwong/824208/4A4U_2/usrc/4A4U_2_fmo_input.F40.010
-rw-r--r-- 1 hazwong frank 16400384 Dec  7 03:00 /scratch/hazwong/824208/4A4U_2/usrc/4A4U_2_fmo_input.F40.011
-rw-r--r-- 1 hazwong frank 16400384 Dec  7 03:00 /scratch/hazwong/824208/4A4U_2/usrc/4A4U_2_fmo_input.F40.012
-rw-r--r-- 1 hazwong frank 16400384 Dec  7 03:00 /scratch/hazwong/824208/4A4U_2/usrc/4A4U_2_fmo_input.F40.013
-rw-r--r-- 1 hazwong frank 16400384 Dec  7 03:00 /scratch/hazwong/824208/4A4U_2/usrc/4A4U_2_fmo_input.F40.014
-rw-r--r-- 1 hazwong frank 16400384 Dec  7 03:00 /scratch/hazwong/824208/4A4U_2/usrc/4A4U_2_fmo_input.F40.015
Sat Dec  7 08:22:50 EST 2019
0.190u 0.077s 8:11:26.59 0.0%	0+0k 1128+120io 16pf+0w
