----- GAMESS execution script 'rungms' -----
This job is running on host gollum055.lsa.umich.edu
under operating system Linux at Sat Dec 7 00:11:24 EST 2019
Available scratch disk space (Kbyte units) at beginning of the job is
Filesystem     1K-blocks  Used Available Use% Mounted on
/dev/sda4      426933580 33260 426900320   1% /scratch
GAMESS temporary binary files will be written to /scratch/hazwong/824173/4A4U_6/usrc
GAMESS supplementary output files will be written to /scratch/hazwong/824173/4A4U_6/src
Copying input file 4A4U_6_fmo_input.inp to your run's scratch directory...
This is a GDDI run, keeping various output files on local disks
 
Assuming a single but multicore node.
 

 Distributed Data Interface kickoff program.
 Initiating 16 compute processes on 1 nodes to run the following command:
 /export/apps/CentOS7/gamess/src/build//gamess.R3.x 4A4U_6_fmo_input 

          ******************************************************
          *         GAMESS VERSION = 30 SEP 2018 (R3)         *
          *             FROM IOWA STATE UNIVERSITY             *
          * M.W.SCHMIDT, K.K.BALDRIDGE, J.A.BOATZ, S.T.ELBERT, *
          *   M.S.GORDON, J.H.JENSEN, S.KOSEKI, N.MATSUNAGA,   *
          *          K.A.NGUYEN, S.J.SU, T.L.WINDUS,           *
          *       TOGETHER WITH M.DUPUIS, J.A.MONTGOMERY       *
          *         J.COMPUT.CHEM.  14, 1347-1363(1993)        *
          **************** 64 BIT LINUX VERSION ****************

  SINCE 1993, STUDENTS AND POSTDOCS WORKING AT IOWA STATE UNIVERSITY
  AND ALSO IN THEIR VARIOUS JOBS AFTER LEAVING ISU HAVE MADE IMPORTANT
  CONTRIBUTIONS TO THE CODE:
     IVANA ADAMOVIC, CHRISTINE AIKENS, YURI ALEXEEV, POOJA ARORA,
     ANDREY ASADCHEV, ROB BELL, PRADIPTA BANDYOPADHYAY, JONATHAN BENTZ,
     BRETT BODE, KURT BRORSEN, CALEB CARLIN, GALINA CHABAN, WEI CHEN,
     CHEOL HO CHOI, PAUL DAY, ALBERT DEFUSCO, NUWAN DESILVA, TIM DUDLEY,
     DMITRI FEDOROV, ALEX FINDLATER, GRAHAM FLETCHER, MARK FREITAG,
     KURT GLAESEMANN, ANASTASIA GUNINA,
     DAN KEMP, GRANT MERRILL, NORIYUKI MINEZAWA, JONATHAN MULLIN,
     TAKESHI NAGATA, SEAN NEDD, HEATHER NETZLOFF, BOSILJKA NJEGIC, RYAN OLSON,
     MIKE PAK, BUU PHAM,
     SPENCER PRUITT, LUKE ROSKOP, JIM SHOEMAKER, LYUDMILA SLIPCHENKO,
     TONY SMITH, SAROM SOK LEANG, JIE SONG, TETSUYA TAKETSUGU, SIMON WEBB,
     PENG XU, SOOHAENG YOO, FEDERICO ZAHARIEV

  ADDITIONAL CODE HAS BEEN PROVIDED BY COLLABORATORS IN OTHER GROUPS:
     IOWA STATE UNIVERSITY:
          JOE IVANIC, AARON WEST, LAIMUTIS BYTAUTAS, KLAUS RUEDENBERG
     UNIVERSITY OF TOKYO: KIMIHIKO HIRAO, TAKAHITO NAKAJIMA,
          TAKAO TSUNEDA, MUNEAKI KAMIYA, SUSUMU YANAGISAWA,
          KIYOSHI YAGI, MAHITO CHIBA, SEIKEN TOKURA, NAOAKI KAWAKAMI
     UNIVERSITY OF AARHUS: FRANK JENSEN
     UNIVERSITY OF IOWA: VISVALDAS KAIRYS, HUI LI
     NATIONAL INST. OF STANDARDS AND TECHNOLOGY: WALT STEVENS, DAVID GARMER
     UNIVERSITY OF PISA: BENEDETTA MENNUCCI, JACOPO TOMASI
     UNIVERSITY OF MEMPHIS: HENRY KURTZ, PRAKASHAN KORAMBATH
     UNIVERSITY OF ALBERTA: TOBY ZENG, MARIUSZ KLOBUKOWSKI
     UNIVERSITY OF NEW ENGLAND: MARK SPACKMAN
     MIE UNIVERSITY: HIROAKI UMEDA
     NAT. INST. OF ADVANCED INDUSTRIAL SCIENCE AND TECHNOLOGY: KAZUO KITAURA
     MICHIGAN STATE UNIVERSITY:
          KAROL KOWALSKI, MARTA WLOCH, JEFFREY GOUR, JESSE LUTZ,
          WEI LI, JUN SHEN, J. EMILIANO DEUSTUA, PIOTR PIECUCH
     UNIVERSITY OF MINNESOTA:
          YINAN SHU
     UNIVERSITY OF SILESIA: MONIKA MUSIAL, STANISLAW KUCHARSKI
     FACULTES UNIVERSITAIRES NOTRE-DAME DE LA PAIX:
          OLIVIER QUINET, BENOIT CHAMPAGNE
     UNIVERSITY OF CALIFORNIA - SANTA BARBARA: BERNARD KIRTMAN
     INSTITUTE FOR MOLECULAR SCIENCE:
          KAZUYA ISHIMURA, MICHIO KATOUDA, AND SHIGERU NAGASE
     UNIVERSITY OF NOTRE DAME: ANNA POMOGAEVA, DAN CHIPMAN
     KYUSHU UNIVERSITY:
          HARUYUKI NAKANO,
          FENG LONG GU, JACEK KORCHOWIEC, MARCIN MAKOWSKI, AND YURIKO AOKI,
          HIROTOSHI MORI AND EISAKU MIYOSHI
     PENNSYLVANIA STATE UNIVERSITY:
          TZVETELIN IORDANOV, CHET SWALINA, JONATHAN SKONE,
          SHARON HAMMES-SCHIFFER
     WASEDA UNIVERSITY:
          MASATO KOBAYASHI, TOMOKO AKAMA, TSUGUKI TOUMA,
          TAKESHI YOSHIKAWA, YASUHIRO IKABATA, JUNJI SEINO,
          YUYA NAKAJIMA, HIROMI NAKAI
     NANJING UNIVERSITY: SHUHUA LI
     UNIVERSITY OF NEBRASKA:
          PEIFENG SU, DEJUN SI, NANDUN THELLAMUREGE, YALI WANG, HUI LI
     UNIVERSITY OF ZURICH: ROBERTO PEVERATI, KIM BALDRIDGE
     N. COPERNICUS UNIVERSITY AND JACKSON STATE UNIVERSITY:
          MARIA BARYSZ
     UNIVERSITY OF COPENHAGEN: Jimmy Kromann, CASPER STEINMANN
     TOKYO INSTITUTE OF TECHNOLOGY: HIROYA NAKATA
     NAGOYA UNIVERSITY: YOSHIO NISHIMOTO, STEPHAN IRLE
     MOSCOW STATE UNIVERSITY: VLADIMIR MIRONOV


 PARALLEL VERSION RUNNING ON       16 PROCESSORS IN        1 NODES.

 EXECUTION OF GAMESS BEGUN Sat Dec  7 00:11:24 2019

            ECHO OF THE FIRST FEW INPUT CARDS -
 INPUT CARD>!*** FMO 5.3 (Gamess) INPUT generated by Facio 22.1.1.32 ***                    
 INPUT CARD> $CONTRL RUNTYP=ENERGY NPRINT=-5 ISPHER=1 MAXIT=200 $END                        
 INPUT CARD> $SYSTEM MWORDS=63 MEMDDI=63 $END                                               
 INPUT CARD> $GDDI NGROUP=1 $END                                                            
 INPUT CARD> $SCF DIRSCF=.TRUE. NPUNCH=0 $END                                               
 INPUT CARD>!*** NumCPU : 2  MemPerNode : 512MB                                             
 INPUT CARD> $PCM SOLVNT=WATER IEF=-10 ICOMP=2 ICAV=1 IDISP=1 IFMO=-1 $END                  
 INPUT CARD> $PCMCAV RADII=SUAHF $END                                                       
 INPUT CARD> $TESCAV NTSALL=60 $END                                                         
 INPUT CARD> $FMOPRP                                                                        
 INPUT CARD>    NAODIR=200                                                                  
 INPUT CARD>    NGRFMO(1)=1, 1, 0, 0, 0,   0, 0, 0, 0, 0                                    
 INPUT CARD>    IPIEDA=1                                                                    
 INPUT CARD>    NPRINT=9                                                                    
 INPUT CARD> $END                                                                           
 INPUT CARD> $FMO                                                                           
 INPUT CARD>      SCFTYP(1)=RHF                                                             
 INPUT CARD>      MODGRD=10                                                                 
 INPUT CARD>      MODMUL=0                                                                  
 INPUT CARD>      MAXCAO=5                                                                  
 INPUT CARD>      MAXBND=10                                                                 
 INPUT CARD>      NLAYER=1                                                                  
 INPUT CARD>      MPLEVL(1)=2                                                               
 INPUT CARD>      NFRAG=8                                                                   
 INPUT CARD>      ICHARG(1)=-1, -1, -1, -1, -1, -1, -1, 0                                   
 INPUT CARD>      FRGNAM(1)=F1, F2, F3, F4, F5, F6, F7, F8                                  
 INPUT CARD>      indat(1)=0                                                                
 INPUT CARD>               1   -36   0                                                      
 INPUT CARD>               37   -67   0                                                     
 INPUT CARD>               68   -97   0                                                     
 INPUT CARD>               98   -131   0                                                    
 INPUT CARD>               132   -164   0                                                   
 INPUT CARD>               165   -195   0                                                   
 INPUT CARD>               196   -229   0                                                   
 INPUT CARD>               230   -257   0                                                   
 INPUT CARD> $END                                                                           
 INPUT CARD>                                                                                
 INPUT CARD> $FMOBND                                                                        
 INPUT CARD>   -37   36       6-31G*    MINI                                                
 INPUT CARD>   -68   67       6-31G*    MINI                                                
 INPUT CARD>   -98   97       6-31G*    MINI                                                
 INPUT CARD>   -132   131       6-31G*    MINI                                              
 INPUT CARD>   -165   164       6-31G*    MINI                                              
 INPUT CARD>   -196   195       6-31G*    MINI                                              
 INPUT CARD>   -230   229       6-31G*    MINI                                              
 INPUT CARD> $END                                                                           
 INPUT CARD> $FMOHYB                                                                        
 INPUT CARD> 6-31G*      15   5                                                             
 INPUT CARD>   1 0  -0.065034   0.288264   0.000000   0.000000   0.604412                   
 INPUT CARD>         0.290129   0.000000   0.000000   0.319045  -0.017106                   


 -------------------------------------------------------------
 GROUP DDI, PROGRAMMED BY: RYAN M. OLSON AND DMITRI G. FEDOROV
        FEDOROV ET AL., J. COMPUT. CHEM., 25 (2004) 872.
 -------------------------------------------------------------

 -------------------------------------------------------
 GDDI: INITIALIZATION COMPLETED FOR GROUP     1 OF     1
 WITH    16 PROCESSES BALTYP=DLB   global rank=        0
 -------------------------------------------------------

   63000000 WORDS OF MEMORY AVAILABLE


     RUN TITLE
     ---------
  FMO calculation                                                                

 THE POINT GROUP OF THE MOLECULE IS C1      
 THE ORDER OF THE PRINCIPAL AXIS IS     0

 ATOM   ATOMIC CHARGE
 H.1-1       1.0
 O.1-1       8.0
 C.1-1       6.0
 N.1-1       7.0
 P.1-1      15.0

     ATOMIC BASIS SET LIBRARY
     ----------------
 THE CONTRACTED PRIMITIVE FUNCTIONS HAVE BEEN UNNORMALIZED
 THE CONTRACTED BASIS FUNCTIONS ARE NOW NORMALIZED TO UNITY

  SHELL TYPE  PRIMITIVE        EXPONENT          CONTRACTION COEFFICIENT(S)

 H.1-1     

      1   S       1            18.7311370    0.033494604338
      1   S       2             2.8253944    0.234726953484
      1   S       3             0.6401217    0.813757326146

      2   S       4             0.1612778    1.000000000000

 O.1-1     

      3   S       5          5484.6716600    0.001831074430
      3   S       6           825.2349460    0.013950172200
      3   S       7           188.0469580    0.068445078098
      3   S       8            52.9645000    0.232714335992
      3   S       9            16.8975704    0.470192897984
      3   S      10             5.7996353    0.358520852987

      4   L      11            15.5396162   -0.110777549525    0.070874268231
      4   L      12             3.5999336   -0.148026262701    0.339752839147
      4   L      13             1.0137618    1.130767015354    0.727158577316

      5   L      14             0.2700058    1.000000000000    1.000000000000

      6   D      15             0.8000000    1.000000000000

 C.1-1     

      7   S      16          3047.5248800    0.001834737132
      7   S      17           457.3695180    0.014037322813
      7   S      18           103.9486850    0.068842622264
      7   S      19            29.2101553    0.232184443216
      7   S      20             9.2866630    0.467941348435
      7   S      21             3.1639270    0.362311985337

      8   L      22             7.8682723   -0.119332419775    0.068999066591
      8   L      23             1.8812885   -0.160854151696    0.316423960957
      8   L      24             0.5442493    1.143456437840    0.744308290898

      9   L      25             0.1687145    1.000000000000    1.000000000000

     10   D      26             0.8000000    1.000000000000

 N.1-1     

     11   S      27          4173.5114600    0.001834772160
     11   S      28           627.4579110    0.013994627002
     11   S      29           142.9020930    0.068586551812
     11   S      30            40.2343293    0.232240873040
     11   S      31            12.8202129    0.469069948082
     11   S      32             4.3904370    0.360455199063

     12   L      33            11.6263619   -0.114961181702    0.067579743878
     12   L      34             2.7162798   -0.169117478561    0.323907295893
     12   L      35             0.7722184    1.145851947027    0.740895139755

     13   L      36             0.2120315    1.000000000000    1.000000000000

     14   D      37             0.8000000    1.000000000000

 P.1-1     

     15   S      38         19413.3000000    0.001851598923
     15   S      39          2909.4200000    0.014206191735
     15   S      40           661.3640000    0.069999459277
     15   S      41           185.7590000    0.240078860331
     15   S      42            59.1943000    0.484761717984
     15   S      43            20.0310000    0.335199804993

     16   L      44           339.4780000   -0.002782170105    0.004564616191
     16   L      45            81.0101000   -0.036049901354    0.033693571881
     16   L      46            25.8780000   -0.116631004382    0.139754883368
     16   L      47             9.4522100    0.096832803638    0.339361716786
     16   L      48             3.6656600    0.614418023082    0.450920623685
     16   L      49             1.4674600    0.403798015170    0.238585800889

     17   L      50             2.1562300   -0.252924113863   -0.017765312733
     17   L      51             0.7489970    0.032851844678    0.274058196433
     17   L      52             0.2831450    1.081254761783    0.785421562957

     18   L      53             0.0998317    1.000000000000    1.000000000000

     19   D      54             0.5500000    1.000000000000

 TOTAL NUMBER OF BASIS SET SHELLS             =   19
 NUMBER OF CARTESIAN GAUSSIAN BASIS FUNCTIONS =   66

     $CONTRL OPTIONS
     ---------------
 SCFTYP=RHF          RUNTYP=ENERGY       EXETYP=RUN     
 MPLEVL=       0     CITYP =NONE         CCTYP =NONE         VBTYP =NONE    
 DFTTYP=NONE         TDDFT =NONE    
 MULT  =       1     ICHARG=       0     NZVAR =       0     COORD =UNIQUE  
 PP    =NONE         RELWFN=NONE         LOCAL =NONE         NUMGRD=       F
 ISPHER=       1     NOSYM =       0     MAXIT =     200     UNITS =ANGS    
 PLTORB=       F     MOLPLT=       F     AIMPAC=       F     FRIEND=        
 NPRINT=      -5     IREST =       0     GEOM  =INPUT   
 NORMF =       0     NORMP =       0     ITOL  =      24     ICUT  =      12
 INTTYP=BEST         GRDTYP=BEST         QMTTOL= 1.0E-06

     $SYSTEM OPTIONS
     ---------------
  REPLICATED MEMORY=    63000000 WORDS (ON EVERY NODE).
 DISTRIBUTED MEMDDI=          63 MILLION WORDS IN AGGREGATE,
 MEMDDI DISTRIBUTED OVER  16 PROCESSORS IS     3937500 WORDS/PROCESSOR.
 TOTAL MEMORY REQUESTED ON EACH PROCESSOR=    66937500 WORDS.
 TIMLIM=      525600.00 MINUTES, OR     365.0 DAYS.
 PARALL= T  BALTYP=  DLB     KDIAG=    0  COREFL= F
 MXSEQ2=     300 MXSEQ3=     150  mem10=         0

 ** LOOKING UP INTERNALLY STORED DATA FOR SOLVENT=WATER    **
 OPTICAL AND PHYSICAL CONSTANTS:
 EPS= 78.390; EPSINF=  1.776; RSOLV=  1.385 A; VMOL=  18.070 ML/MOL;
 TCE= .25700E-03 1/K; STEN= 71.810 DYN/CM;  DSTEN=  0.6500; CMF=  1.2770


     -----------------------------------
     INPUT FOR PCM SOLVATION CALCULATION 
     -----------------------------------
     IEF   =     -10
     ICOMP =       2     IFIELD=       0     ICAV  =       1
     IDISP =       1     IREP  =       0     IDP   =       0

     SOLVNT=WATER        EPS   = 78.3900     EPSINF=  1.7760
     VMOL  = 18.0700     TCE   =  0.00025700 STEN  = 71.8100
     DSTEN =  0.6500     CMF   =  1.2770     RSOLV =  1.3850

     NESFP =       0
     OMEGA = 40.0000     RET   =100.0000     FRO   =  0.7000

     TABS  =298.0000     IPRINT=       0

     --------------------------------
     INPUT FOR ITERATIVE C-PCM METHOD 
     --------------------------------
     IPCMIT  =         1     MXDIIS  =        50
     MXITR1  =       200     MXITR2  =       200
     THRES   = 0.100E-09     IMUL    =         3
     RCUT(1) =   20.0000     RCUT(2) =   50.0000

     IDIRCT  =         1
     IMGABI  =         0     RABI    =    4.0000
     IMGASC  =         0     RASC    =   20.0000
     THRSLS  = 0.500E-03     DENSLS  =    0.0100
     IEFPOL  =         1     REFPOL  =    0.0000

     INPUT FOR ISOTROPIC DIELECTRICS
     -------------------------------
     EPS=    78.39

          ----------------
          PROPERTIES INPUT
          ----------------

     MOMENTS            FIELD           POTENTIAL          DENSITY
 IEMOM =       1   IEFLD =       0   IEPOT =       0   IEDEN =       0
 WHERE =COMASS     WHERE =NUCLEI     WHERE =NUCLEI     WHERE =NUCLEI  
 OUTPUT=BOTH       OUTPUT=BOTH       OUTPUT=NONE       OUTPUT=BOTH    
 IEMINT=       0   IEFINT=       0                     IEDINT=       0
                                                       MORB  =       0
          EXTRAPOLATION IN EFFECT
          SOSCF IN EFFECT
 ORBITAL PRINTING OPTION: NPREO=     1 32767     2     1

     -------------------------------
     INTEGRAL TRANSFORMATION OPTIONS
     -------------------------------
     NWORD  =            0
     CUTOFF = 1.0E-10     MPTRAN =       0
     DIRTRF =       T     AOINTS =DUP     

          ----------------------
          INTEGRAL INPUT OPTIONS
          ----------------------
 NOPK  =       1 NORDER=       0 SCHWRZ=       T

 ..... DONE SETTING UP THE RUN .....
 CPU     0: STEP CPU TIME=     0.03 TOTAL CPU TIME=          0.0 (      0.0 MIN)
 TOTAL WALL CLOCK TIME=          0.1 SECONDS, CPU UTILIZATION IS    42.86%
 CPU     0: STEP CPU TIME=     0.00 TOTAL CPU TIME=          0.0 (      0.0 MIN)
 TOTAL WALL CLOCK TIME=          0.1 SECONDS, CPU UTILIZATION IS    42.86%

                    ----------------------
                    AO INTEGRAL TECHNOLOGY
                    ----------------------
     S,P,L SHELL ROTATED AXIS INTEGRALS, REPROGRAMMED BY
        KAZUYA ISHIMURA (IMS) AND JOSE SIERRA (SYNSTAR).
     S,P,D,L SHELL ROTATED AXIS INTEGRALS PROGRAMMED BY
        KAZUYA ISHIMURA (INSTITUTE FOR MOLECULAR SCIENCE).
     S,P,D,F,G SHELL TO TOTAL QUARTET ANGULAR MOMENTUM SUM 5,
        ERIC PROGRAM BY GRAHAM FLETCHER (ELORET AND NASA ADVANCED
        SUPERCOMPUTING DIVISION, AMES RESEARCH CENTER).
     S,P,D,F,G,L SHELL GENERAL RYS QUADRATURE PROGRAMMED BY
        MICHEL DUPUIS (PACIFIC NORTHWEST NATIONAL LABORATORY).
 Setting modorb=1 flag...
 Setting modorb=1 flag...

          -----------------------
          MP2 CONTROL INFORMATION
          -----------------------
          NACORE =        8  NBCORE =        8
          LMOMP2 =        F  AOINTS = DUP     
          METHOD =        2  NWORD  =               0
          MP2PRP =        F  OSPT   = NONE    
          CUTOFF = 1.00E-12  CPHFBS = BASISAO 
          CODE   = IMS     

          NUMBER OF CORE -A-  ORBITALS =     8
          NUMBER OF CORE -B-  ORBITALS =     8
          NUMBER OF OCC. -A-  ORBITALS =    18
          NUMBER OF OCC. -B-  ORBITALS =    18
          NUMBER OF MOLECULAR ORBITALS =    66
          NUMBER OF   BASIS  FUNCTIONS =    66

 CPU     0: STEP CPU TIME=     0.02 TOTAL CPU TIME=          0.0 (      0.0 MIN)
 TOTAL WALL CLOCK TIME=          0.1 SECONDS, CPU UTILIZATION IS    50.00%
 CPU     0: STEP CPU TIME=     0.00 TOTAL CPU TIME=          0.0 (      0.0 MIN)
 TOTAL WALL CLOCK TIME=          0.1 SECONDS, CPU UTILIZATION IS    50.00%

     INPUT FOR CAVITY DEFINITION 
     ---------------------------
   ATOM               COORDINATES                RADIUS       EPS
      1    -11.2440     -4.5740     -2.6540      0.0100     78.3900
      2    -10.6370     -4.8470     -1.9390      1.5900     78.3900
      3    -10.5370     -6.2780     -1.9960      1.7700     78.3900
      4    -10.2200     -6.5770     -3.0210      0.0100     78.3900
      5    -11.5400     -6.7230     -1.8070      0.0100     78.3900
      6     -9.5400     -6.8680     -0.9880      1.7700     78.3900
      7     -9.3030     -7.9190     -1.2610      0.0100     78.3900
      8     -8.2880     -6.1400     -0.9950      1.5900     78.3900
      9     -7.7090     -6.1880      0.2960      1.7700     78.3900
     10     -6.7840     -6.7970      0.1930      0.0100     78.3900
     11     -7.3380     -4.8550      0.7610      1.6800     78.3900
     12     -6.4840     -4.5690      1.7890      1.7700     78.3900
     13     -4.3840     -5.5950      4.3530      1.6800     78.3900
     14     -4.4480     -6.5920      4.3140      0.0100     78.3900
     15     -3.7990     -5.1620      5.0350      0.0100     78.3900
     16     -5.8270     -5.4640      2.5560      1.6800     78.3900
     17     -5.0740     -4.8760      3.4820      1.7700     78.3900
     18     -4.9470     -3.5120      3.5900      1.6800     78.3900
     19     -4.3480     -3.1410      4.3090      0.0100     78.3900
     20     -5.5970     -2.5710      2.7900      1.7700     78.3900
     21     -5.4660     -1.3480      2.8910      1.5900     78.3900
     22     -6.4240     -3.1920      1.8340      1.7700     78.3900
     23     -7.2340     -2.6210      0.8610      1.6800     78.3900
     24     -7.7580     -3.6490      0.2430      1.7700     78.3900
     25     -8.4500     -3.5950     -0.6030      0.0100     78.3900
     26     -8.6750     -6.8870      1.2440      1.7700     78.3900
     27     -8.7810     -6.3460      2.2090      0.0100     78.3900
     28     -8.2500     -8.2110      1.4980      1.5900     78.3900
     29     -8.9570     -8.6300      2.0120      0.0100     78.3900
     30     -9.9950     -6.8590      0.4750      1.7700     78.3900
     31    -10.4870     -5.8690      0.6330      0.0100     78.3900
     32    -10.8580     -7.9940      0.7420      1.5900     78.3900
     33    -12.3260     -7.8100      1.2580      2.1000     78.3900
     34    -13.1360     -8.9390      0.7540      1.5900     78.3900
     35    -12.8120     -6.4470      0.9520      1.5900     78.3900
     36    -12.1800     -7.9430      2.8150      1.5900     78.3900
     37    -12.3360     -9.2240      3.4660      1.7700     78.3900
     38    -12.0660    -10.0730      2.7900      0.0100     78.3900
     39    -13.4090     -9.3700      3.7420      0.0100     78.3900
     40    -11.4460     -9.3630      4.7230      1.7700     78.3900
     41    -11.3640    -10.4430      4.9810      0.0100     78.3900
     42    -10.0820     -8.8660      4.4760      1.5900     78.3900
     43     -9.5870     -8.2680      5.6840      1.7700     78.3900
     44     -8.5940     -8.7350      5.8820      0.0100     78.3900
     45     -9.4280     -6.7800      5.5890      1.6800     78.3900
     46    -10.1140     -6.1070      4.6110      1.7700     78.3900
     47    -10.7000     -6.7200      3.9340      0.0100     78.3900
     48    -10.0510     -4.7810      4.4830      1.7700     78.3900
     49    -10.6010     -4.2440      3.7130      0.0100     78.3900
     50     -8.6350     -6.0580      6.4930      1.7700     78.3900
     51     -8.0100     -6.6660      7.3720      1.5900     78.3900
     52     -8.5610     -4.7000      6.3830      1.6800     78.3900
     53     -9.2460     -4.0700      5.4100      1.7700     78.3900
     54     -9.1910     -2.7480      5.2990      1.6800     78.3900
     55     -8.6970     -2.1950      5.9740      0.0100     78.3900
     56     -9.7250     -2.2580      4.6080      0.0100     78.3900
     57    -10.5680     -8.6610      6.7800      1.7700     78.3900
     58    -10.5730     -7.9460      7.6300      0.0100     78.3900
     59    -10.2790     -9.9680      7.2480      1.5900     78.3900
     60    -11.0420    -10.2660      7.7700      0.0100     78.3900
     61    -11.8850     -8.6240      6.0090      1.7700     78.3900
     62    -12.1150     -7.5670      5.7440      0.0100     78.3900
     63    -12.9810     -9.2960      6.6850      1.5900     78.3900
     64    -14.4610     -8.8120      6.3890      2.1000     78.3900
     65    -15.2480     -9.9740      5.9390      1.5900     78.3900
     66    -14.4480     -7.6440      5.4810      1.5900     78.3900
     67    -15.0860     -8.3400      7.7410      1.5900     78.3900
     68    -15.2170     -9.0950      8.9570      1.7700     78.3900
     69    -14.7720    -10.1160      8.8590      0.0100     78.3900
     70    -16.3010     -9.2280      9.1780      0.0100     78.3900
     71    -14.5660     -8.3950     10.1710      1.7700     78.3900
     72    -14.4870     -9.1100     11.0160      0.0100     78.3900
     73    -13.2070     -7.9690      9.8040      1.5900     78.3900
     74    -12.9670     -6.6560     10.2830      1.7700     78.3900
     75    -11.9680     -6.6870     10.7750      0.0100     78.3900
     76    -12.9980     -5.6350      9.1710      1.6800     78.3900
     77    -14.0040     -5.6140      8.2290      1.7700     78.3900
     78    -14.7860     -6.3390      8.2980      0.0100     78.3900
     79    -12.0300     -4.6580      9.1370      1.7700     78.3900
     80    -11.1440     -4.5930      9.9760      1.5900     78.3900
     81    -12.1270     -3.7700      8.0860      1.6800     78.3900
     82    -11.4800     -3.0020      8.1060      0.0100     78.3900
     83    -13.1060     -3.7230      7.1170      1.7700     78.3900
     84    -13.0680     -2.8880      6.2160      1.5900     78.3900
     85    -14.1020     -4.7200      7.2500      1.7700     78.3900
     86    -14.9230     -4.7550      6.5410      0.0100     78.3900
     87    -14.0200     -6.3930     11.3310      1.7700     78.3900
     88    -14.1780     -5.3020     11.4450      0.0100     78.3900
     89    -13.6730     -6.9750     12.5760      1.5900     78.3900
     90    -13.5800     -7.9350     12.4640      0.0100     78.3900
     91    -15.2200     -7.0950     10.7110      1.7700     78.3900
     92    -15.5530     -6.5380      9.8270      0.0100     78.3900
     93    -16.3270     -7.3330     11.6060      1.5900     78.3900
     94    -17.6480     -6.4640     11.4180      2.1000     78.3900
     95    -17.5670     -5.5940     10.2240      1.5900     78.3900
     96    -18.8170     -7.3700     11.4560      1.5900     78.3900
     97    -17.7010     -5.5140     12.6650      1.5900     78.3900
     98    -16.6050     -4.6910     13.1000      1.7700     78.3900
     99    -15.6390     -4.9770     12.6720      0.0100     78.3900
    100    -16.5160     -4.9120     14.1860      0.0100     78.3900
    101    -16.8460     -3.1750     12.8650      1.7700     78.3900
    102    -17.6060     -3.0190     12.0680      0.0100     78.3900
    103    -17.3920     -2.7410     14.1450      1.5900     78.3900
    104    -16.4610     -1.9040     14.7930      1.7700     78.3900
    105    -17.0740     -1.1870     15.3860      0.0100     78.3900
    106    -15.5480     -2.6020     15.7330      1.6800     78.3900
    107    -15.2710     -2.1690     17.0090      1.7700     78.3900
    108    -15.6130      0.1790     19.5420      1.6800     78.3900
    109    -15.2860      0.3110     20.4790      0.0100     78.3900
    110    -16.1810      0.8800     19.1160      0.0100     78.3900
    111    -15.7480     -1.0490     17.5870      1.6800     78.3900
    112    -15.2860     -0.8850     18.8290      1.7700     78.3900
    113    -14.4790     -1.7970     19.4580      1.6800     78.3900
    114    -14.1950     -1.6160     20.4050      0.0100     78.3900
    115    -14.0140     -2.9820     18.9020      1.7700     78.3900
    116    -13.3100     -3.7670     19.5470      1.5900     78.3900
    117    -14.4350     -3.1240     17.5550      1.7700     78.3900
    118    -14.1410     -4.1120     16.6300      1.6800     78.3900
    119    -14.8000     -3.7540     15.5600      1.7700     78.3900
    120    -14.7450     -4.3040     14.6230      0.0100     78.3900
    121    -15.7600     -1.1620     13.7170      1.7700     78.3900
    122    -14.7620     -0.8260     14.0270      0.0100     78.3900
    123    -16.5980     -0.0790     13.3460      1.5900     78.3900
    124    -17.3620     -0.4450     12.8760      0.0100     78.3900
    125    -15.6180     -2.1850     12.5880      1.7700     78.3900
    126    -14.6900     -2.7810     12.7330      0.0100     78.3900
    127    -15.6180     -1.5870     11.2570      1.5900     78.3900
    128    -14.6440     -0.4340     10.6830      2.1000     78.3900
    129    -13.6530     -1.0770      9.7950      1.5900     78.3900
    130    -15.4620      0.6200     10.0370      1.5900     78.3900
    131    -13.8360      0.2370     11.8700      1.5900     78.3900
    132    -14.1580      1.5710     12.3610      1.7700     78.3900
    133    -15.2410      1.6690     12.5760      0.0100     78.3900
    134    -13.9200      2.3390     11.5920      0.0100     78.3900
    135    -13.4220      1.9600     13.6650      1.7700     78.3900
    136    -13.9130      2.8240     14.1630      0.0100     78.3900
    137    -13.4440      0.8550     14.6060      1.5900     78.3900
    138    -12.1830      0.6510     15.1750      1.7700     78.3900
    139    -12.3490      0.7110     16.2760      0.0100     78.3900
    140    -11.6390     -0.6740     14.8590      1.6800     78.3900
    141    -10.4840     -2.5300     15.0750      1.7700     78.3900
    142    -11.1840     -2.6470     13.8790      1.6800     78.3900
    143    -11.8530     -1.5200     13.7910      1.7700     78.3900
    144    -12.5120     -1.2580     12.9640      0.0100     78.3900
    145     -9.0950     -2.9620     16.9470      1.6800     78.3900
    146     -9.4590     -1.7570     17.3960      1.7700     78.3900
    147     -9.0210     -1.4590     18.3560      0.0100     78.3900
    148    -10.2860     -0.8660     16.8460      1.6800     78.3900
    149    -10.7670     -1.3220     15.6820      1.7700     78.3900
    150     -9.5900     -3.3870     15.7560      1.7700     78.3900
    151     -9.1760     -4.5770     15.2860      1.6800     78.3900
    152     -9.4900     -4.9390     14.4030      0.0100     78.3900
    153     -8.5490     -5.1350     15.8340      0.0100     78.3900
    154    -11.2770      1.7830     14.7500      1.7700     78.3900
    155    -10.2410      1.4390     14.5470      0.0100     78.3900
    156    -11.2470      2.7790     15.7480      1.5900     78.3900
    157    -10.8520      3.5650     15.3440      0.0100     78.3900
    158    -11.9370      2.2890     13.4710      1.7700     78.3900
    159    -11.6210      1.6470     12.6180      0.0100     78.3900
    160    -11.7450      3.7100     13.2370      1.5900     78.3900
    161    -11.0170      4.2500     11.9460      2.1000     78.3900
    162    -11.0500      3.2070     10.9030      1.5900     78.3900
    163    -11.5710      5.5750     11.5950      1.5900     78.3900
    164     -9.5190      4.4550     12.3540      1.5900     78.3900
    165     -8.9150      5.4780     13.1590      1.7700     78.3900
    166     -9.6680      5.9700     13.8140      0.0100     78.3900
    167     -8.4970      6.2630     12.4910      0.0100     78.3900
    168     -7.7480      4.9580     14.0510      1.7700     78.3900
    169     -7.4930      5.7230     14.8140      0.0100     78.3900
    170     -8.1550      3.7370     14.7660      1.5900     78.3900
    171     -7.0860      2.7770     14.7080      1.7700     78.3900
    172     -6.9600      2.3780     15.7400      0.0100     78.3900
    173     -7.3340      1.6340     13.7600      1.6800     78.3900
    174     -8.3160      1.7640     12.8280      1.7700     78.3900
    175     -8.9650      2.5870     12.9880      0.0100     78.3900
    176     -8.5850      0.8340     11.9080      1.7700     78.3900
    177     -9.3830      0.9540     11.1780      0.0100     78.3900
    178     -6.5670      0.4730     13.7730      1.7700     78.3900
    179     -5.6770      0.3480     14.6270      1.5900     78.3900
    180     -6.8500     -0.5210     12.8810      1.6800     78.3900
    181     -7.8220     -0.3500     11.9700      1.7700     78.3900
    182     -8.1040     -1.3220     11.1130      1.6800     78.3900
    183     -7.4960     -2.1130     11.1100      0.0100     78.3900
    184     -8.7850     -1.2000     10.3940      0.0100     78.3900
    185     -5.8510      3.5500     14.3270      1.7700     78.3900
    186     -5.1170      2.8760     13.8530      0.0100     78.3900
    187     -5.2680      4.1870     15.4520      1.5900     78.3900
    188     -4.6290      4.8410     15.1270      0.0100     78.3900
    189     -6.4160      4.5630     13.3380      1.7700     78.3900
    190     -6.6920      4.0680     12.3800      0.0100     78.3900
    191     -5.5680      5.7100     13.1160      1.5900     78.3900
    192     -4.1760      5.6100     12.3500      2.1000     78.3900
    193     -4.3380      6.2630     11.0330      1.5900     78.3900
    194     -3.1160      6.1490     13.2290      1.5900     78.3900
    195     -3.8810      4.0920     12.0860      1.5900     78.3900
    196     -2.8770      3.3600     12.8360      1.7700     78.3900
    197     -3.0390      3.4740     13.9330      0.0100     78.3900
    198     -1.8600      3.7540     12.6160      0.0100     78.3900
    199     -2.8920      1.8460     12.5220      1.7700     78.3900
    200     -2.6340      1.2480     13.4240      0.0100     78.3900
    201     -4.1970      1.4120     12.0760      1.5900     78.3900
    202     -4.0700      0.2430     11.3130      1.7700     78.3900
    203     -4.2680     -0.5990     12.0150      0.0100     78.3900
    204     -5.0480      0.2060     10.2270      1.6800     78.3900
    205     -5.5760     -0.8880      9.5750      1.7700     78.3900
    206     -5.9500     -4.3300      9.1550      1.6800     78.3900
    207     -6.5200     -4.9500      8.6230      0.0100     78.3900
    208     -5.3300     -4.7080      9.8420      0.0100     78.3900
    209     -5.3140     -2.1960      9.8250      1.6800     78.3900
    210     -6.0430     -3.0140      9.0580      1.7700     78.3900
    211     -6.9680     -2.5710      8.1490      1.6800     78.3900
    212     -7.4780     -3.2570      7.6230      0.0100     78.3900
    213     -7.2540     -1.2360      7.8820      1.7700     78.3900
    214     -8.1070     -0.9120      7.0530      1.5900     78.3900
    215     -6.4710     -0.3560      8.6630      1.7700     78.3900
    216     -6.4920      1.0350      8.7270      1.6800     78.3900
    217     -5.6370      1.3190      9.6750      1.7700     78.3900
    218     -5.3880      2.3260     10.0280      0.0100     78.3900
    219     -2.6590      0.1800     10.7940      1.7700     78.3900
    220     -2.6050      0.2340      9.6850      0.0100     78.3900
    221     -2.0840     -1.0230     11.2470      1.5900     78.3900
    222     -1.3490     -1.1910     10.6300      0.0100     78.3900
    223     -1.9610      1.4150     11.3970      1.7700     78.3900
    224     -2.0040      2.2610     10.6720      0.0100     78.3900
    225     -0.6180      1.1990     11.8990      1.5900     78.3900
    226      0.6100      1.2390     10.9130      2.1000     78.3900
    227      0.5700      2.5080     10.1500      1.5900     78.3900
    228      1.8390      0.9920     11.6980      1.5900     78.3900
    229      0.4230      0.0430      9.9060      1.5900     78.3900
    230      0.8190     -1.3140     10.2420      1.7700     78.3900
    231      0.5580     -1.5610     11.3010      0.0100     78.3900
    232      1.9230     -1.4270     10.1440      0.0100     78.3900
    233      0.1430     -2.3710      9.3350      1.7700     78.3900
    234     -0.0280     -3.3150      9.8960      0.0100     78.3900
    235     -1.1460     -1.8980      8.9050      1.5900     78.3900
    236     -1.4960     -2.4500      7.6780      1.7700     78.3900
    237     -2.2190     -3.2520      7.9520      0.0100     78.3900
    238     -2.1750     -1.4760      6.8000      1.6800     78.3900
    239     -1.9820     -0.1150      6.9340      1.7700     78.3900
    240     -1.3030      0.2040      7.7280      0.0100     78.3900
    241     -2.6250      0.7560      6.1300      1.7700     78.3900
    242     -2.5130      1.8320      6.2220      0.0100     78.3900
    243     -3.0100     -1.9700      5.8150      1.7700     78.3900
    244     -3.1570     -3.1960      5.6940      1.5900     78.3900
    245     -3.6410     -1.1120      5.0000      1.6800     78.3900
    246     -3.4780      0.2110      5.1280      1.7700     78.3900
    247     -4.1350      1.0070      4.2820      1.6800     78.3900
    248     -4.7160      0.5510      3.6070      0.0100     78.3900
    249     -4.0740      2.0040      4.3030      0.0100     78.3900
    250     -0.2600     -3.0770      7.0490      1.7700     78.3900
    251     -0.0230     -2.6210      6.0590      0.0100     78.3900
    252     -0.4400     -4.4750      6.8900      1.5900     78.3900
    253     -0.5190     -4.8860      7.7660      0.0100     78.3900
    254      0.8660     -2.7220      8.0410      1.7700     78.3900
    255      1.3830     -1.7960      7.7050      0.0100     78.3900
    256      1.8180     -3.7740      8.2790      1.5900     78.3900
    257      2.1570     -4.0900      7.4250      0.0100     78.3900

     ----------------------------
     INPUT FOR TESSERA DEFINITION
     ----------------------------
     NTSALL  =        60     MTHALL  =         4
     MTHAUT  =         0     AUTFRE  =    2.0000
     NTSFRZ  =        60     KEEPSM  =         0
     AREAKP  =   10.0000     BONDRY  =    1.0000
     AREATL  =    0.0100

     SPHERE     INITS       METHOD
          1        60       FIXPVA
          2        60       FIXPVA
          3        60       FIXPVA
          4        60       FIXPVA
          5        60       FIXPVA
          6        60       FIXPVA
          7        60       FIXPVA
          8        60       FIXPVA
          9        60       FIXPVA
         10        60       FIXPVA
         11        60       FIXPVA
         12        60       FIXPVA
         13        60       FIXPVA
         14        60       FIXPVA
         15        60       FIXPVA
         16        60       FIXPVA
         17        60       FIXPVA
         18        60       FIXPVA
         19        60       FIXPVA
         20        60       FIXPVA
         21        60       FIXPVA
         22        60       FIXPVA
         23        60       FIXPVA
         24        60       FIXPVA
         25        60       FIXPVA
         26        60       FIXPVA
         27        60       FIXPVA
         28        60       FIXPVA
         29        60       FIXPVA
         30        60       FIXPVA
         31        60       FIXPVA
         32        60       FIXPVA
         33        60       FIXPVA
         34        60       FIXPVA
         35        60       FIXPVA
         36        60       FIXPVA
         37        60       FIXPVA
         38        60       FIXPVA
         39        60       FIXPVA
         40        60       FIXPVA
         41        60       FIXPVA
         42        60       FIXPVA
         43        60       FIXPVA
         44        60       FIXPVA
         45        60       FIXPVA
         46        60       FIXPVA
         47        60       FIXPVA
         48        60       FIXPVA
         49        60       FIXPVA
         50        60       FIXPVA
         51        60       FIXPVA
         52        60       FIXPVA
         53        60       FIXPVA
         54        60       FIXPVA
         55        60       FIXPVA
         56        60       FIXPVA
         57        60       FIXPVA
         58        60       FIXPVA
         59        60       FIXPVA
         60        60       FIXPVA
         61        60       FIXPVA
         62        60       FIXPVA
         63        60       FIXPVA
         64        60       FIXPVA
         65        60       FIXPVA
         66        60       FIXPVA
         67        60       FIXPVA
         68        60       FIXPVA
         69        60       FIXPVA
         70        60       FIXPVA
         71        60       FIXPVA
         72        60       FIXPVA
         73        60       FIXPVA
         74        60       FIXPVA
         75        60       FIXPVA
         76        60       FIXPVA
         77        60       FIXPVA
         78        60       FIXPVA
         79        60       FIXPVA
         80        60       FIXPVA
         81        60       FIXPVA
         82        60       FIXPVA
         83        60       FIXPVA
         84        60       FIXPVA
         85        60       FIXPVA
         86        60       FIXPVA
         87        60       FIXPVA
         88        60       FIXPVA
         89        60       FIXPVA
         90        60       FIXPVA
         91        60       FIXPVA
         92        60       FIXPVA
         93        60       FIXPVA
         94        60       FIXPVA
         95        60       FIXPVA
         96        60       FIXPVA
         97        60       FIXPVA
         98        60       FIXPVA
         99        60       FIXPVA
        100        60       FIXPVA
        101        60       FIXPVA
        102        60       FIXPVA
        103        60       FIXPVA
        104        60       FIXPVA
        105        60       FIXPVA
        106        60       FIXPVA
        107        60       FIXPVA
        108        60       FIXPVA
        109        60       FIXPVA
        110        60       FIXPVA
        111        60       FIXPVA
        112        60       FIXPVA
        113        60       FIXPVA
        114        60       FIXPVA
        115        60       FIXPVA
        116        60       FIXPVA
        117        60       FIXPVA
        118        60       FIXPVA
        119        60       FIXPVA
        120        60       FIXPVA
        121        60       FIXPVA
        122        60       FIXPVA
        123        60       FIXPVA
        124        60       FIXPVA
        125        60       FIXPVA
        126        60       FIXPVA
        127        60       FIXPVA
        128        60       FIXPVA
        129        60       FIXPVA
        130        60       FIXPVA
        131        60       FIXPVA
        132        60       FIXPVA
        133        60       FIXPVA
        134        60       FIXPVA
        135        60       FIXPVA
        136        60       FIXPVA
        137        60       FIXPVA
        138        60       FIXPVA
        139        60       FIXPVA
        140        60       FIXPVA
        141        60       FIXPVA
        142        60       FIXPVA
        143        60       FIXPVA
        144        60       FIXPVA
        145        60       FIXPVA
        146        60       FIXPVA
        147        60       FIXPVA
        148        60       FIXPVA
        149        60       FIXPVA
        150        60       FIXPVA
        151        60       FIXPVA
        152        60       FIXPVA
        153        60       FIXPVA
        154        60       FIXPVA
        155        60       FIXPVA
        156        60       FIXPVA
        157        60       FIXPVA
        158        60       FIXPVA
        159        60       FIXPVA
        160        60       FIXPVA
        161        60       FIXPVA
        162        60       FIXPVA
        163        60       FIXPVA
        164        60       FIXPVA
        165        60       FIXPVA
        166        60       FIXPVA
        167        60       FIXPVA
        168        60       FIXPVA
        169        60       FIXPVA
        170        60       FIXPVA
        171        60       FIXPVA
        172        60       FIXPVA
        173        60       FIXPVA
        174        60       FIXPVA
        175        60       FIXPVA
        176        60       FIXPVA
        177        60       FIXPVA
        178        60       FIXPVA
        179        60       FIXPVA
        180        60       FIXPVA
        181        60       FIXPVA
        182        60       FIXPVA
        183        60       FIXPVA
        184        60       FIXPVA
        185        60       FIXPVA
        186        60       FIXPVA
        187        60       FIXPVA
        188        60       FIXPVA
        189        60       FIXPVA
        190        60       FIXPVA
        191        60       FIXPVA
        192        60       FIXPVA
        193        60       FIXPVA
        194        60       FIXPVA
        195        60       FIXPVA
        196        60       FIXPVA
        197        60       FIXPVA
        198        60       FIXPVA
        199        60       FIXPVA
        200        60       FIXPVA
        201        60       FIXPVA
        202        60       FIXPVA
        203        60       FIXPVA
        204        60       FIXPVA
        205        60       FIXPVA
        206        60       FIXPVA
        207        60       FIXPVA
        208        60       FIXPVA
        209        60       FIXPVA
        210        60       FIXPVA
        211        60       FIXPVA
        212        60       FIXPVA
        213        60       FIXPVA
        214        60       FIXPVA
        215        60       FIXPVA
        216        60       FIXPVA
        217        60       FIXPVA
        218        60       FIXPVA
        219        60       FIXPVA
        220        60       FIXPVA
        221        60       FIXPVA
        222        60       FIXPVA
        223        60       FIXPVA
        224        60       FIXPVA
        225        60       FIXPVA
        226        60       FIXPVA
        227        60       FIXPVA
        228        60       FIXPVA
        229        60       FIXPVA
        230        60       FIXPVA
        231        60       FIXPVA
        232        60       FIXPVA
        233        60       FIXPVA
        234        60       FIXPVA
        235        60       FIXPVA
        236        60       FIXPVA
        237        60       FIXPVA
        238        60       FIXPVA
        239        60       FIXPVA
        240        60       FIXPVA
        241        60       FIXPVA
        242        60       FIXPVA
        243        60       FIXPVA
        244        60       FIXPVA
        245        60       FIXPVA
        246        60       FIXPVA
        247        60       FIXPVA
        248        60       FIXPVA
        249        60       FIXPVA
        250        60       FIXPVA
        251        60       FIXPVA
        252        60       FIXPVA
        253        60       FIXPVA
        254        60       FIXPVA
        255        60       FIXPVA
        256        60       FIXPVA
        257        60       FIXPVA

     ------------------------------
      FIXPVA TESSELLATION FOR PCM
         PEIFENG SU AND HUI LI
     UNIVERSITY OF NEBRASKA-LINCOLN
     ------------------------------


 PCM DIMENSIONS: MXSP=   257, MXTS=     10280, MEMORY=        105630

     INPUT FOR CAVITY DEFINITION 
     ---------------------------
   ATOM               COORDINATES                RADIUS       EPS
      1    -11.2440     -4.5740     -2.6540      0.0100     78.3900
      2    -10.6370     -4.8470     -1.9390      1.5900     78.3900
      3    -10.5370     -6.2780     -1.9960      1.7700     78.3900
      4    -10.2200     -6.5770     -3.0210      0.0100     78.3900
      5    -11.5400     -6.7230     -1.8070      0.0100     78.3900
      6     -9.5400     -6.8680     -0.9880      1.7700     78.3900
      7     -9.3030     -7.9190     -1.2610      0.0100     78.3900
      8     -8.2880     -6.1400     -0.9950      1.5900     78.3900
      9     -7.7090     -6.1880      0.2960      1.7700     78.3900
     10     -6.7840     -6.7970      0.1930      0.0100     78.3900
     11     -7.3380     -4.8550      0.7610      1.6800     78.3900
     12     -6.4840     -4.5690      1.7890      1.7700     78.3900
     13     -4.3840     -5.5950      4.3530      1.6800     78.3900
     14     -4.4480     -6.5920      4.3140      0.0100     78.3900
     15     -3.7990     -5.1620      5.0350      0.0100     78.3900
     16     -5.8270     -5.4640      2.5560      1.6800     78.3900
     17     -5.0740     -4.8760      3.4820      1.7700     78.3900
     18     -4.9470     -3.5120      3.5900      1.6800     78.3900
     19     -4.3480     -3.1410      4.3090      0.0100     78.3900
     20     -5.5970     -2.5710      2.7900      1.7700     78.3900
     21     -5.4660     -1.3480      2.8910      1.5900     78.3900
     22     -6.4240     -3.1920      1.8340      1.7700     78.3900
     23     -7.2340     -2.6210      0.8610      1.6800     78.3900
     24     -7.7580     -3.6490      0.2430      1.7700     78.3900
     25     -8.4500     -3.5950     -0.6030      0.0100     78.3900
     26     -8.6750     -6.8870      1.2440      1.7700     78.3900
     27     -8.7810     -6.3460      2.2090      0.0100     78.3900
     28     -8.2500     -8.2110      1.4980      1.5900     78.3900
     29     -8.9570     -8.6300      2.0120      0.0100     78.3900
     30     -9.9950     -6.8590      0.4750      1.7700     78.3900
     31    -10.4870     -5.8690      0.6330      0.0100     78.3900
     32    -10.8580     -7.9940      0.7420      1.5900     78.3900
     33    -12.3260     -7.8100      1.2580      2.1000     78.3900
     34    -13.1360     -8.9390      0.7540      1.5900     78.3900
     35    -12.8120     -6.4470      0.9520      1.5900     78.3900
     36    -12.1800     -7.9430      2.8150      1.5900     78.3900
     37    -12.3360     -9.2240      3.4660      1.7700     78.3900
     38    -12.0660    -10.0730      2.7900      0.0100     78.3900
     39    -13.4090     -9.3700      3.7420      0.0100     78.3900
     40    -11.4460     -9.3630      4.7230      1.7700     78.3900
     41    -11.3640    -10.4430      4.9810      0.0100     78.3900
     42    -10.0820     -8.8660      4.4760      1.5900     78.3900
     43     -9.5870     -8.2680      5.6840      1.7700     78.3900
     44     -8.5940     -8.7350      5.8820      0.0100     78.3900
     45     -9.4280     -6.7800      5.5890      1.6800     78.3900
     46    -10.1140     -6.1070      4.6110      1.7700     78.3900
     47    -10.7000     -6.7200      3.9340      0.0100     78.3900
     48    -10.0510     -4.7810      4.4830      1.7700     78.3900
     49    -10.6010     -4.2440      3.7130      0.0100     78.3900
     50     -8.6350     -6.0580      6.4930      1.7700     78.3900
     51     -8.0100     -6.6660      7.3720      1.5900     78.3900
     52     -8.5610     -4.7000      6.3830      1.6800     78.3900
     53     -9.2460     -4.0700      5.4100      1.7700     78.3900
     54     -9.1910     -2.7480      5.2990      1.6800     78.3900
     55     -8.6970     -2.1950      5.9740      0.0100     78.3900
     56     -9.7250     -2.2580      4.6080      0.0100     78.3900
     57    -10.5680     -8.6610      6.7800      1.7700     78.3900
     58    -10.5730     -7.9460      7.6300      0.0100     78.3900
     59    -10.2790     -9.9680      7.2480      1.5900     78.3900
     60    -11.0420    -10.2660      7.7700      0.0100     78.3900
     61    -11.8850     -8.6240      6.0090      1.7700     78.3900
     62    -12.1150     -7.5670      5.7440      0.0100     78.3900
     63    -12.9810     -9.2960      6.6850      1.5900     78.3900
     64    -14.4610     -8.8120      6.3890      2.1000     78.3900
     65    -15.2480     -9.9740      5.9390      1.5900     78.3900
     66    -14.4480     -7.6440      5.4810      1.5900     78.3900
     67    -15.0860     -8.3400      7.7410      1.5900     78.3900
     68    -15.2170     -9.0950      8.9570      1.7700     78.3900
     69    -14.7720    -10.1160      8.8590      0.0100     78.3900
     70    -16.3010     -9.2280      9.1780      0.0100     78.3900
     71    -14.5660     -8.3950     10.1710      1.7700     78.3900
     72    -14.4870     -9.1100     11.0160      0.0100     78.3900
     73    -13.2070     -7.9690      9.8040      1.5900     78.3900
     74    -12.9670     -6.6560     10.2830      1.7700     78.3900
     75    -11.9680     -6.6870     10.7750      0.0100     78.3900
     76    -12.9980     -5.6350      9.1710      1.6800     78.3900
     77    -14.0040     -5.6140      8.2290      1.7700     78.3900
     78    -14.7860     -6.3390      8.2980      0.0100     78.3900
     79    -12.0300     -4.6580      9.1370      1.7700     78.3900
     80    -11.1440     -4.5930      9.9760      1.5900     78.3900
     81    -12.1270     -3.7700      8.0860      1.6800     78.3900
     82    -11.4800     -3.0020      8.1060      0.0100     78.3900
     83    -13.1060     -3.7230      7.1170      1.7700     78.3900
     84    -13.0680     -2.8880      6.2160      1.5900     78.3900
     85    -14.1020     -4.7200      7.2500      1.7700     78.3900
     86    -14.9230     -4.7550      6.5410      0.0100     78.3900
     87    -14.0200     -6.3930     11.3310      1.7700     78.3900
     88    -14.1780     -5.3020     11.4450      0.0100     78.3900
     89    -13.6730     -6.9750     12.5760      1.5900     78.3900
     90    -13.5800     -7.9350     12.4640      0.0100     78.3900
     91    -15.2200     -7.0950     10.7110      1.7700     78.3900
     92    -15.5530     -6.5380      9.8270      0.0100     78.3900
     93    -16.3270     -7.3330     11.6060      1.5900     78.3900
     94    -17.6480     -6.4640     11.4180      2.1000     78.3900
     95    -17.5670     -5.5940     10.2240      1.5900     78.3900
     96    -18.8170     -7.3700     11.4560      1.5900     78.3900
     97    -17.7010     -5.5140     12.6650      1.5900     78.3900
     98    -16.6050     -4.6910     13.1000      1.7700     78.3900
     99    -15.6390     -4.9770     12.6720      0.0100     78.3900
    100    -16.5160     -4.9120     14.1860      0.0100     78.3900
    101    -16.8460     -3.1750     12.8650      1.7700     78.3900
    102    -17.6060     -3.0190     12.0680      0.0100     78.3900
    103    -17.3920     -2.7410     14.1450      1.5900     78.3900
    104    -16.4610     -1.9040     14.7930      1.7700     78.3900
    105    -17.0740     -1.1870     15.3860      0.0100     78.3900
    106    -15.5480     -2.6020     15.7330      1.6800     78.3900
    107    -15.2710     -2.1690     17.0090      1.7700     78.3900
    108    -15.6130      0.1790     19.5420      1.6800     78.3900
    109    -15.2860      0.3110     20.4790      0.0100     78.3900
    110    -16.1810      0.8800     19.1160      0.0100     78.3900
    111    -15.7480     -1.0490     17.5870      1.6800     78.3900
    112    -15.2860     -0.8850     18.8290      1.7700     78.3900
    113    -14.4790     -1.7970     19.4580      1.6800     78.3900
    114    -14.1950     -1.6160     20.4050      0.0100     78.3900
    115    -14.0140     -2.9820     18.9020      1.7700     78.3900
    116    -13.3100     -3.7670     19.5470      1.5900     78.3900
    117    -14.4350     -3.1240     17.5550      1.7700     78.3900
    118    -14.1410     -4.1120     16.6300      1.6800     78.3900
    119    -14.8000     -3.7540     15.5600      1.7700     78.3900
    120    -14.7450     -4.3040     14.6230      0.0100     78.3900
    121    -15.7600     -1.1620     13.7170      1.7700     78.3900
    122    -14.7620     -0.8260     14.0270      0.0100     78.3900
    123    -16.5980     -0.0790     13.3460      1.5900     78.3900
    124    -17.3620     -0.4450     12.8760      0.0100     78.3900
    125    -15.6180     -2.1850     12.5880      1.7700     78.3900
    126    -14.6900     -2.7810     12.7330      0.0100     78.3900
    127    -15.6180     -1.5870     11.2570      1.5900     78.3900
    128    -14.6440     -0.4340     10.6830      2.1000     78.3900
    129    -13.6530     -1.0770      9.7950      1.5900     78.3900
    130    -15.4620      0.6200     10.0370      1.5900     78.3900
    131    -13.8360      0.2370     11.8700      1.5900     78.3900
    132    -14.1580      1.5710     12.3610      1.7700     78.3900
    133    -15.2410      1.6690     12.5760      0.0100     78.3900
    134    -13.9200      2.3390     11.5920      0.0100     78.3900
    135    -13.4220      1.9600     13.6650      1.7700     78.3900
    136    -13.9130      2.8240     14.1630      0.0100     78.3900
    137    -13.4440      0.8550     14.6060      1.5900     78.3900
    138    -12.1830      0.6510     15.1750      1.7700     78.3900
    139    -12.3490      0.7110     16.2760      0.0100     78.3900
    140    -11.6390     -0.6740     14.8590      1.6800     78.3900
    141    -10.4840     -2.5300     15.0750      1.7700     78.3900
    142    -11.1840     -2.6470     13.8790      1.6800     78.3900
    143    -11.8530     -1.5200     13.7910      1.7700     78.3900
    144    -12.5120     -1.2580     12.9640      0.0100     78.3900
    145     -9.0950     -2.9620     16.9470      1.6800     78.3900
    146     -9.4590     -1.7570     17.3960      1.7700     78.3900
    147     -9.0210     -1.4590     18.3560      0.0100     78.3900
    148    -10.2860     -0.8660     16.8460      1.6800     78.3900
    149    -10.7670     -1.3220     15.6820      1.7700     78.3900
    150     -9.5900     -3.3870     15.7560      1.7700     78.3900
    151     -9.1760     -4.5770     15.2860      1.6800     78.3900
    152     -9.4900     -4.9390     14.4030      0.0100     78.3900
    153     -8.5490     -5.1350     15.8340      0.0100     78.3900
    154    -11.2770      1.7830     14.7500      1.7700     78.3900
    155    -10.2410      1.4390     14.5470      0.0100     78.3900
    156    -11.2470      2.7790     15.7480      1.5900     78.3900
    157    -10.8520      3.5650     15.3440      0.0100     78.3900
    158    -11.9370      2.2890     13.4710      1.7700     78.3900
    159    -11.6210      1.6470     12.6180      0.0100     78.3900
    160    -11.7450      3.7100     13.2370      1.5900     78.3900
    161    -11.0170      4.2500     11.9460      2.1000     78.3900
    162    -11.0500      3.2070     10.9030      1.5900     78.3900
    163    -11.5710      5.5750     11.5950      1.5900     78.3900
    164     -9.5190      4.4550     12.3540      1.5900     78.3900
    165     -8.9150      5.4780     13.1590      1.7700     78.3900
    166     -9.6680      5.9700     13.8140      0.0100     78.3900
    167     -8.4970      6.2630     12.4910      0.0100     78.3900
    168     -7.7480      4.9580     14.0510      1.7700     78.3900
    169     -7.4930      5.7230     14.8140      0.0100     78.3900
    170     -8.1550      3.7370     14.7660      1.5900     78.3900
    171     -7.0860      2.7770     14.7080      1.7700     78.3900
    172     -6.9600      2.3780     15.7400      0.0100     78.3900
    173     -7.3340      1.6340     13.7600      1.6800     78.3900
    174     -8.3160      1.7640     12.8280      1.7700     78.3900
    175     -8.9650      2.5870     12.9880      0.0100     78.3900
    176     -8.5850      0.8340     11.9080      1.7700     78.3900
    177     -9.3830      0.9540     11.1780      0.0100     78.3900
    178     -6.5670      0.4730     13.7730      1.7700     78.3900
    179     -5.6770      0.3480     14.6270      1.5900     78.3900
    180     -6.8500     -0.5210     12.8810      1.6800     78.3900
    181     -7.8220     -0.3500     11.9700      1.7700     78.3900
    182     -8.1040     -1.3220     11.1130      1.6800     78.3900
    183     -7.4960     -2.1130     11.1100      0.0100     78.3900
    184     -8.7850     -1.2000     10.3940      0.0100     78.3900
    185     -5.8510      3.5500     14.3270      1.7700     78.3900
    186     -5.1170      2.8760     13.8530      0.0100     78.3900
    187     -5.2680      4.1870     15.4520      1.5900     78.3900
    188     -4.6290      4.8410     15.1270      0.0100     78.3900
    189     -6.4160      4.5630     13.3380      1.7700     78.3900
    190     -6.6920      4.0680     12.3800      0.0100     78.3900
    191     -5.5680      5.7100     13.1160      1.5900     78.3900
    192     -4.1760      5.6100     12.3500      2.1000     78.3900
    193     -4.3380      6.2630     11.0330      1.5900     78.3900
    194     -3.1160      6.1490     13.2290      1.5900     78.3900
    195     -3.8810      4.0920     12.0860      1.5900     78.3900
    196     -2.8770      3.3600     12.8360      1.7700     78.3900
    197     -3.0390      3.4740     13.9330      0.0100     78.3900
    198     -1.8600      3.7540     12.6160      0.0100     78.3900
    199     -2.8920      1.8460     12.5220      1.7700     78.3900
    200     -2.6340      1.2480     13.4240      0.0100     78.3900
    201     -4.1970      1.4120     12.0760      1.5900     78.3900
    202     -4.0700      0.2430     11.3130      1.7700     78.3900
    203     -4.2680     -0.5990     12.0150      0.0100     78.3900
    204     -5.0480      0.2060     10.2270      1.6800     78.3900
    205     -5.5760     -0.8880      9.5750      1.7700     78.3900
    206     -5.9500     -4.3300      9.1550      1.6800     78.3900
    207     -6.5200     -4.9500      8.6230      0.0100     78.3900
    208     -5.3300     -4.7080      9.8420      0.0100     78.3900
    209     -5.3140     -2.1960      9.8250      1.6800     78.3900
    210     -6.0430     -3.0140      9.0580      1.7700     78.3900
    211     -6.9680     -2.5710      8.1490      1.6800     78.3900
    212     -7.4780     -3.2570      7.6230      0.0100     78.3900
    213     -7.2540     -1.2360      7.8820      1.7700     78.3900
    214     -8.1070     -0.9120      7.0530      1.5900     78.3900
    215     -6.4710     -0.3560      8.6630      1.7700     78.3900
    216     -6.4920      1.0350      8.7270      1.6800     78.3900
    217     -5.6370      1.3190      9.6750      1.7700     78.3900
    218     -5.3880      2.3260     10.0280      0.0100     78.3900
    219     -2.6590      0.1800     10.7940      1.7700     78.3900
    220     -2.6050      0.2340      9.6850      0.0100     78.3900
    221     -2.0840     -1.0230     11.2470      1.5900     78.3900
    222     -1.3490     -1.1910     10.6300      0.0100     78.3900
    223     -1.9610      1.4150     11.3970      1.7700     78.3900
    224     -2.0040      2.2610     10.6720      0.0100     78.3900
    225     -0.6180      1.1990     11.8990      1.5900     78.3900
    226      0.6100      1.2390     10.9130      2.1000     78.3900
    227      0.5700      2.5080     10.1500      1.5900     78.3900
    228      1.8390      0.9920     11.6980      1.5900     78.3900
    229      0.4230      0.0430      9.9060      1.5900     78.3900
    230      0.8190     -1.3140     10.2420      1.7700     78.3900
    231      0.5580     -1.5610     11.3010      0.0100     78.3900
    232      1.9230     -1.4270     10.1440      0.0100     78.3900
    233      0.1430     -2.3710      9.3350      1.7700     78.3900
    234     -0.0280     -3.3150      9.8960      0.0100     78.3900
    235     -1.1460     -1.8980      8.9050      1.5900     78.3900
    236     -1.4960     -2.4500      7.6780      1.7700     78.3900
    237     -2.2190     -3.2520      7.9520      0.0100     78.3900
    238     -2.1750     -1.4760      6.8000      1.6800     78.3900
    239     -1.9820     -0.1150      6.9340      1.7700     78.3900
    240     -1.3030      0.2040      7.7280      0.0100     78.3900
    241     -2.6250      0.7560      6.1300      1.7700     78.3900
    242     -2.5130      1.8320      6.2220      0.0100     78.3900
    243     -3.0100     -1.9700      5.8150      1.7700     78.3900
    244     -3.1570     -3.1960      5.6940      1.5900     78.3900
    245     -3.6410     -1.1120      5.0000      1.6800     78.3900
    246     -3.4780      0.2110      5.1280      1.7700     78.3900
    247     -4.1350      1.0070      4.2820      1.6800     78.3900
    248     -4.7160      0.5510      3.6070      0.0100     78.3900
    249     -4.0740      2.0040      4.3030      0.0100     78.3900
    250     -0.2600     -3.0770      7.0490      1.7700     78.3900
    251     -0.0230     -2.6210      6.0590      0.0100     78.3900
    252     -0.4400     -4.4750      6.8900      1.5900     78.3900
    253     -0.5190     -4.8860      7.7660      0.0100     78.3900
    254      0.8660     -2.7220      8.0410      1.7700     78.3900
    255      1.3830     -1.7960      7.7050      0.0100     78.3900
    256      1.8180     -3.7740      8.2790      1.5900     78.3900
    257      2.1570     -4.0900      7.4250      0.0100     78.3900

 CREATION OF A NEW CAVITY WITH THE ORIGINAL SPHERE
 SIZES FOR THE COMPUTATION OF THE CAVITATION ENERGY.

     INPUT FOR CAVITY DEFINITION 
     ---------------------------
   ATOM               COORDINATES                RADIUS       EPS
      1    -11.2440     -4.5740     -2.6540      0.0100     78.3900
      2    -10.6370     -4.8470     -1.9390      1.5900     78.3900
      3    -10.5370     -6.2780     -1.9960      1.7700     78.3900
      4    -10.2200     -6.5770     -3.0210      0.0100     78.3900
      5    -11.5400     -6.7230     -1.8070      0.0100     78.3900
      6     -9.5400     -6.8680     -0.9880      1.7700     78.3900
      7     -9.3030     -7.9190     -1.2610      0.0100     78.3900
      8     -8.2880     -6.1400     -0.9950      1.5900     78.3900
      9     -7.7090     -6.1880      0.2960      1.7700     78.3900
     10     -6.7840     -6.7970      0.1930      0.0100     78.3900
     11     -7.3380     -4.8550      0.7610      1.6800     78.3900
     12     -6.4840     -4.5690      1.7890      1.7700     78.3900
     13     -4.3840     -5.5950      4.3530      1.6800     78.3900
     14     -4.4480     -6.5920      4.3140      0.0100     78.3900
     15     -3.7990     -5.1620      5.0350      0.0100     78.3900
     16     -5.8270     -5.4640      2.5560      1.6800     78.3900
     17     -5.0740     -4.8760      3.4820      1.7700     78.3900
     18     -4.9470     -3.5120      3.5900      1.6800     78.3900
     19     -4.3480     -3.1410      4.3090      0.0100     78.3900
     20     -5.5970     -2.5710      2.7900      1.7700     78.3900
     21     -5.4660     -1.3480      2.8910      1.5900     78.3900
     22     -6.4240     -3.1920      1.8340      1.7700     78.3900
     23     -7.2340     -2.6210      0.8610      1.6800     78.3900
     24     -7.7580     -3.6490      0.2430      1.7700     78.3900
     25     -8.4500     -3.5950     -0.6030      0.0100     78.3900
     26     -8.6750     -6.8870      1.2440      1.7700     78.3900
     27     -8.7810     -6.3460      2.2090      0.0100     78.3900
     28     -8.2500     -8.2110      1.4980      1.5900     78.3900
     29     -8.9570     -8.6300      2.0120      0.0100     78.3900
     30     -9.9950     -6.8590      0.4750      1.7700     78.3900
     31    -10.4870     -5.8690      0.6330      0.0100     78.3900
     32    -10.8580     -7.9940      0.7420      1.5900     78.3900
     33    -12.3260     -7.8100      1.2580      2.1000     78.3900
     34    -13.1360     -8.9390      0.7540      1.5900     78.3900
     35    -12.8120     -6.4470      0.9520      1.5900     78.3900
     36    -12.1800     -7.9430      2.8150      1.5900     78.3900
     37    -12.3360     -9.2240      3.4660      1.7700     78.3900
     38    -12.0660    -10.0730      2.7900      0.0100     78.3900
     39    -13.4090     -9.3700      3.7420      0.0100     78.3900
     40    -11.4460     -9.3630      4.7230      1.7700     78.3900
     41    -11.3640    -10.4430      4.9810      0.0100     78.3900
     42    -10.0820     -8.8660      4.4760      1.5900     78.3900
     43     -9.5870     -8.2680      5.6840      1.7700     78.3900
     44     -8.5940     -8.7350      5.8820      0.0100     78.3900
     45     -9.4280     -6.7800      5.5890      1.6800     78.3900
     46    -10.1140     -6.1070      4.6110      1.7700     78.3900
     47    -10.7000     -6.7200      3.9340      0.0100     78.3900
     48    -10.0510     -4.7810      4.4830      1.7700     78.3900
     49    -10.6010     -4.2440      3.7130      0.0100     78.3900
     50     -8.6350     -6.0580      6.4930      1.7700     78.3900
     51     -8.0100     -6.6660      7.3720      1.5900     78.3900
     52     -8.5610     -4.7000      6.3830      1.6800     78.3900
     53     -9.2460     -4.0700      5.4100      1.7700     78.3900
     54     -9.1910     -2.7480      5.2990      1.6800     78.3900
     55     -8.6970     -2.1950      5.9740      0.0100     78.3900
     56     -9.7250     -2.2580      4.6080      0.0100     78.3900
     57    -10.5680     -8.6610      6.7800      1.7700     78.3900
     58    -10.5730     -7.9460      7.6300      0.0100     78.3900
     59    -10.2790     -9.9680      7.2480      1.5900     78.3900
     60    -11.0420    -10.2660      7.7700      0.0100     78.3900
     61    -11.8850     -8.6240      6.0090      1.7700     78.3900
     62    -12.1150     -7.5670      5.7440      0.0100     78.3900
     63    -12.9810     -9.2960      6.6850      1.5900     78.3900
     64    -14.4610     -8.8120      6.3890      2.1000     78.3900
     65    -15.2480     -9.9740      5.9390      1.5900     78.3900
     66    -14.4480     -7.6440      5.4810      1.5900     78.3900
     67    -15.0860     -8.3400      7.7410      1.5900     78.3900
     68    -15.2170     -9.0950      8.9570      1.7700     78.3900
     69    -14.7720    -10.1160      8.8590      0.0100     78.3900
     70    -16.3010     -9.2280      9.1780      0.0100     78.3900
     71    -14.5660     -8.3950     10.1710      1.7700     78.3900
     72    -14.4870     -9.1100     11.0160      0.0100     78.3900
     73    -13.2070     -7.9690      9.8040      1.5900     78.3900
     74    -12.9670     -6.6560     10.2830      1.7700     78.3900
     75    -11.9680     -6.6870     10.7750      0.0100     78.3900
     76    -12.9980     -5.6350      9.1710      1.6800     78.3900
     77    -14.0040     -5.6140      8.2290      1.7700     78.3900
     78    -14.7860     -6.3390      8.2980      0.0100     78.3900
     79    -12.0300     -4.6580      9.1370      1.7700     78.3900
     80    -11.1440     -4.5930      9.9760      1.5900     78.3900
     81    -12.1270     -3.7700      8.0860      1.6800     78.3900
     82    -11.4800     -3.0020      8.1060      0.0100     78.3900
     83    -13.1060     -3.7230      7.1170      1.7700     78.3900
     84    -13.0680     -2.8880      6.2160      1.5900     78.3900
     85    -14.1020     -4.7200      7.2500      1.7700     78.3900
     86    -14.9230     -4.7550      6.5410      0.0100     78.3900
     87    -14.0200     -6.3930     11.3310      1.7700     78.3900
     88    -14.1780     -5.3020     11.4450      0.0100     78.3900
     89    -13.6730     -6.9750     12.5760      1.5900     78.3900
     90    -13.5800     -7.9350     12.4640      0.0100     78.3900
     91    -15.2200     -7.0950     10.7110      1.7700     78.3900
     92    -15.5530     -6.5380      9.8270      0.0100     78.3900
     93    -16.3270     -7.3330     11.6060      1.5900     78.3900
     94    -17.6480     -6.4640     11.4180      2.1000     78.3900
     95    -17.5670     -5.5940     10.2240      1.5900     78.3900
     96    -18.8170     -7.3700     11.4560      1.5900     78.3900
     97    -17.7010     -5.5140     12.6650      1.5900     78.3900
     98    -16.6050     -4.6910     13.1000      1.7700     78.3900
     99    -15.6390     -4.9770     12.6720      0.0100     78.3900
    100    -16.5160     -4.9120     14.1860      0.0100     78.3900
    101    -16.8460     -3.1750     12.8650      1.7700     78.3900
    102    -17.6060     -3.0190     12.0680      0.0100     78.3900
    103    -17.3920     -2.7410     14.1450      1.5900     78.3900
    104    -16.4610     -1.9040     14.7930      1.7700     78.3900
    105    -17.0740     -1.1870     15.3860      0.0100     78.3900
    106    -15.5480     -2.6020     15.7330      1.6800     78.3900
    107    -15.2710     -2.1690     17.0090      1.7700     78.3900
    108    -15.6130      0.1790     19.5420      1.6800     78.3900
    109    -15.2860      0.3110     20.4790      0.0100     78.3900
    110    -16.1810      0.8800     19.1160      0.0100     78.3900
    111    -15.7480     -1.0490     17.5870      1.6800     78.3900
    112    -15.2860     -0.8850     18.8290      1.7700     78.3900
    113    -14.4790     -1.7970     19.4580      1.6800     78.3900
    114    -14.1950     -1.6160     20.4050      0.0100     78.3900
    115    -14.0140     -2.9820     18.9020      1.7700     78.3900
    116    -13.3100     -3.7670     19.5470      1.5900     78.3900
    117    -14.4350     -3.1240     17.5550      1.7700     78.3900
    118    -14.1410     -4.1120     16.6300      1.6800     78.3900
    119    -14.8000     -3.7540     15.5600      1.7700     78.3900
    120    -14.7450     -4.3040     14.6230      0.0100     78.3900
    121    -15.7600     -1.1620     13.7170      1.7700     78.3900
    122    -14.7620     -0.8260     14.0270      0.0100     78.3900
    123    -16.5980     -0.0790     13.3460      1.5900     78.3900
    124    -17.3620     -0.4450     12.8760      0.0100     78.3900
    125    -15.6180     -2.1850     12.5880      1.7700     78.3900
    126    -14.6900     -2.7810     12.7330      0.0100     78.3900
    127    -15.6180     -1.5870     11.2570      1.5900     78.3900
    128    -14.6440     -0.4340     10.6830      2.1000     78.3900
    129    -13.6530     -1.0770      9.7950      1.5900     78.3900
    130    -15.4620      0.6200     10.0370      1.5900     78.3900
    131    -13.8360      0.2370     11.8700      1.5900     78.3900
    132    -14.1580      1.5710     12.3610      1.7700     78.3900
    133    -15.2410      1.6690     12.5760      0.0100     78.3900
    134    -13.9200      2.3390     11.5920      0.0100     78.3900
    135    -13.4220      1.9600     13.6650      1.7700     78.3900
    136    -13.9130      2.8240     14.1630      0.0100     78.3900
    137    -13.4440      0.8550     14.6060      1.5900     78.3900
    138    -12.1830      0.6510     15.1750      1.7700     78.3900
    139    -12.3490      0.7110     16.2760      0.0100     78.3900
    140    -11.6390     -0.6740     14.8590      1.6800     78.3900
    141    -10.4840     -2.5300     15.0750      1.7700     78.3900
    142    -11.1840     -2.6470     13.8790      1.6800     78.3900
    143    -11.8530     -1.5200     13.7910      1.7700     78.3900
    144    -12.5120     -1.2580     12.9640      0.0100     78.3900
    145     -9.0950     -2.9620     16.9470      1.6800     78.3900
    146     -9.4590     -1.7570     17.3960      1.7700     78.3900
    147     -9.0210     -1.4590     18.3560      0.0100     78.3900
    148    -10.2860     -0.8660     16.8460      1.6800     78.3900
    149    -10.7670     -1.3220     15.6820      1.7700     78.3900
    150     -9.5900     -3.3870     15.7560      1.7700     78.3900
    151     -9.1760     -4.5770     15.2860      1.6800     78.3900
    152     -9.4900     -4.9390     14.4030      0.0100     78.3900
    153     -8.5490     -5.1350     15.8340      0.0100     78.3900
    154    -11.2770      1.7830     14.7500      1.7700     78.3900
    155    -10.2410      1.4390     14.5470      0.0100     78.3900
    156    -11.2470      2.7790     15.7480      1.5900     78.3900
    157    -10.8520      3.5650     15.3440      0.0100     78.3900
    158    -11.9370      2.2890     13.4710      1.7700     78.3900
    159    -11.6210      1.6470     12.6180      0.0100     78.3900
    160    -11.7450      3.7100     13.2370      1.5900     78.3900
    161    -11.0170      4.2500     11.9460      2.1000     78.3900
    162    -11.0500      3.2070     10.9030      1.5900     78.3900
    163    -11.5710      5.5750     11.5950      1.5900     78.3900
    164     -9.5190      4.4550     12.3540      1.5900     78.3900
    165     -8.9150      5.4780     13.1590      1.7700     78.3900
    166     -9.6680      5.9700     13.8140      0.0100     78.3900
    167     -8.4970      6.2630     12.4910      0.0100     78.3900
    168     -7.7480      4.9580     14.0510      1.7700     78.3900
    169     -7.4930      5.7230     14.8140      0.0100     78.3900
    170     -8.1550      3.7370     14.7660      1.5900     78.3900
    171     -7.0860      2.7770     14.7080      1.7700     78.3900
    172     -6.9600      2.3780     15.7400      0.0100     78.3900
    173     -7.3340      1.6340     13.7600      1.6800     78.3900
    174     -8.3160      1.7640     12.8280      1.7700     78.3900
    175     -8.9650      2.5870     12.9880      0.0100     78.3900
    176     -8.5850      0.8340     11.9080      1.7700     78.3900
    177     -9.3830      0.9540     11.1780      0.0100     78.3900
    178     -6.5670      0.4730     13.7730      1.7700     78.3900
    179     -5.6770      0.3480     14.6270      1.5900     78.3900
    180     -6.8500     -0.5210     12.8810      1.6800     78.3900
    181     -7.8220     -0.3500     11.9700      1.7700     78.3900
    182     -8.1040     -1.3220     11.1130      1.6800     78.3900
    183     -7.4960     -2.1130     11.1100      0.0100     78.3900
    184     -8.7850     -1.2000     10.3940      0.0100     78.3900
    185     -5.8510      3.5500     14.3270      1.7700     78.3900
    186     -5.1170      2.8760     13.8530      0.0100     78.3900
    187     -5.2680      4.1870     15.4520      1.5900     78.3900
    188     -4.6290      4.8410     15.1270      0.0100     78.3900
    189     -6.4160      4.5630     13.3380      1.7700     78.3900
    190     -6.6920      4.0680     12.3800      0.0100     78.3900
    191     -5.5680      5.7100     13.1160      1.5900     78.3900
    192     -4.1760      5.6100     12.3500      2.1000     78.3900
    193     -4.3380      6.2630     11.0330      1.5900     78.3900
    194     -3.1160      6.1490     13.2290      1.5900     78.3900
    195     -3.8810      4.0920     12.0860      1.5900     78.3900
    196     -2.8770      3.3600     12.8360      1.7700     78.3900
    197     -3.0390      3.4740     13.9330      0.0100     78.3900
    198     -1.8600      3.7540     12.6160      0.0100     78.3900
    199     -2.8920      1.8460     12.5220      1.7700     78.3900
    200     -2.6340      1.2480     13.4240      0.0100     78.3900
    201     -4.1970      1.4120     12.0760      1.5900     78.3900
    202     -4.0700      0.2430     11.3130      1.7700     78.3900
    203     -4.2680     -0.5990     12.0150      0.0100     78.3900
    204     -5.0480      0.2060     10.2270      1.6800     78.3900
    205     -5.5760     -0.8880      9.5750      1.7700     78.3900
    206     -5.9500     -4.3300      9.1550      1.6800     78.3900
    207     -6.5200     -4.9500      8.6230      0.0100     78.3900
    208     -5.3300     -4.7080      9.8420      0.0100     78.3900
    209     -5.3140     -2.1960      9.8250      1.6800     78.3900
    210     -6.0430     -3.0140      9.0580      1.7700     78.3900
    211     -6.9680     -2.5710      8.1490      1.6800     78.3900
    212     -7.4780     -3.2570      7.6230      0.0100     78.3900
    213     -7.2540     -1.2360      7.8820      1.7700     78.3900
    214     -8.1070     -0.9120      7.0530      1.5900     78.3900
    215     -6.4710     -0.3560      8.6630      1.7700     78.3900
    216     -6.4920      1.0350      8.7270      1.6800     78.3900
    217     -5.6370      1.3190      9.6750      1.7700     78.3900
[...]
   205    7   6.0   0.00    0.0    0.000000    0.703038    0.704651
   206    7   7.0  19.05   37.3   -0.135421   -0.989189   -1.003254
   207    7   1.0   0.00    0.0    0.000000    0.460453    0.453473
   208    7   1.0   0.00    0.0    0.000000    0.460320    0.458772
   209    7   7.0   5.18   10.2    0.073959   -0.728738   -0.733624
   210    7   6.0   1.88    3.3   -0.015444    0.966605    0.971503
   211    7   7.0   1.01    2.0   -0.002755   -0.946776   -1.002476
   212    7   1.0   0.00    0.0    0.000000    0.474000    0.510068
   213    7   6.0   2.03    3.6   -0.016097    0.857953    0.864834
   214    7   8.0  13.39   29.3    0.184852   -0.760398   -0.742200
   215    7   6.0   0.00    0.0    0.000046   -0.041771   -0.026106
   216    7   7.0  11.05   21.6    0.171602   -0.601070   -0.604654
   217    7   6.0   7.40   13.1   -0.019428    0.288620    0.284661
   218    7   1.0   0.00    0.0    0.000000    0.279807    0.276683
   219    7   6.0   0.99    1.7   -0.012285    0.100192    0.065522
   220    7   1.0   0.00    0.0    0.000000    0.195775    0.209300
   221    7   8.0  12.26   26.8    0.139380   -0.820613   -0.856116
   222    7   1.0   0.00    0.0    0.000000    0.509976    0.588149
   223    7   6.0   3.77    6.7   -0.043313    0.167605    0.143199
   224    7   1.0   0.00    0.0    0.000000    0.224359    0.230487
   225    7   8.0   4.95   10.8    0.075420   -0.779363   -0.784011
   226    7  15.0   7.08    8.9    0.098638    1.605116    1.639633
   227    7   8.0  17.17   37.5    0.377931   -0.902908   -0.898268
   228    7   8.0  17.42   38.1    0.358859   -0.903532   -0.898041
   229    7   8.0   1.45    3.2    0.024029   -0.974406   -0.779124
   230    8   6.0  13.18   23.2   -0.093812    0.143916   -0.101325
   231    8   1.0   0.00    0.0    0.000000    0.235093    0.218472
   232    8   1.0   0.00    0.0    0.000000    0.253406    0.236156
   233    8   6.0   6.71   11.8   -0.062275    0.073713    0.143734
   234    8   1.0   0.00    0.0    0.000000    0.247115    0.229794
   235    8   8.0   0.76    1.7    0.007686   -0.751197   -0.763437
   236    8   6.0   3.73    6.6   -0.038662    0.452535    0.456459
   237    8   1.0   0.00    0.0    0.000000    0.250938    0.245693
   238    8   7.0   0.00    0.0    0.000000   -0.815324   -0.832832
   239    8   6.0   4.37    7.7   -0.022525    0.172633    0.171603
   240    8   1.0   0.00    0.0    0.000000    0.304865    0.307844
   241    8   6.0  14.37   25.4   -0.068002   -0.385552   -0.392850
   242    8   1.0   0.00    0.0    0.000000    0.277471    0.282136
   243    8   6.0   2.42    4.3   -0.000454    0.993692    1.045482
   244    8   8.0   6.44   14.1    0.089752   -0.798529   -0.780922
   245    8   7.0   2.89    5.7    0.054213   -0.736605   -0.755810
   246    8   6.0   1.96    3.5   -0.000648    0.676309    0.688203
   247    8   7.0  24.69   48.3   -0.124463   -0.961478   -0.981758
   248    8   1.0   0.00    0.0    0.000000    0.454785    0.468944
   249    8   1.0   0.00    0.0    0.000000    0.454087    0.454674
   250    8   6.0   7.59   13.4   -0.069190    0.098609    0.093954
   251    8   1.0   0.00    0.0    0.000000    0.244053    0.244451
   252    8   8.0  19.12   41.8    0.014219   -0.825766   -0.826699
   253    8   1.0   0.00    0.0    0.000000    0.500412    0.499792
   254    8   6.0   6.57   11.6   -0.056564    0.162508    0.145365
   255    8   1.0   0.00    0.0    0.000000    0.208786    0.218065
   256    8   8.0  20.00   43.7    0.015883   -0.841147   -0.843562
   257    8   1.0   0.00    0.0    0.000000    0.504897    0.505842

 Done with FMO properties.
 CPU     0: STEP CPU TIME=     0.00 TOTAL CPU TIME=      11438.4 (    190.6 MIN)
 TOTAL WALL CLOCK TIME=      25422.7 SECONDS, CPU UTILIZATION IS    44.99%
 CPU     0: STEP CPU TIME=     0.01 TOTAL CPU TIME=      11438.4 (    190.6 MIN)
 TOTAL WALL CLOCK TIME=      25422.7 SECONDS, CPU UTILIZATION IS    44.99%

 Total timing statistics in pairs (CPU,wall) for each rank, sec

    Rank   total     SCF    corr     DFT    CPHF     EFP    solv     ESP    geom
 -------------------------------------------------------------------------------
       1   11438.4   3410.0   4322.5      0.0    0.0   0.0   97.1  3428.7    0.0
       1   25422.8   7346.9  10450.9      0.0    0.0   0.0  308.0  6873.3    0.0
       2   11450.2   3346.1   4459.3      0.0    0.0   0.0   97.6  3372.6    0.0
       2   25422.8   7345.5  10451.8      0.0    0.0   0.0  308.4  6872.9    0.0
       3   11380.3   3413.5   4301.4      0.0    0.0   0.0   97.9  3394.4    0.0
       3   25422.8   7346.1  10451.8      0.0    0.0   0.0  308.2  6872.7    0.0
       4   11270.6   3384.3   4206.3      0.0    0.0   0.0   97.4  3404.5    0.0
       4   25422.8   7346.7  10451.7      0.0    0.0   0.0  307.6  6872.4    0.0
       5   11910.5   3413.6   4707.9      0.0    0.0   0.0   97.8  3504.5    0.0
       5   25422.8   7345.8  10451.7      0.0    0.0   0.0  308.2  6873.0    0.0
       6   11714.4   3433.1   4604.9      0.0    0.0   0.0   97.9  3384.9    0.0
       6   25422.8   7346.4  10451.7      0.0    0.0   0.0  307.6  6873.0    0.0
       7   11718.1   3475.2   4526.8      0.0    0.0   0.0   97.5  3436.6    0.0
       7   25422.8   7346.3  10451.7      0.0    0.0   0.0  307.7  6872.9    0.0
       8   11581.7   3451.1   4433.8      0.0    0.0   0.0   97.6  3417.3    0.0
       8   25422.8   7346.8  10451.7      0.0    0.0   0.0  307.1  6872.9    0.0
       9   11520.9   3439.5   4496.4      0.0    0.0   0.0   96.1  3314.1    0.0
       9   25422.8   7346.6  10451.7      0.0    0.0   0.0  307.4  6872.9    0.0
      10   11664.4   3413.9   4585.7      0.0    0.0   0.0   97.1  3385.0    0.0
      10   25422.8   7346.8  10451.7      0.0    0.0   0.0  307.3  6872.8    0.0
      11   11501.0   3395.2   4514.1      0.0    0.0   0.0   96.5  3313.4    0.0
      11   25422.8   7346.8  10451.7      0.0    0.0   0.0  307.2  6872.7    0.0
      12   11712.4   3447.3   4594.4      0.0    0.0   0.0   96.1  3394.6    0.0
      12   25422.8   7347.3  10451.7      0.0    0.0   0.0  306.4  6872.6    0.0
      13   11555.6   3417.3   4546.8      0.0    0.0   0.0   95.7  3326.9    0.0
      13   25422.8   7347.6  10451.7      0.0    0.0   0.0  306.8  6872.7    0.0
      14   11860.4   3464.1   4716.5      0.0    0.0   0.0   96.4  3403.6    0.0
      14   25422.8   7347.5  10451.7      0.0    0.0   0.0  306.4  6872.7    0.0
      15   11731.9   3474.8   4605.9      0.0    0.0   0.0   96.0  3378.7    0.0
      15   25422.8   7347.3  10451.7      0.0    0.0   0.0  306.5  6872.6    0.0
      16   12081.5   3469.5   4845.9      0.0    0.0   0.0   95.8  3490.7    0.0
      16   25422.8   7347.3  10451.7      0.0    0.0   0.0  306.0  6872.6    0.0
averaged   11630.8   3428.0   4529.3      0.0    0.0   0.0   96.9  3396.9    0.0
averaged   25422.8   7346.7  10451.7      0.0    0.0   0.0  307.3  6872.8    0.0

  FMO  timing statistics in pairs (CPU,wall) for each rank, sec

    Rank  FMOini FMOscf1  FMOdm1 FMOsyn1 FMOscf2  FMOes2 FMOsyn2 FMOscf3 FMOsyn3
 -------------------------------------------------------------------------------
       1    1.7    4729.4    0.2    0.0    6591.0     116.1    0.0    0.0    0.0
       1    4.1    9944.1    0.5    0.1   15227.2     246.6    0.0    0.0    0.0
       2    1.2    4711.9    0.1    0.0    6621.4     115.7    0.0    0.0    0.0
       2    4.1    9944.1    0.5    0.1   15228.3     245.5    0.0    0.0    0.0
       3    1.4    4674.4    0.1    0.0    6591.1     113.2    0.0    0.0    0.0
       3    4.1    9944.1    0.5    0.1   15228.0     245.8    0.0    0.0    0.0
       4    1.2    4706.9    0.1    0.0    6443.0     119.4    0.0    0.0    0.0
       4    4.1    9944.1    0.5    0.1   15228.0     245.7    0.0    0.0    0.0
       5    1.5    4807.8    0.2    0.0    6975.0     126.0    0.0    0.0    0.0
       5    4.1    9944.1    0.5    0.1   15228.0     245.7    0.0    0.0    0.0
       6    1.3    4727.6    0.1    0.0    6850.5     134.9    0.0    0.0    0.0
       6    4.1    9944.1    0.5    0.1   15228.1     245.6    0.0    0.0    0.0
       7    1.4    4788.7    0.1    0.0    6805.3     122.5    0.0    0.0    0.0
       7    4.1    9944.1    0.5    0.1   15228.0     245.7    0.0    0.0    0.0
       8    1.2    4736.0    0.1    0.0    6720.7     123.8    0.0    0.0    0.0
       8    4.1    9944.1    0.5    0.1   15227.6     246.1    0.0    0.0    0.0
       9    1.5    4593.7    0.2    0.0    6810.2     115.3    0.0    0.0    0.0
       9    4.1    9944.1    0.5    0.1   15227.4     246.4    0.0    0.0    0.0
      10    1.1    4603.6    0.1    0.0    6934.9     124.7    0.0    0.0    0.0
      10    4.1    9944.1    0.5    0.1   15227.8     246.0    0.0    0.0    0.0
      11    1.2    4589.3    0.1    0.0    6787.2     123.2    0.0    0.0    0.0
      11    4.1    9944.1    0.5    0.1   15228.3     245.4    0.0    0.0    0.0
      12    1.1    4662.7    0.0    0.0    6925.8     122.8    0.0    0.0    0.0
      12    4.1    9944.1    0.5    0.1   15227.7     246.0    0.0    0.0    0.0
      13    1.3    4563.5    0.1    0.0    6879.5     111.1    0.0    0.0    0.0
      13    4.1    9944.1    0.5    0.1   15228.3     245.5    0.0    0.0    0.0
      14    1.1    4697.3    0.1    0.0    7039.9     121.9    0.0    0.0    0.0
      14    4.1    9944.1    0.5    0.1   15227.6     246.2    0.0    0.0    0.0
      15    1.2    4783.8    0.1    0.0    6827.3     119.5    0.0    0.0    0.0
      15    4.1    9944.1    0.5    0.1   15228.2     245.6    0.0    0.0    0.0
      16    1.1    4772.9    0.1    0.0    7184.6     122.8    0.0    0.0    0.0
      16    4.1    9944.1    0.5    0.1   15228.0     245.8    0.0    0.0    0.0
averaged    1.3    4696.8    0.1    0.0    6811.7     120.8    0.0    0.0    0.0
averaged    4.1    9944.1    0.5    0.1   15227.9     245.9    0.0    0.0    0.0
             62783901  WORDS OF DYNAMIC MEMORY USED
 EXECUTION OF GAMESS TERMINATED NORMALLY Sat Dec  7 07:15:07 2019
 DDI: 263640 bytes (0.3 MB / 0 MWords) used by master data server.

 ----------------------------------------
 CPU timing information for all processes
 ========================================
 0: 11164.714 + 273.759 = 11438.473
 1: 11189.255 + 261.42 = 11450.297
 2: 11128.589 + 251.751 = 11380.341
 3: 11018.723 + 251.896 = 11270.620
 4: 11630.293 + 280.210 = 11910.503
 5: 11458.336 + 256.135 = 11714.472
 6: 11449.104 + 269.48 = 11718.153
 7: 11329.507 + 252.259 = 11581.767
 8: 11246.729 + 274.266 = 11520.995
 9: 11412.797 + 251.659 = 11664.457
 10: 11223.329 + 277.756 = 11501.86
 11: 11452.777 + 259.714 = 11712.492
 12: 11284.886 + 270.794 = 11555.681
 13: 11583.523 + 276.888 = 11860.412
 14: 11461.83 + 270.856 = 11731.940
 15: 11814.314 + 267.202 = 12081.517
 ----------------------------------------
 ddikick.x: exited gracefully.
----- accounting info -----
Files used on the master node gollum055.lsa.umich.edu were:
-rw-r--r-- 1 hazwong frank    13658 Dec  7 00:11 /scratch/hazwong/824173/4A4U_6/usrc/4A4U_6_fmo_input.F05
-rw-r--r-- 1 hazwong frank      634 Dec  7 07:15 /scratch/hazwong/824173/4A4U_6/usrc/4A4U_6_fmo_input.F06.001
-rw-r--r-- 1 hazwong frank      634 Dec  7 07:15 /scratch/hazwong/824173/4A4U_6/usrc/4A4U_6_fmo_input.F06.002
-rw-r--r-- 1 hazwong frank      634 Dec  7 07:15 /scratch/hazwong/824173/4A4U_6/usrc/4A4U_6_fmo_input.F06.003
-rw-r--r-- 1 hazwong frank      634 Dec  7 07:15 /scratch/hazwong/824173/4A4U_6/usrc/4A4U_6_fmo_input.F06.004
-rw-r--r-- 1 hazwong frank      634 Dec  7 07:15 /scratch/hazwong/824173/4A4U_6/usrc/4A4U_6_fmo_input.F06.005
-rw-r--r-- 1 hazwong frank      634 Dec  7 07:15 /scratch/hazwong/824173/4A4U_6/usrc/4A4U_6_fmo_input.F06.006
-rw-r--r-- 1 hazwong frank      634 Dec  7 07:15 /scratch/hazwong/824173/4A4U_6/usrc/4A4U_6_fmo_input.F06.007
-rw-r--r-- 1 hazwong frank      634 Dec  7 07:15 /scratch/hazwong/824173/4A4U_6/usrc/4A4U_6_fmo_input.F06.008
-rw-r--r-- 1 hazwong frank      634 Dec  7 07:15 /scratch/hazwong/824173/4A4U_6/usrc/4A4U_6_fmo_input.F06.009
-rw-r--r-- 1 hazwong frank      634 Dec  7 07:15 /scratch/hazwong/824173/4A4U_6/usrc/4A4U_6_fmo_input.F06.010
-rw-r--r-- 1 hazwong frank      634 Dec  7 07:15 /scratch/hazwong/824173/4A4U_6/usrc/4A4U_6_fmo_input.F06.011
-rw-r--r-- 1 hazwong frank      634 Dec  7 07:15 /scratch/hazwong/824173/4A4U_6/usrc/4A4U_6_fmo_input.F06.012
-rw-r--r-- 1 hazwong frank      634 Dec  7 07:15 /scratch/hazwong/824173/4A4U_6/usrc/4A4U_6_fmo_input.F06.013
-rw-r--r-- 1 hazwong frank      634 Dec  7 07:15 /scratch/hazwong/824173/4A4U_6/usrc/4A4U_6_fmo_input.F06.014
-rw-r--r-- 1 hazwong frank      634 Dec  7 07:15 /scratch/hazwong/824173/4A4U_6/usrc/4A4U_6_fmo_input.F06.015
-rw-r--r-- 1 hazwong frank     6172 Dec  7 07:15 /scratch/hazwong/824173/4A4U_6/usrc/4A4U_6_fmo_input.F07
-rw-r--r-- 1 hazwong frank        0 Dec  7 00:11 /scratch/hazwong/824173/4A4U_6/usrc/4A4U_6_fmo_input.F07.001
-rw-r--r-- 1 hazwong frank        0 Dec  7 00:11 /scratch/hazwong/824173/4A4U_6/usrc/4A4U_6_fmo_input.F07.002
-rw-r--r-- 1 hazwong frank        0 Dec  7 00:11 /scratch/hazwong/824173/4A4U_6/usrc/4A4U_6_fmo_input.F07.003
-rw-r--r-- 1 hazwong frank        0 Dec  7 00:11 /scratch/hazwong/824173/4A4U_6/usrc/4A4U_6_fmo_input.F07.004
-rw-r--r-- 1 hazwong frank        0 Dec  7 00:11 /scratch/hazwong/824173/4A4U_6/usrc/4A4U_6_fmo_input.F07.005
-rw-r--r-- 1 hazwong frank        0 Dec  7 00:11 /scratch/hazwong/824173/4A4U_6/usrc/4A4U_6_fmo_input.F07.006
-rw-r--r-- 1 hazwong frank        0 Dec  7 00:11 /scratch/hazwong/824173/4A4U_6/usrc/4A4U_6_fmo_input.F07.007
-rw-r--r-- 1 hazwong frank        0 Dec  7 00:11 /scratch/hazwong/824173/4A4U_6/usrc/4A4U_6_fmo_input.F07.008
-rw-r--r-- 1 hazwong frank        0 Dec  7 00:11 /scratch/hazwong/824173/4A4U_6/usrc/4A4U_6_fmo_input.F07.009
-rw-r--r-- 1 hazwong frank        0 Dec  7 00:11 /scratch/hazwong/824173/4A4U_6/usrc/4A4U_6_fmo_input.F07.010
-rw-r--r-- 1 hazwong frank        0 Dec  7 00:11 /scratch/hazwong/824173/4A4U_6/usrc/4A4U_6_fmo_input.F07.011
-rw-r--r-- 1 hazwong frank        0 Dec  7 00:11 /scratch/hazwong/824173/4A4U_6/usrc/4A4U_6_fmo_input.F07.012
-rw-r--r-- 1 hazwong frank        0 Dec  7 00:11 /scratch/hazwong/824173/4A4U_6/usrc/4A4U_6_fmo_input.F07.013
-rw-r--r-- 1 hazwong frank        0 Dec  7 00:11 /scratch/hazwong/824173/4A4U_6/usrc/4A4U_6_fmo_input.F07.014
-rw-r--r-- 1 hazwong frank        0 Dec  7 00:11 /scratch/hazwong/824173/4A4U_6/usrc/4A4U_6_fmo_input.F07.015
-rw-r--r-- 1 hazwong frank    65440 Dec  7 07:15 /scratch/hazwong/824173/4A4U_6/usrc/4A4U_6_fmo_input.F10.000
-rw-r--r-- 1 hazwong frank        0 Dec  7 00:11 /scratch/hazwong/824173/4A4U_6/usrc/4A4U_6_fmo_input.F26.000
-rw-r--r-- 1 hazwong frank        0 Dec  7 00:11 /scratch/hazwong/824173/4A4U_6/usrc/4A4U_6_fmo_input.F26.001
-rw-r--r-- 1 hazwong frank        0 Dec  7 00:11 /scratch/hazwong/824173/4A4U_6/usrc/4A4U_6_fmo_input.F26.002
-rw-r--r-- 1 hazwong frank        0 Dec  7 00:11 /scratch/hazwong/824173/4A4U_6/usrc/4A4U_6_fmo_input.F26.003
-rw-r--r-- 1 hazwong frank        0 Dec  7 00:11 /scratch/hazwong/824173/4A4U_6/usrc/4A4U_6_fmo_input.F26.004
-rw-r--r-- 1 hazwong frank        0 Dec  7 00:11 /scratch/hazwong/824173/4A4U_6/usrc/4A4U_6_fmo_input.F26.005
-rw-r--r-- 1 hazwong frank        0 Dec  7 00:11 /scratch/hazwong/824173/4A4U_6/usrc/4A4U_6_fmo_input.F26.006
-rw-r--r-- 1 hazwong frank        0 Dec  7 00:11 /scratch/hazwong/824173/4A4U_6/usrc/4A4U_6_fmo_input.F26.007
-rw-r--r-- 1 hazwong frank        0 Dec  7 00:11 /scratch/hazwong/824173/4A4U_6/usrc/4A4U_6_fmo_input.F26.008
-rw-r--r-- 1 hazwong frank        0 Dec  7 00:11 /scratch/hazwong/824173/4A4U_6/usrc/4A4U_6_fmo_input.F26.009
-rw-r--r-- 1 hazwong frank        0 Dec  7 00:11 /scratch/hazwong/824173/4A4U_6/usrc/4A4U_6_fmo_input.F26.010
-rw-r--r-- 1 hazwong frank        0 Dec  7 00:11 /scratch/hazwong/824173/4A4U_6/usrc/4A4U_6_fmo_input.F26.011
-rw-r--r-- 1 hazwong frank        0 Dec  7 00:11 /scratch/hazwong/824173/4A4U_6/usrc/4A4U_6_fmo_input.F26.012
-rw-r--r-- 1 hazwong frank        0 Dec  7 00:11 /scratch/hazwong/824173/4A4U_6/usrc/4A4U_6_fmo_input.F26.013
-rw-r--r-- 1 hazwong frank        0 Dec  7 00:11 /scratch/hazwong/824173/4A4U_6/usrc/4A4U_6_fmo_input.F26.014
-rw-r--r-- 1 hazwong frank        0 Dec  7 00:11 /scratch/hazwong/824173/4A4U_6/usrc/4A4U_6_fmo_input.F26.015
-rw-r--r-- 1 hazwong frank        0 Dec  7 00:11 /scratch/hazwong/824173/4A4U_6/usrc/4A4U_6_fmo_input.F27.000
-rw-r--r-- 1 hazwong frank        0 Dec  7 00:11 /scratch/hazwong/824173/4A4U_6/usrc/4A4U_6_fmo_input.F27.001
-rw-r--r-- 1 hazwong frank        0 Dec  7 00:11 /scratch/hazwong/824173/4A4U_6/usrc/4A4U_6_fmo_input.F27.002
-rw-r--r-- 1 hazwong frank        0 Dec  7 00:11 /scratch/hazwong/824173/4A4U_6/usrc/4A4U_6_fmo_input.F27.003
-rw-r--r-- 1 hazwong frank        0 Dec  7 00:11 /scratch/hazwong/824173/4A4U_6/usrc/4A4U_6_fmo_input.F27.004
-rw-r--r-- 1 hazwong frank        0 Dec  7 00:11 /scratch/hazwong/824173/4A4U_6/usrc/4A4U_6_fmo_input.F27.005
-rw-r--r-- 1 hazwong frank        0 Dec  7 00:11 /scratch/hazwong/824173/4A4U_6/usrc/4A4U_6_fmo_input.F27.006
-rw-r--r-- 1 hazwong frank        0 Dec  7 00:11 /scratch/hazwong/824173/4A4U_6/usrc/4A4U_6_fmo_input.F27.007
-rw-r--r-- 1 hazwong frank        0 Dec  7 00:11 /scratch/hazwong/824173/4A4U_6/usrc/4A4U_6_fmo_input.F27.008
-rw-r--r-- 1 hazwong frank        0 Dec  7 00:11 /scratch/hazwong/824173/4A4U_6/usrc/4A4U_6_fmo_input.F27.009
-rw-r--r-- 1 hazwong frank        0 Dec  7 00:11 /scratch/hazwong/824173/4A4U_6/usrc/4A4U_6_fmo_input.F27.010
-rw-r--r-- 1 hazwong frank        0 Dec  7 00:11 /scratch/hazwong/824173/4A4U_6/usrc/4A4U_6_fmo_input.F27.011
-rw-r--r-- 1 hazwong frank        0 Dec  7 00:11 /scratch/hazwong/824173/4A4U_6/usrc/4A4U_6_fmo_input.F27.012
-rw-r--r-- 1 hazwong frank        0 Dec  7 00:11 /scratch/hazwong/824173/4A4U_6/usrc/4A4U_6_fmo_input.F27.013
-rw-r--r-- 1 hazwong frank        0 Dec  7 00:11 /scratch/hazwong/824173/4A4U_6/usrc/4A4U_6_fmo_input.F27.014
-rw-r--r-- 1 hazwong frank        0 Dec  7 00:11 /scratch/hazwong/824173/4A4U_6/usrc/4A4U_6_fmo_input.F27.015
-rw-r--r-- 1 hazwong frank 16400384 Dec  7 02:57 /scratch/hazwong/824173/4A4U_6/usrc/4A4U_6_fmo_input.F40.000
-rw-r--r-- 1 hazwong frank 16400384 Dec  7 02:57 /scratch/hazwong/824173/4A4U_6/usrc/4A4U_6_fmo_input.F40.001
-rw-r--r-- 1 hazwong frank 16400384 Dec  7 02:57 /scratch/hazwong/824173/4A4U_6/usrc/4A4U_6_fmo_input.F40.002
-rw-r--r-- 1 hazwong frank 16400384 Dec  7 02:57 /scratch/hazwong/824173/4A4U_6/usrc/4A4U_6_fmo_input.F40.003
-rw-r--r-- 1 hazwong frank 16400384 Dec  7 02:57 /scratch/hazwong/824173/4A4U_6/usrc/4A4U_6_fmo_input.F40.004
-rw-r--r-- 1 hazwong frank 16400384 Dec  7 02:57 /scratch/hazwong/824173/4A4U_6/usrc/4A4U_6_fmo_input.F40.005
-rw-r--r-- 1 hazwong frank 16400384 Dec  7 02:57 /scratch/hazwong/824173/4A4U_6/usrc/4A4U_6_fmo_input.F40.006
-rw-r--r-- 1 hazwong frank 16400384 Dec  7 02:57 /scratch/hazwong/824173/4A4U_6/usrc/4A4U_6_fmo_input.F40.007
-rw-r--r-- 1 hazwong frank 16400384 Dec  7 02:57 /scratch/hazwong/824173/4A4U_6/usrc/4A4U_6_fmo_input.F40.008
-rw-r--r-- 1 hazwong frank 16400384 Dec  7 02:57 /scratch/hazwong/824173/4A4U_6/usrc/4A4U_6_fmo_input.F40.009
-rw-r--r-- 1 hazwong frank 16400384 Dec  7 02:57 /scratch/hazwong/824173/4A4U_6/usrc/4A4U_6_fmo_input.F40.010
-rw-r--r-- 1 hazwong frank 16400384 Dec  7 02:57 /scratch/hazwong/824173/4A4U_6/usrc/4A4U_6_fmo_input.F40.011
-rw-r--r-- 1 hazwong frank 16400384 Dec  7 02:57 /scratch/hazwong/824173/4A4U_6/usrc/4A4U_6_fmo_input.F40.012
-rw-r--r-- 1 hazwong frank 16400384 Dec  7 02:57 /scratch/hazwong/824173/4A4U_6/usrc/4A4U_6_fmo_input.F40.013
-rw-r--r-- 1 hazwong frank 16400384 Dec  7 02:57 /scratch/hazwong/824173/4A4U_6/usrc/4A4U_6_fmo_input.F40.014
-rw-r--r-- 1 hazwong frank 16400384 Dec  7 02:57 /scratch/hazwong/824173/4A4U_6/usrc/4A4U_6_fmo_input.F40.015
Sat Dec  7 07:15:10 EST 2019
0.184u 0.085s 7:03:46.35 0.0%	0+0k 1184+120io 20pf+0w
