----- GAMESS execution script 'rungms' -----
This job is running on host gollum053.lsa.umich.edu
under operating system Linux at Sat Nov 16 18:04:06 EST 2019
Available scratch disk space (Kbyte units) at beginning of the job is
Filesystem     1K-blocks  Used Available Use% Mounted on
/dev/sda4      426933580 33460 426900120   1% /scratch
GAMESS temporary binary files will be written to /scratch/hazwong/636437/4A4U_4/usrc
GAMESS supplementary output files will be written to /scratch/hazwong/636437/4A4U_4/src
Copying input file 4A4U_4_fmo_input.inp to your run's scratch directory...
This is a GDDI run, keeping various output files on local disks
 
Assuming a single but multicore node.
 

 Distributed Data Interface kickoff program.
 Initiating 16 compute processes on 1 nodes to run the following command:
 /export/apps/CentOS7/gamess/src/build//gamess.R3.x 4A4U_4_fmo_input 

          ******************************************************
          *         GAMESS VERSION = 30 SEP 2018 (R3)         *
          *             FROM IOWA STATE UNIVERSITY             *
          * M.W.SCHMIDT, K.K.BALDRIDGE, J.A.BOATZ, S.T.ELBERT, *
          *   M.S.GORDON, J.H.JENSEN, S.KOSEKI, N.MATSUNAGA,   *
          *          K.A.NGUYEN, S.J.SU, T.L.WINDUS,           *
          *       TOGETHER WITH M.DUPUIS, J.A.MONTGOMERY       *
          *         J.COMPUT.CHEM.  14, 1347-1363(1993)        *
          **************** 64 BIT LINUX VERSION ****************

  SINCE 1993, STUDENTS AND POSTDOCS WORKING AT IOWA STATE UNIVERSITY
  AND ALSO IN THEIR VARIOUS JOBS AFTER LEAVING ISU HAVE MADE IMPORTANT
  CONTRIBUTIONS TO THE CODE:
     IVANA ADAMOVIC, CHRISTINE AIKENS, YURI ALEXEEV, POOJA ARORA,
     ANDREY ASADCHEV, ROB BELL, PRADIPTA BANDYOPADHYAY, JONATHAN BENTZ,
     BRETT BODE, KURT BRORSEN, CALEB CARLIN, GALINA CHABAN, WEI CHEN,
     CHEOL HO CHOI, PAUL DAY, ALBERT DEFUSCO, NUWAN DESILVA, TIM DUDLEY,
     DMITRI FEDOROV, ALEX FINDLATER, GRAHAM FLETCHER, MARK FREITAG,
     KURT GLAESEMANN, ANASTASIA GUNINA,
     DAN KEMP, GRANT MERRILL, NORIYUKI MINEZAWA, JONATHAN MULLIN,
     TAKESHI NAGATA, SEAN NEDD, HEATHER NETZLOFF, BOSILJKA NJEGIC, RYAN OLSON,
     MIKE PAK, BUU PHAM,
     SPENCER PRUITT, LUKE ROSKOP, JIM SHOEMAKER, LYUDMILA SLIPCHENKO,
     TONY SMITH, SAROM SOK LEANG, JIE SONG, TETSUYA TAKETSUGU, SIMON WEBB,
     PENG XU, SOOHAENG YOO, FEDERICO ZAHARIEV

  ADDITIONAL CODE HAS BEEN PROVIDED BY COLLABORATORS IN OTHER GROUPS:
     IOWA STATE UNIVERSITY:
          JOE IVANIC, AARON WEST, LAIMUTIS BYTAUTAS, KLAUS RUEDENBERG
     UNIVERSITY OF TOKYO: KIMIHIKO HIRAO, TAKAHITO NAKAJIMA,
          TAKAO TSUNEDA, MUNEAKI KAMIYA, SUSUMU YANAGISAWA,
          KIYOSHI YAGI, MAHITO CHIBA, SEIKEN TOKURA, NAOAKI KAWAKAMI
     UNIVERSITY OF AARHUS: FRANK JENSEN
     UNIVERSITY OF IOWA: VISVALDAS KAIRYS, HUI LI
     NATIONAL INST. OF STANDARDS AND TECHNOLOGY: WALT STEVENS, DAVID GARMER
     UNIVERSITY OF PISA: BENEDETTA MENNUCCI, JACOPO TOMASI
     UNIVERSITY OF MEMPHIS: HENRY KURTZ, PRAKASHAN KORAMBATH
     UNIVERSITY OF ALBERTA: TOBY ZENG, MARIUSZ KLOBUKOWSKI
     UNIVERSITY OF NEW ENGLAND: MARK SPACKMAN
     MIE UNIVERSITY: HIROAKI UMEDA
     NAT. INST. OF ADVANCED INDUSTRIAL SCIENCE AND TECHNOLOGY: KAZUO KITAURA
     MICHIGAN STATE UNIVERSITY:
          KAROL KOWALSKI, MARTA WLOCH, JEFFREY GOUR, JESSE LUTZ,
          WEI LI, JUN SHEN, J. EMILIANO DEUSTUA, PIOTR PIECUCH
     UNIVERSITY OF MINNESOTA:
          YINAN SHU
     UNIVERSITY OF SILESIA: MONIKA MUSIAL, STANISLAW KUCHARSKI
     FACULTES UNIVERSITAIRES NOTRE-DAME DE LA PAIX:
          OLIVIER QUINET, BENOIT CHAMPAGNE
     UNIVERSITY OF CALIFORNIA - SANTA BARBARA: BERNARD KIRTMAN
     INSTITUTE FOR MOLECULAR SCIENCE:
          KAZUYA ISHIMURA, MICHIO KATOUDA, AND SHIGERU NAGASE
     UNIVERSITY OF NOTRE DAME: ANNA POMOGAEVA, DAN CHIPMAN
     KYUSHU UNIVERSITY:
          HARUYUKI NAKANO,
          FENG LONG GU, JACEK KORCHOWIEC, MARCIN MAKOWSKI, AND YURIKO AOKI,
          HIROTOSHI MORI AND EISAKU MIYOSHI
     PENNSYLVANIA STATE UNIVERSITY:
          TZVETELIN IORDANOV, CHET SWALINA, JONATHAN SKONE,
          SHARON HAMMES-SCHIFFER
     WASEDA UNIVERSITY:
          MASATO KOBAYASHI, TOMOKO AKAMA, TSUGUKI TOUMA,
          TAKESHI YOSHIKAWA, YASUHIRO IKABATA, JUNJI SEINO,
          YUYA NAKAJIMA, HIROMI NAKAI
     NANJING UNIVERSITY: SHUHUA LI
     UNIVERSITY OF NEBRASKA:
          PEIFENG SU, DEJUN SI, NANDUN THELLAMUREGE, YALI WANG, HUI LI
     UNIVERSITY OF ZURICH: ROBERTO PEVERATI, KIM BALDRIDGE
     N. COPERNICUS UNIVERSITY AND JACKSON STATE UNIVERSITY:
          MARIA BARYSZ
     UNIVERSITY OF COPENHAGEN: Jimmy Kromann, CASPER STEINMANN
     TOKYO INSTITUTE OF TECHNOLOGY: HIROYA NAKATA
     NAGOYA UNIVERSITY: YOSHIO NISHIMOTO, STEPHAN IRLE
     MOSCOW STATE UNIVERSITY: VLADIMIR MIRONOV


 PARALLEL VERSION RUNNING ON       16 PROCESSORS IN        1 NODES.

 EXECUTION OF GAMESS BEGUN Sat Nov 16 18:04:06 2019

            ECHO OF THE FIRST FEW INPUT CARDS -
 INPUT CARD>!*** FMO 5.3 (Gamess) INPUT generated by Facio 22.1.1.32 ***                    
 INPUT CARD> $CONTRL RUNTYP=ENERGY NPRINT=-5 ISPHER=1 MAXIT=200 $END                        
 INPUT CARD> $SYSTEM MWORDS=63 MEMDDI=63 $END                                               
 INPUT CARD> $GDDI NGROUP=1 $END                                                            
 INPUT CARD> $SCF DIRSCF=.TRUE. NPUNCH=0 $END                                               
 INPUT CARD>!*** NumCPU : 2  MemPerNode : 512MB                                             
 INPUT CARD> $PCM SOLVNT=WATER IEF=-10 ICOMP=2 ICAV=1 IDISP=1 IFMO=-1 $END                  
 INPUT CARD> $PCMCAV RADII=SUAHF $END                                                       
 INPUT CARD> $TESCAV NTSALL=60 $END                                                         
 INPUT CARD> $FMOPRP                                                                        
 INPUT CARD>    NAODIR=200                                                                  
 INPUT CARD>    NGRFMO(1)=1, 1, 0, 0, 0,   0, 0, 0, 0, 0                                    
 INPUT CARD>    IPIEDA=1                                                                    
 INPUT CARD>    NPRINT=9                                                                    
 INPUT CARD> $END                                                                           
 INPUT CARD> $FMO                                                                           
 INPUT CARD>      SCFTYP(1)=RHF                                                             
 INPUT CARD>      MODGRD=10                                                                 
 INPUT CARD>      MODMUL=0                                                                  
 INPUT CARD>      MAXCAO=5                                                                  
 INPUT CARD>      MAXBND=10                                                                 
 INPUT CARD>      NLAYER=1                                                                  
 INPUT CARD>      MPLEVL(1)=2                                                               
 INPUT CARD>      NFRAG=8                                                                   
 INPUT CARD>      ICHARG(1)=-1, -1, -1, -1, -1, -1, -1, 0                                   
 INPUT CARD>      FRGNAM(1)=F1, F2, F3, F4, F5, F6, F7, F8                                  
 INPUT CARD>      indat(1)=0                                                                
 INPUT CARD>               1   -36   0                                                      
 INPUT CARD>               37   -67   0                                                     
 INPUT CARD>               68   -97   0                                                     
 INPUT CARD>               98   -131   0                                                    
 INPUT CARD>               132   -164   0                                                   
 INPUT CARD>               165   -195   0                                                   
 INPUT CARD>               196   -229   0                                                   
 INPUT CARD>               230   -257   0                                                   
 INPUT CARD> $END                                                                           
 INPUT CARD>                                                                                
 INPUT CARD> $FMOBND                                                                        
 INPUT CARD>   -37   36       6-31G*    MINI                                                
 INPUT CARD>   -68   67       6-31G*    MINI                                                
 INPUT CARD>   -98   97       6-31G*    MINI                                                
 INPUT CARD>   -132   131       6-31G*    MINI                                              
 INPUT CARD>   -165   164       6-31G*    MINI                                              
 INPUT CARD>   -196   195       6-31G*    MINI                                              
 INPUT CARD>   -230   229       6-31G*    MINI                                              
 INPUT CARD> $END                                                                           
 INPUT CARD> $FMOHYB                                                                        
 INPUT CARD> 6-31G*      15   5                                                             
 INPUT CARD>   1 0  -0.065034   0.288264   0.000000   0.000000   0.604412                   
 INPUT CARD>         0.290129   0.000000   0.000000   0.319045  -0.017106                   


 -------------------------------------------------------------
 GROUP DDI, PROGRAMMED BY: RYAN M. OLSON AND DMITRI G. FEDOROV
        FEDOROV ET AL., J. COMPUT. CHEM., 25 (2004) 872.
 -------------------------------------------------------------

 -------------------------------------------------------
 GDDI: INITIALIZATION COMPLETED FOR GROUP     1 OF     1
 WITH    16 PROCESSES BALTYP=DLB   global rank=        0
 -------------------------------------------------------

   63000000 WORDS OF MEMORY AVAILABLE


     RUN TITLE
     ---------
  FMO calculation                                                                

 THE POINT GROUP OF THE MOLECULE IS C1      
 THE ORDER OF THE PRINCIPAL AXIS IS     0

 ATOM   ATOMIC CHARGE
 H.1-1       1.0
 O.1-1       8.0
 C.1-1       6.0
 N.1-1       7.0
 P.1-1      15.0

     ATOMIC BASIS SET LIBRARY
     ----------------
 THE CONTRACTED PRIMITIVE FUNCTIONS HAVE BEEN UNNORMALIZED
 THE CONTRACTED BASIS FUNCTIONS ARE NOW NORMALIZED TO UNITY

  SHELL TYPE  PRIMITIVE        EXPONENT          CONTRACTION COEFFICIENT(S)

 H.1-1     

      1   S       1            18.7311370    0.033494604338
      1   S       2             2.8253944    0.234726953484
      1   S       3             0.6401217    0.813757326146

      2   S       4             0.1612778    1.000000000000

 O.1-1     

      3   S       5          5484.6716600    0.001831074430
      3   S       6           825.2349460    0.013950172200
      3   S       7           188.0469580    0.068445078098
      3   S       8            52.9645000    0.232714335992
      3   S       9            16.8975704    0.470192897984
      3   S      10             5.7996353    0.358520852987

      4   L      11            15.5396162   -0.110777549525    0.070874268231
      4   L      12             3.5999336   -0.148026262701    0.339752839147
      4   L      13             1.0137618    1.130767015354    0.727158577316

      5   L      14             0.2700058    1.000000000000    1.000000000000

      6   D      15             0.8000000    1.000000000000

 C.1-1     

      7   S      16          3047.5248800    0.001834737132
      7   S      17           457.3695180    0.014037322813
      7   S      18           103.9486850    0.068842622264
      7   S      19            29.2101553    0.232184443216
      7   S      20             9.2866630    0.467941348435
      7   S      21             3.1639270    0.362311985337

      8   L      22             7.8682723   -0.119332419775    0.068999066591
      8   L      23             1.8812885   -0.160854151696    0.316423960957
      8   L      24             0.5442493    1.143456437840    0.744308290898

      9   L      25             0.1687145    1.000000000000    1.000000000000

     10   D      26             0.8000000    1.000000000000

 N.1-1     

     11   S      27          4173.5114600    0.001834772160
     11   S      28           627.4579110    0.013994627002
     11   S      29           142.9020930    0.068586551812
     11   S      30            40.2343293    0.232240873040
     11   S      31            12.8202129    0.469069948082
     11   S      32             4.3904370    0.360455199063

     12   L      33            11.6263619   -0.114961181702    0.067579743878
     12   L      34             2.7162798   -0.169117478561    0.323907295893
     12   L      35             0.7722184    1.145851947027    0.740895139755

     13   L      36             0.2120315    1.000000000000    1.000000000000

     14   D      37             0.8000000    1.000000000000

 P.1-1     

     15   S      38         19413.3000000    0.001851598923
     15   S      39          2909.4200000    0.014206191735
     15   S      40           661.3640000    0.069999459277
     15   S      41           185.7590000    0.240078860331
     15   S      42            59.1943000    0.484761717984
     15   S      43            20.0310000    0.335199804993

     16   L      44           339.4780000   -0.002782170105    0.004564616191
     16   L      45            81.0101000   -0.036049901354    0.033693571881
     16   L      46            25.8780000   -0.116631004382    0.139754883368
     16   L      47             9.4522100    0.096832803638    0.339361716786
     16   L      48             3.6656600    0.614418023082    0.450920623685
     16   L      49             1.4674600    0.403798015170    0.238585800889

     17   L      50             2.1562300   -0.252924113863   -0.017765312733
     17   L      51             0.7489970    0.032851844678    0.274058196433
     17   L      52             0.2831450    1.081254761783    0.785421562957

     18   L      53             0.0998317    1.000000000000    1.000000000000

     19   D      54             0.5500000    1.000000000000

 TOTAL NUMBER OF BASIS SET SHELLS             =   19
 NUMBER OF CARTESIAN GAUSSIAN BASIS FUNCTIONS =   66

     $CONTRL OPTIONS
     ---------------
 SCFTYP=RHF          RUNTYP=ENERGY       EXETYP=RUN     
 MPLEVL=       0     CITYP =NONE         CCTYP =NONE         VBTYP =NONE    
 DFTTYP=NONE         TDDFT =NONE    
 MULT  =       1     ICHARG=       0     NZVAR =       0     COORD =UNIQUE  
 PP    =NONE         RELWFN=NONE         LOCAL =NONE         NUMGRD=       F
 ISPHER=       1     NOSYM =       0     MAXIT =     200     UNITS =ANGS    
 PLTORB=       F     MOLPLT=       F     AIMPAC=       F     FRIEND=        
 NPRINT=      -5     IREST =       0     GEOM  =INPUT   
 NORMF =       0     NORMP =       0     ITOL  =      24     ICUT  =      12
 INTTYP=BEST         GRDTYP=BEST         QMTTOL= 1.0E-06

     $SYSTEM OPTIONS
     ---------------
  REPLICATED MEMORY=    63000000 WORDS (ON EVERY NODE).
 DISTRIBUTED MEMDDI=          63 MILLION WORDS IN AGGREGATE,
 MEMDDI DISTRIBUTED OVER  16 PROCESSORS IS     3937500 WORDS/PROCESSOR.
 TOTAL MEMORY REQUESTED ON EACH PROCESSOR=    66937500 WORDS.
 TIMLIM=      525600.00 MINUTES, OR     365.0 DAYS.
 PARALL= T  BALTYP=  DLB     KDIAG=    0  COREFL= F
 MXSEQ2=     300 MXSEQ3=     150  mem10=         0

 ** LOOKING UP INTERNALLY STORED DATA FOR SOLVENT=WATER    **
 OPTICAL AND PHYSICAL CONSTANTS:
 EPS= 78.390; EPSINF=  1.776; RSOLV=  1.385 A; VMOL=  18.070 ML/MOL;
 TCE= .25700E-03 1/K; STEN= 71.810 DYN/CM;  DSTEN=  0.6500; CMF=  1.2770


     -----------------------------------
     INPUT FOR PCM SOLVATION CALCULATION 
     -----------------------------------
     IEF   =     -10
     ICOMP =       2     IFIELD=       0     ICAV  =       1
     IDISP =       1     IREP  =       0     IDP   =       0

     SOLVNT=WATER        EPS   = 78.3900     EPSINF=  1.7760
     VMOL  = 18.0700     TCE   =  0.00025700 STEN  = 71.8100
     DSTEN =  0.6500     CMF   =  1.2770     RSOLV =  1.3850

     NESFP =       0
     OMEGA = 40.0000     RET   =100.0000     FRO   =  0.7000

     TABS  =298.0000     IPRINT=       0

     --------------------------------
     INPUT FOR ITERATIVE C-PCM METHOD 
     --------------------------------
     IPCMIT  =         1     MXDIIS  =        50
     MXITR1  =       200     MXITR2  =       200
     THRES   = 0.100E-09     IMUL    =         3
     RCUT(1) =   20.0000     RCUT(2) =   50.0000

     IDIRCT  =         1
     IMGABI  =         0     RABI    =    4.0000
     IMGASC  =         0     RASC    =   20.0000
     THRSLS  = 0.500E-03     DENSLS  =    0.0100
     IEFPOL  =         1     REFPOL  =    0.0000

     INPUT FOR ISOTROPIC DIELECTRICS
     -------------------------------
     EPS=    78.39

          ----------------
          PROPERTIES INPUT
          ----------------

     MOMENTS            FIELD           POTENTIAL          DENSITY
 IEMOM =       1   IEFLD =       0   IEPOT =       0   IEDEN =       0
 WHERE =COMASS     WHERE =NUCLEI     WHERE =NUCLEI     WHERE =NUCLEI  
 OUTPUT=BOTH       OUTPUT=BOTH       OUTPUT=NONE       OUTPUT=BOTH    
 IEMINT=       0   IEFINT=       0                     IEDINT=       0
                                                       MORB  =       0
          EXTRAPOLATION IN EFFECT
          SOSCF IN EFFECT
 ORBITAL PRINTING OPTION: NPREO=     1 32767     2     1

     -------------------------------
     INTEGRAL TRANSFORMATION OPTIONS
     -------------------------------
     NWORD  =            0
     CUTOFF = 1.0E-10     MPTRAN =       0
     DIRTRF =       T     AOINTS =DUP     

          ----------------------
          INTEGRAL INPUT OPTIONS
          ----------------------
 NOPK  =       1 NORDER=       0 SCHWRZ=       T

 ..... DONE SETTING UP THE RUN .....
 CPU     0: STEP CPU TIME=     0.03 TOTAL CPU TIME=          0.0 (      0.0 MIN)
 TOTAL WALL CLOCK TIME=          0.1 SECONDS, CPU UTILIZATION IS    42.86%
 CPU     0: STEP CPU TIME=     0.00 TOTAL CPU TIME=          0.0 (      0.0 MIN)
 TOTAL WALL CLOCK TIME=          0.1 SECONDS, CPU UTILIZATION IS    42.86%

                    ----------------------
                    AO INTEGRAL TECHNOLOGY
                    ----------------------
     S,P,L SHELL ROTATED AXIS INTEGRALS, REPROGRAMMED BY
        KAZUYA ISHIMURA (IMS) AND JOSE SIERRA (SYNSTAR).
     S,P,D,L SHELL ROTATED AXIS INTEGRALS PROGRAMMED BY
        KAZUYA ISHIMURA (INSTITUTE FOR MOLECULAR SCIENCE).
     S,P,D,F,G SHELL TO TOTAL QUARTET ANGULAR MOMENTUM SUM 5,
        ERIC PROGRAM BY GRAHAM FLETCHER (ELORET AND NASA ADVANCED
        SUPERCOMPUTING DIVISION, AMES RESEARCH CENTER).
     S,P,D,F,G,L SHELL GENERAL RYS QUADRATURE PROGRAMMED BY
        MICHEL DUPUIS (PACIFIC NORTHWEST NATIONAL LABORATORY).
 Setting modorb=1 flag...
 Setting modorb=1 flag...

          -----------------------
          MP2 CONTROL INFORMATION
          -----------------------
          NACORE =        8  NBCORE =        8
          LMOMP2 =        F  AOINTS = DUP     
          METHOD =        2  NWORD  =               0
          MP2PRP =        F  OSPT   = NONE    
          CUTOFF = 1.00E-12  CPHFBS = BASISAO 
          CODE   = IMS     

          NUMBER OF CORE -A-  ORBITALS =     8
          NUMBER OF CORE -B-  ORBITALS =     8
          NUMBER OF OCC. -A-  ORBITALS =    18
          NUMBER OF OCC. -B-  ORBITALS =    18
          NUMBER OF MOLECULAR ORBITALS =    66
          NUMBER OF   BASIS  FUNCTIONS =    66

 CPU     0: STEP CPU TIME=     0.03 TOTAL CPU TIME=          0.1 (      0.0 MIN)
 TOTAL WALL CLOCK TIME=          0.1 SECONDS, CPU UTILIZATION IS    60.00%
 CPU     0: STEP CPU TIME=     0.00 TOTAL CPU TIME=          0.1 (      0.0 MIN)
 TOTAL WALL CLOCK TIME=          0.1 SECONDS, CPU UTILIZATION IS    60.00%

     INPUT FOR CAVITY DEFINITION 
     ---------------------------
   ATOM               COORDINATES                RADIUS       EPS
      1    -15.1990     -3.2220     -1.1280      0.0100     78.3900
      2    -14.5040     -3.7470     -0.6820      1.5900     78.3900
      3    -14.3370     -4.9490     -1.4480      1.7700     78.3900
      4    -14.1530     -4.6820     -2.5130      0.0100     78.3900
      5    -15.2750     -5.5460     -1.4000      0.0100     78.3900
      6    -13.1760     -5.8130     -0.9490      1.7700     78.3900
      7    -13.0990     -6.7560     -1.5340      0.0100     78.3900
      8    -11.9220     -5.0900     -1.1200      1.5900     78.3900
      9    -11.0740     -5.3540     -0.0150      1.7700     78.3900
     10    -10.1170     -5.7560     -0.4330      0.0100     78.3900
     11    -10.7810     -4.1300      0.7490      1.6800     78.3900
     12     -9.7520     -3.9620      1.6360      1.7700     78.3900
     13     -6.9590     -5.2050      3.2610      1.6800     78.3900
     14     -6.9320     -6.1530      2.9560      0.0100     78.3900
     15     -6.2910     -4.8900      3.9400      0.0100     78.3900
     16     -8.8500     -4.8960      1.9820      1.6800     78.3900
     17     -7.9350     -4.4290      2.8270      1.7700     78.3900
     18     -7.9290     -3.1380      3.2880      1.6800     78.3900
     19     -7.2040     -2.8690      3.9340      0.0100     78.3900
     20     -8.8410     -2.1480      2.9440      1.7700     78.3900
     21     -8.7520     -1.0000      3.3940      1.5900     78.3900
     22     -9.8340     -2.6470      2.0570      1.7700     78.3900
     23    -10.9180     -2.0050      1.4670      1.6800     78.3900
     24    -11.4600     -2.9310      0.7060      1.7700     78.3900
     25    -12.3400     -2.7950      0.0710      0.0100     78.3900
     26    -11.7390     -6.4220      0.8250      1.7700     78.3900
     27    -11.5060     -6.3180      1.9040      0.0100     78.3900
     28    -11.3340     -7.6990      0.3730      1.5900     78.3900
     29    -11.7960     -8.3440      0.9210      0.0100     78.3900
     30    -13.2180     -6.1650      0.5440      1.7700     78.3900
     31    -13.5500     -5.2410      1.0750      0.0100     78.3900
     32    -14.1020     -7.2950      0.7620      1.5900     78.3900
     33    -14.7850     -7.4400      2.1860      2.1000     78.3900
     34    -15.3490     -6.1350      2.5950      1.5900     78.3900
     35    -15.7250     -8.5850      2.1610      1.5900     78.3900
     36    -13.5820     -7.7990      3.1320      1.5900     78.3900
     37    -12.9300     -9.0890      3.0450      1.7700     78.3900
     38    -12.5640     -9.2920      2.0170      0.0100     78.3900
     39    -13.6310     -9.9110      3.3210      0.0100     78.3900
     40    -11.7160     -9.1730      3.9800      1.7700     78.3900
     41    -11.2020    -10.1520      3.8710      0.0100     78.3900
     42    -10.7490     -8.1450      3.6370      1.5900     78.3900
     43    -10.1350     -7.6680      4.8270      1.7700     78.3900
     44     -9.0440     -7.8540      4.6920      0.0100     78.3900
     45    -10.3530     -6.2120      5.0460      1.6800     78.3900
     46    -11.4310     -5.5820      4.4700      1.7700     78.3900
     47    -12.0770     -6.2150      3.8610      0.0100     78.3900
     48    -11.6370     -4.2670      4.6230      1.7700     78.3900
     49    -12.4670     -3.7470      4.1470      0.0100     78.3900
     50     -9.4900     -5.4910      5.8670      1.7700     78.3900
     51     -8.5500     -6.0790      6.4240      1.5900     78.3900
     52     -9.6770     -4.1600      6.0250      1.6800     78.3900
     53    -10.7100     -3.5440      5.4260      1.7700     78.3900
     54    -10.8550     -2.2320      5.5930      1.6800     78.3900
     55    -10.2190     -1.7470      6.2000      0.0100     78.3900
     56    -11.5790     -1.7100      5.1420      0.0100     78.3900
     57    -10.6380     -8.5210      5.9780      1.7700     78.3900
     58    -10.7250     -7.9460      6.9190      0.0100     78.3900
     59     -9.7830     -9.6320      6.1720      1.5900     78.3900
     60    -10.2130    -10.2180      6.8150      0.0100     78.3900
     61    -12.0070     -8.9540      5.4700      1.7700     78.3900
     62    -12.7260     -8.1100      5.5370      0.0100     78.3900
     63    -12.5220    -10.1710      6.0540      1.5900     78.3900
     64    -13.3270    -10.1080      7.4040      2.1000     78.3900
     65    -14.3760     -9.0770      7.2720      1.5900     78.3900
     66    -13.7680    -11.4850      7.7330      1.5900     78.3900
     67    -12.2760     -9.6450      8.4760      1.5900     78.3900
     68    -12.6950     -9.0400      9.7280      1.7700     78.3900
     69    -12.7820     -9.8220     10.5170      0.0100     78.3900
     70    -13.6940     -8.5450      9.6410      0.0100     78.3900
     71    -11.7040     -7.9660     10.2230      1.7700     78.3900
     72    -10.8050     -8.4380     10.6770      0.0100     78.3900
     73    -11.2340     -7.1630      9.1010      1.5900     78.3900
     74    -11.1970     -5.7990      9.4550      1.7700     78.3900
     75    -10.1660     -5.4490      9.2160      0.0100     78.3900
     76    -12.1910     -5.0050      8.6800      1.6800     78.3900
     77    -13.2080     -5.6190      7.9780      1.7700     78.3900
     78    -13.2450     -6.7110      8.0420      0.0100     78.3900
     79    -12.0400     -3.6370      8.6510      1.7700     78.3900
     80    -11.1360     -3.0530      9.2400      1.5900     78.3900
     81    -12.9630     -2.9690      7.8890      1.6800     78.3900
     82    -12.8390     -1.9730      7.8270      0.0100     78.3900
     83    -13.9600     -3.5190      7.1120      1.7700     78.3900
     84    -14.6550     -2.8060      6.3940      1.5900     78.3900
     85    -14.0760     -4.9410      7.2170      1.7700     78.3900
     86    -14.8410     -5.4470      6.6330      0.0100     78.3900
     87    -11.4190     -5.7310     10.9540      1.7700     78.3900
     88    -11.9210     -4.7890     11.2680      0.0100     78.3900
     89    -10.1860     -5.8790     11.6350      1.5900     78.3900
     90    -10.3970     -6.0020     12.5750      0.0100     78.3900
     91    -12.3110     -6.9370     11.1970      1.7700     78.3900
     92    -13.3470     -6.7170     10.8530      0.0100     78.3900
     93    -12.2720     -7.4490     12.5450      1.5900     78.3900
     94    -13.1470     -6.7940     13.6780      2.1000     78.3900
     95    -14.5580     -6.9550     13.2520      1.5900     78.3900
     96    -12.7510     -7.3910     14.9720      1.5900     78.3900
     97    -12.7570     -5.2680     13.7110      1.5900     78.3900
     98    -13.7690     -4.2750     14.0380      1.7700     78.3900
     99    -14.0700     -4.3570     15.1060      0.0100     78.3900
    100    -14.6970     -4.4220     13.4410      0.0100     78.3900
    101    -13.2670     -2.8350     13.7940      1.7700     78.3900
    102    -12.3770     -2.6350     14.4240      0.0100     78.3900
    103    -12.8420     -2.6580     12.4060      1.5900     78.3900
    104    -13.2540     -1.3800     11.9400      1.7700     78.3900
    105    -12.3450     -0.9150     11.5010      0.0100     78.3900
    106    -14.3080     -1.4510     10.8890      1.6800     78.3900
    107    -15.1230     -2.5140     10.5410      1.7700     78.3900
    108    -16.1110     -5.7890     11.0640      1.6800     78.3900
    109    -16.7760     -6.4460     10.7130      0.0100     78.3900
    110    -15.5380     -6.0410     11.8510      0.0100     78.3900
    111    -15.1270     -3.7310     11.1040      1.6800     78.3900
    112    -16.0010     -4.5610     10.5840      1.7700     78.3900
    113    -16.8200     -4.2160      9.5420      1.6800     78.3900
    114    -17.4390     -4.9160      9.1710      0.0100     78.3900
    115    -16.8410     -2.9700      8.9170      1.7700     78.3900
    116    -17.6120     -2.7350      7.9820      1.5900     78.3900
    117    -15.9090     -2.0650      9.5040      1.7700     78.3900
    118    -15.6090     -0.7440      9.1920      1.6800     78.3900
    119    -14.6520     -0.4220     10.0350      1.7700     78.3900
    120    -14.1690      0.5570     10.0870      0.0100     78.3900
    121    -13.6880     -0.5950     13.1570      1.7700     78.3900
    122    -14.4470      0.1850     12.9330      0.0100     78.3900
    123    -12.5370     -0.0250     13.7680      1.5900     78.3900
    124    -12.2420      0.8030     13.3290      0.0100     78.3900
    125    -14.2840     -1.7010     14.0360      1.7700     78.3900
    126    -15.2600     -2.0500     13.6270      0.0100     78.3900
    127    -14.3810     -1.4050     15.4520      1.5900     78.3900
    128    -15.2750     -0.1950     15.9440      2.1000     78.3900
    129    -16.5730     -0.2300     15.2310      1.5900     78.3900
    130    -15.3330     -0.2310     17.4250      1.5900     78.3900
    131    -14.4960      1.1050     15.5320      1.5900     78.3900
    132    -15.0770      2.4140     15.4090      1.7700     78.3900
    133    -16.0250      2.5160     15.9850      0.0100     78.3900
    134    -15.3160      2.6010     14.3390      0.0100     78.3900
    135    -14.0880      3.4960     15.8760      1.7700     78.3900
    136    -14.4900      4.5140     15.6940      0.0100     78.3900
    137    -13.8890      3.3640     17.3140      1.5900     78.3900
    138    -12.5250      3.6040     17.6280      1.7700     78.3900
    139    -12.5160      4.4310     18.3750      0.0100     78.3900
    140    -11.8970      2.4210     18.2250      1.6800     78.3900
    141    -10.5530      1.0980     19.3600      1.7700     78.3900
    142    -11.5720      0.2880     18.8740      1.6800     78.3900
    143    -12.3410      1.1190     18.2070      1.7700     78.3900
    144    -13.2600      0.8480     17.6860      0.0100     78.3900
    145     -8.6150      1.8720     20.4820      1.6800     78.3900
    146     -8.9100      3.0810     19.9940      1.7700     78.3900
    147     -8.2210      3.8800     20.2810      0.0100     78.3900
    148     -9.9580      3.4630     19.2540      1.6800     78.3900
    149    -10.7410      2.4110     18.9620      1.7700     78.3900
    150     -9.4320      0.8320     20.1750      1.7700     78.3900
    151     -9.1440     -0.3870     20.6720      1.6800     78.3900
    152     -9.6790     -1.1950     20.4160      0.0100     78.3900
    153     -8.3190     -0.5240     21.2290      0.0100     78.3900
    154    -11.8230      4.0680     16.3640      1.7700     78.3900
    155    -10.7700      3.7150     16.3040      0.0100     78.3900
    156    -11.8670      5.4830     16.2770      1.5900     78.3900
    157    -11.5760      5.7230     15.3830      0.0100     78.3900
    158    -12.6680      3.4070     15.2810      1.7700     78.3900
    159    -12.4210      2.3240     15.2220      0.0100     78.3900
    160    -12.6230      4.0650     13.9960      1.5900     78.3900
    161    -11.5370      3.6670     12.9240      2.1000     78.3900
    162    -11.5110      2.1930     12.7970      1.5900     78.3900
    163    -11.8250      4.4150     11.6810      1.5900     78.3900
    164    -10.1820      4.2270     13.5210      1.5900     78.3900
    165     -8.9140      3.9110     12.8890      1.7700     78.3900
    166     -8.4250      4.8450     12.5230      0.0100     78.3900
    167     -9.0240      3.2470     11.9950      0.0100     78.3900
    168     -7.9650      3.2130     13.8750      1.7700     78.3900
    169     -7.6890      3.8990     14.7020      0.0100     78.3900
    170     -8.6330      2.0720     14.4920      1.5900     78.3900
    171     -7.7460      0.9730     14.5670      1.7700     78.3900
    172     -7.7640      0.6470     15.6310      0.0100     78.3900
    173     -8.1560     -0.1690     13.6980      1.6800     78.3900
    174     -9.0250      0.0390     12.6480      1.7700     78.3900
    175     -9.4190      1.0510     12.5500      0.0100     78.3900
    176     -9.4000     -0.9650     11.8450      1.7700     78.3900
    177    -10.0800     -0.8260     11.0070      0.0100     78.3900
    178     -7.6540     -1.4470     13.9380      1.7700     78.3900
    179     -6.8810     -1.6300     14.8920      1.5900     78.3900
    180     -8.0370     -2.4740     13.1460      1.6800     78.3900
    181     -8.8770     -2.2580     12.1190      1.7700     78.3900
    182     -9.2210     -3.2640     11.3310      1.6800     78.3900
    183     -9.0860     -4.1990     11.6580      0.0100     78.3900
    184     -9.9500     -3.1450     10.6540      0.0100     78.3900
    185     -6.3650      1.4890     14.2340      1.7700     78.3900
    186     -5.7560      0.7070     13.7580      0.0100     78.3900
    187     -5.7030      1.9440     15.4020      1.5900     78.3900
    188     -4.9240      2.4470     15.1180      0.0100     78.3900
    189     -6.6810      2.6260     13.2690      1.7700     78.3900
    190     -6.9870      2.2160     12.2800      0.0100     78.3900
    191     -5.6470      3.6320     13.1830      1.5900     78.3900
    192     -4.8260      3.8380     11.8530      2.1000     78.3900
    193     -5.7650      4.1690     10.7590      1.5900     78.3900
    194     -3.7340      4.8020     12.1140      1.5900     78.3900
    195     -4.1880      2.4410     11.5330      1.5900     78.3900
    196     -3.1640      1.8700     12.3710      1.7700     78.3900
    197     -3.3980      2.0060     13.4550      0.0100     78.3900
    198     -2.1890      2.3720     12.1700      0.0100     78.3900
    199     -3.0180      0.3600     12.1200      1.7700     78.3900
    200     -2.2670     -0.0790     12.8130      0.0100     78.3900
    201     -4.2870     -0.3040     12.3740      1.5900     78.3900
    202     -4.5270     -1.2880     11.3880      1.7700     78.3900
    203     -4.7890     -2.2270     11.9280      0.0100     78.3900
    204     -5.6500     -0.9180     10.5080      1.6800     78.3900
    205     -6.3230     -1.7460      9.6540      1.7700     78.3900
    206     -6.8220     -4.8820      8.2890      1.6800     78.3900
    207     -6.1150     -5.4310      8.7300      0.0100     78.3900
    208     -7.4280     -5.3080      7.6090      0.0100     78.3900
    209     -6.0670     -3.0480      9.4560      1.6800     78.3900
    210     -6.9190     -3.6040      8.5990      1.7700     78.3900
    211     -7.9150     -2.9050      7.9670      1.6800     78.3900
    212     -8.5160     -3.4030      7.3290      0.0100     78.3900
    213     -8.1980     -1.5580      8.1450      1.7700     78.3900
    214     -9.1160     -0.9960      7.5380      1.5900     78.3900
    215     -7.3010     -0.9630      9.0690      1.7700     78.3900
    216     -7.2400      0.3380      9.5440      1.6800     78.3900
    217     -6.2450      0.3150     10.3940      1.7700     78.3900
    218     -5.9050      1.1560     10.9900      0.0100     78.3900
    219     -3.2330     -1.4720     10.6350      1.7700     78.3900
    220     -3.3950     -1.8090      9.5930      0.0100     78.3900
    221     -2.4130     -2.4050     11.3180      1.5900     78.3900
    222     -1.5530     -2.4000     10.8800      0.0100     78.3900
    223     -2.6530     -0.0580     10.6900      1.7700     78.3900
    224     -3.2230      0.6200     10.0120      0.0100     78.3900
    225     -1.2200      0.0250     10.5060      1.5900     78.3900
    226     -0.6580      0.3270      9.0670      2.1000     78.3900
    227     -1.4200      1.4400      8.4630      1.5900     78.3900
    228      0.8100      0.4810      9.1180      1.5900     78.3900
    229     -0.9790     -0.9840      8.2580      1.5900     78.3900
    230     -0.3210     -2.2250      8.6100      1.7700     78.3900
    231     -0.4620     -2.4800      9.6830      0.0100     78.3900
    232      0.7800     -2.1490      8.4340      0.0100     78.3900
    233     -0.8670     -3.3900      7.7760      1.7700     78.3900
    234     -0.3300     -4.3340      8.0250      0.0100     78.3900
    235     -2.2810     -3.6030      8.0580      1.5900     78.3900
    236     -2.9570     -3.9310      6.8480      1.7700     78.3900
    237     -3.4630     -4.9060      7.0360      0.0100     78.3900
    238     -3.9840     -2.9200      6.4680      1.6800     78.3900
    239     -3.9230     -1.6450      6.9780      1.7700     78.3900
    240     -3.1150     -1.4500      7.6780      0.0100     78.3900
    241     -4.8310     -0.7150      6.6590      1.7700     78.3900
    242     -4.8100      0.2890      7.0780      0.0100     78.3900
    243     -4.9880     -3.2460      5.5610      1.7700     78.3900
    244     -5.0140     -4.3840      5.0710      1.5900     78.3900
    245     -5.9150     -2.3210      5.2240      1.6800     78.3900
    246     -5.8590     -1.0840      5.7470      1.7700     78.3900
    247     -6.7950     -0.2000      5.4110      1.6800     78.3900
    248     -7.5160     -0.4670      4.7680      0.0100     78.3900
    249     -6.8290      0.7150      5.8140      0.0100     78.3900
    250     -1.8990     -4.1190      5.7700      1.7700     78.3900
    251     -2.2640     -3.8100      4.7670      0.0100     78.3900
    252     -1.4730     -5.4720      5.7380      1.5900     78.3900
    253     -0.6710     -5.5380      5.1910      0.0100     78.3900
    254     -0.8030     -3.1770      6.2600      1.7700     78.3900
    255     -1.0720     -2.1200      6.0350      0.0100     78.3900
    256      0.5140     -3.4870      5.7700      1.5900     78.3900
    257      0.5740     -3.2910      4.8170      0.0100     78.3900

     ----------------------------
     INPUT FOR TESSERA DEFINITION
     ----------------------------
     NTSALL  =        60     MTHALL  =         4
     MTHAUT  =         0     AUTFRE  =    2.0000
     NTSFRZ  =        60     KEEPSM  =         0
     AREAKP  =   10.0000     BONDRY  =    1.0000
     AREATL  =    0.0100

     SPHERE     INITS       METHOD
          1        60       FIXPVA
          2        60       FIXPVA
          3        60       FIXPVA
          4        60       FIXPVA
          5        60       FIXPVA
          6        60       FIXPVA
          7        60       FIXPVA
          8        60       FIXPVA
          9        60       FIXPVA
         10        60       FIXPVA
         11        60       FIXPVA
         12        60       FIXPVA
         13        60       FIXPVA
         14        60       FIXPVA
         15        60       FIXPVA
         16        60       FIXPVA
         17        60       FIXPVA
         18        60       FIXPVA
         19        60       FIXPVA
         20        60       FIXPVA
         21        60       FIXPVA
         22        60       FIXPVA
         23        60       FIXPVA
         24        60       FIXPVA
         25        60       FIXPVA
         26        60       FIXPVA
         27        60       FIXPVA
         28        60       FIXPVA
         29        60       FIXPVA
         30        60       FIXPVA
         31        60       FIXPVA
         32        60       FIXPVA
         33        60       FIXPVA
         34        60       FIXPVA
         35        60       FIXPVA
         36        60       FIXPVA
         37        60       FIXPVA
         38        60       FIXPVA
         39        60       FIXPVA
         40        60       FIXPVA
         41        60       FIXPVA
         42        60       FIXPVA
         43        60       FIXPVA
         44        60       FIXPVA
         45        60       FIXPVA
         46        60       FIXPVA
         47        60       FIXPVA
         48        60       FIXPVA
         49        60       FIXPVA
         50        60       FIXPVA
         51        60       FIXPVA
         52        60       FIXPVA
         53        60       FIXPVA
         54        60       FIXPVA
         55        60       FIXPVA
         56        60       FIXPVA
         57        60       FIXPVA
         58        60       FIXPVA
         59        60       FIXPVA
         60        60       FIXPVA
         61        60       FIXPVA
         62        60       FIXPVA
         63        60       FIXPVA
         64        60       FIXPVA
         65        60       FIXPVA
         66        60       FIXPVA
         67        60       FIXPVA
         68        60       FIXPVA
         69        60       FIXPVA
         70        60       FIXPVA
         71        60       FIXPVA
         72        60       FIXPVA
         73        60       FIXPVA
         74        60       FIXPVA
         75        60       FIXPVA
         76        60       FIXPVA
         77        60       FIXPVA
         78        60       FIXPVA
         79        60       FIXPVA
         80        60       FIXPVA
         81        60       FIXPVA
         82        60       FIXPVA
         83        60       FIXPVA
         84        60       FIXPVA
         85        60       FIXPVA
         86        60       FIXPVA
         87        60       FIXPVA
         88        60       FIXPVA
         89        60       FIXPVA
         90        60       FIXPVA
         91        60       FIXPVA
         92        60       FIXPVA
         93        60       FIXPVA
         94        60       FIXPVA
         95        60       FIXPVA
         96        60       FIXPVA
         97        60       FIXPVA
         98        60       FIXPVA
         99        60       FIXPVA
        100        60       FIXPVA
        101        60       FIXPVA
        102        60       FIXPVA
        103        60       FIXPVA
        104        60       FIXPVA
        105        60       FIXPVA
        106        60       FIXPVA
        107        60       FIXPVA
        108        60       FIXPVA
        109        60       FIXPVA
        110        60       FIXPVA
        111        60       FIXPVA
        112        60       FIXPVA
        113        60       FIXPVA
        114        60       FIXPVA
        115        60       FIXPVA
        116        60       FIXPVA
        117        60       FIXPVA
        118        60       FIXPVA
        119        60       FIXPVA
        120        60       FIXPVA
        121        60       FIXPVA
        122        60       FIXPVA
        123        60       FIXPVA
        124        60       FIXPVA
        125        60       FIXPVA
        126        60       FIXPVA
        127        60       FIXPVA
        128        60       FIXPVA
        129        60       FIXPVA
        130        60       FIXPVA
        131        60       FIXPVA
        132        60       FIXPVA
        133        60       FIXPVA
        134        60       FIXPVA
        135        60       FIXPVA
        136        60       FIXPVA
        137        60       FIXPVA
        138        60       FIXPVA
        139        60       FIXPVA
        140        60       FIXPVA
        141        60       FIXPVA
        142        60       FIXPVA
        143        60       FIXPVA
        144        60       FIXPVA
        145        60       FIXPVA
        146        60       FIXPVA
        147        60       FIXPVA
        148        60       FIXPVA
        149        60       FIXPVA
        150        60       FIXPVA
        151        60       FIXPVA
        152        60       FIXPVA
        153        60       FIXPVA
        154        60       FIXPVA
        155        60       FIXPVA
        156        60       FIXPVA
        157        60       FIXPVA
        158        60       FIXPVA
        159        60       FIXPVA
        160        60       FIXPVA
        161        60       FIXPVA
        162        60       FIXPVA
        163        60       FIXPVA
        164        60       FIXPVA
        165        60       FIXPVA
        166        60       FIXPVA
        167        60       FIXPVA
        168        60       FIXPVA
        169        60       FIXPVA
        170        60       FIXPVA
        171        60       FIXPVA
        172        60       FIXPVA
        173        60       FIXPVA
        174        60       FIXPVA
        175        60       FIXPVA
        176        60       FIXPVA
        177        60       FIXPVA
        178        60       FIXPVA
        179        60       FIXPVA
        180        60       FIXPVA
        181        60       FIXPVA
        182        60       FIXPVA
        183        60       FIXPVA
        184        60       FIXPVA
        185        60       FIXPVA
        186        60       FIXPVA
        187        60       FIXPVA
        188        60       FIXPVA
        189        60       FIXPVA
        190        60       FIXPVA
        191        60       FIXPVA
        192        60       FIXPVA
        193        60       FIXPVA
        194        60       FIXPVA
        195        60       FIXPVA
        196        60       FIXPVA
        197        60       FIXPVA
        198        60       FIXPVA
        199        60       FIXPVA
        200        60       FIXPVA
        201        60       FIXPVA
        202        60       FIXPVA
        203        60       FIXPVA
        204        60       FIXPVA
        205        60       FIXPVA
        206        60       FIXPVA
        207        60       FIXPVA
        208        60       FIXPVA
        209        60       FIXPVA
        210        60       FIXPVA
        211        60       FIXPVA
        212        60       FIXPVA
        213        60       FIXPVA
        214        60       FIXPVA
        215        60       FIXPVA
        216        60       FIXPVA
        217        60       FIXPVA
        218        60       FIXPVA
        219        60       FIXPVA
        220        60       FIXPVA
        221        60       FIXPVA
        222        60       FIXPVA
        223        60       FIXPVA
        224        60       FIXPVA
        225        60       FIXPVA
        226        60       FIXPVA
        227        60       FIXPVA
        228        60       FIXPVA
        229        60       FIXPVA
        230        60       FIXPVA
        231        60       FIXPVA
        232        60       FIXPVA
        233        60       FIXPVA
        234        60       FIXPVA
        235        60       FIXPVA
        236        60       FIXPVA
        237        60       FIXPVA
        238        60       FIXPVA
        239        60       FIXPVA
        240        60       FIXPVA
        241        60       FIXPVA
        242        60       FIXPVA
        243        60       FIXPVA
        244        60       FIXPVA
        245        60       FIXPVA
        246        60       FIXPVA
        247        60       FIXPVA
        248        60       FIXPVA
        249        60       FIXPVA
        250        60       FIXPVA
        251        60       FIXPVA
        252        60       FIXPVA
        253        60       FIXPVA
        254        60       FIXPVA
        255        60       FIXPVA
        256        60       FIXPVA
        257        60       FIXPVA

     ------------------------------
      FIXPVA TESSELLATION FOR PCM
         PEIFENG SU AND HUI LI
     UNIVERSITY OF NEBRASKA-LINCOLN
     ------------------------------


 PCM DIMENSIONS: MXSP=   257, MXTS=     10280, MEMORY=        105630

     INPUT FOR CAVITY DEFINITION 
     ---------------------------
   ATOM               COORDINATES                RADIUS       EPS
      1    -15.1990     -3.2220     -1.1280      0.0100     78.3900
      2    -14.5040     -3.7470     -0.6820      1.5900     78.3900
      3    -14.3370     -4.9490     -1.4480      1.7700     78.3900
      4    -14.1530     -4.6820     -2.5130      0.0100     78.3900
      5    -15.2750     -5.5460     -1.4000      0.0100     78.3900
      6    -13.1760     -5.8130     -0.9490      1.7700     78.3900
      7    -13.0990     -6.7560     -1.5340      0.0100     78.3900
      8    -11.9220     -5.0900     -1.1200      1.5900     78.3900
      9    -11.0740     -5.3540     -0.0150      1.7700     78.3900
     10    -10.1170     -5.7560     -0.4330      0.0100     78.3900
     11    -10.7810     -4.1300      0.7490      1.6800     78.3900
     12     -9.7520     -3.9620      1.6360      1.7700     78.3900
     13     -6.9590     -5.2050      3.2610      1.6800     78.3900
     14     -6.9320     -6.1530      2.9560      0.0100     78.3900
     15     -6.2910     -4.8900      3.9400      0.0100     78.3900
     16     -8.8500     -4.8960      1.9820      1.6800     78.3900
     17     -7.9350     -4.4290      2.8270      1.7700     78.3900
     18     -7.9290     -3.1380      3.2880      1.6800     78.3900
     19     -7.2040     -2.8690      3.9340      0.0100     78.3900
     20     -8.8410     -2.1480      2.9440      1.7700     78.3900
     21     -8.7520     -1.0000      3.3940      1.5900     78.3900
     22     -9.8340     -2.6470      2.0570      1.7700     78.3900
     23    -10.9180     -2.0050      1.4670      1.6800     78.3900
     24    -11.4600     -2.9310      0.7060      1.7700     78.3900
     25    -12.3400     -2.7950      0.0710      0.0100     78.3900
     26    -11.7390     -6.4220      0.8250      1.7700     78.3900
     27    -11.5060     -6.3180      1.9040      0.0100     78.3900
     28    -11.3340     -7.6990      0.3730      1.5900     78.3900
     29    -11.7960     -8.3440      0.9210      0.0100     78.3900
     30    -13.2180     -6.1650      0.5440      1.7700     78.3900
     31    -13.5500     -5.2410      1.0750      0.0100     78.3900
     32    -14.1020     -7.2950      0.7620      1.5900     78.3900
     33    -14.7850     -7.4400      2.1860      2.1000     78.3900
     34    -15.3490     -6.1350      2.5950      1.5900     78.3900
     35    -15.7250     -8.5850      2.1610      1.5900     78.3900
     36    -13.5820     -7.7990      3.1320      1.5900     78.3900
     37    -12.9300     -9.0890      3.0450      1.7700     78.3900
     38    -12.5640     -9.2920      2.0170      0.0100     78.3900
     39    -13.6310     -9.9110      3.3210      0.0100     78.3900
     40    -11.7160     -9.1730      3.9800      1.7700     78.3900
     41    -11.2020    -10.1520      3.8710      0.0100     78.3900
     42    -10.7490     -8.1450      3.6370      1.5900     78.3900
     43    -10.1350     -7.6680      4.8270      1.7700     78.3900
     44     -9.0440     -7.8540      4.6920      0.0100     78.3900
     45    -10.3530     -6.2120      5.0460      1.6800     78.3900
     46    -11.4310     -5.5820      4.4700      1.7700     78.3900
     47    -12.0770     -6.2150      3.8610      0.0100     78.3900
     48    -11.6370     -4.2670      4.6230      1.7700     78.3900
     49    -12.4670     -3.7470      4.1470      0.0100     78.3900
     50     -9.4900     -5.4910      5.8670      1.7700     78.3900
     51     -8.5500     -6.0790      6.4240      1.5900     78.3900
     52     -9.6770     -4.1600      6.0250      1.6800     78.3900
     53    -10.7100     -3.5440      5.4260      1.7700     78.3900
     54    -10.8550     -2.2320      5.5930      1.6800     78.3900
     55    -10.2190     -1.7470      6.2000      0.0100     78.3900
     56    -11.5790     -1.7100      5.1420      0.0100     78.3900
     57    -10.6380     -8.5210      5.9780      1.7700     78.3900
     58    -10.7250     -7.9460      6.9190      0.0100     78.3900
     59     -9.7830     -9.6320      6.1720      1.5900     78.3900
     60    -10.2130    -10.2180      6.8150      0.0100     78.3900
     61    -12.0070     -8.9540      5.4700      1.7700     78.3900
     62    -12.7260     -8.1100      5.5370      0.0100     78.3900
     63    -12.5220    -10.1710      6.0540      1.5900     78.3900
     64    -13.3270    -10.1080      7.4040      2.1000     78.3900
     65    -14.3760     -9.0770      7.2720      1.5900     78.3900
     66    -13.7680    -11.4850      7.7330      1.5900     78.3900
     67    -12.2760     -9.6450      8.4760      1.5900     78.3900
     68    -12.6950     -9.0400      9.7280      1.7700     78.3900
     69    -12.7820     -9.8220     10.5170      0.0100     78.3900
     70    -13.6940     -8.5450      9.6410      0.0100     78.3900
     71    -11.7040     -7.9660     10.2230      1.7700     78.3900
     72    -10.8050     -8.4380     10.6770      0.0100     78.3900
     73    -11.2340     -7.1630      9.1010      1.5900     78.3900
     74    -11.1970     -5.7990      9.4550      1.7700     78.3900
     75    -10.1660     -5.4490      9.2160      0.0100     78.3900
     76    -12.1910     -5.0050      8.6800      1.6800     78.3900
     77    -13.2080     -5.6190      7.9780      1.7700     78.3900
     78    -13.2450     -6.7110      8.0420      0.0100     78.3900
     79    -12.0400     -3.6370      8.6510      1.7700     78.3900
     80    -11.1360     -3.0530      9.2400      1.5900     78.3900
     81    -12.9630     -2.9690      7.8890      1.6800     78.3900
     82    -12.8390     -1.9730      7.8270      0.0100     78.3900
     83    -13.9600     -3.5190      7.1120      1.7700     78.3900
     84    -14.6550     -2.8060      6.3940      1.5900     78.3900
     85    -14.0760     -4.9410      7.2170      1.7700     78.3900
     86    -14.8410     -5.4470      6.6330      0.0100     78.3900
     87    -11.4190     -5.7310     10.9540      1.7700     78.3900
     88    -11.9210     -4.7890     11.2680      0.0100     78.3900
     89    -10.1860     -5.8790     11.6350      1.5900     78.3900
     90    -10.3970     -6.0020     12.5750      0.0100     78.3900
     91    -12.3110     -6.9370     11.1970      1.7700     78.3900
     92    -13.3470     -6.7170     10.8530      0.0100     78.3900
     93    -12.2720     -7.4490     12.5450      1.5900     78.3900
     94    -13.1470     -6.7940     13.6780      2.1000     78.3900
     95    -14.5580     -6.9550     13.2520      1.5900     78.3900
     96    -12.7510     -7.3910     14.9720      1.5900     78.3900
     97    -12.7570     -5.2680     13.7110      1.5900     78.3900
     98    -13.7690     -4.2750     14.0380      1.7700     78.3900
     99    -14.0700     -4.3570     15.1060      0.0100     78.3900
    100    -14.6970     -4.4220     13.4410      0.0100     78.3900
    101    -13.2670     -2.8350     13.7940      1.7700     78.3900
    102    -12.3770     -2.6350     14.4240      0.0100     78.3900
    103    -12.8420     -2.6580     12.4060      1.5900     78.3900
    104    -13.2540     -1.3800     11.9400      1.7700     78.3900
    105    -12.3450     -0.9150     11.5010      0.0100     78.3900
    106    -14.3080     -1.4510     10.8890      1.6800     78.3900
    107    -15.1230     -2.5140     10.5410      1.7700     78.3900
    108    -16.1110     -5.7890     11.0640      1.6800     78.3900
    109    -16.7760     -6.4460     10.7130      0.0100     78.3900
    110    -15.5380     -6.0410     11.8510      0.0100     78.3900
    111    -15.1270     -3.7310     11.1040      1.6800     78.3900
    112    -16.0010     -4.5610     10.5840      1.7700     78.3900
    113    -16.8200     -4.2160      9.5420      1.6800     78.3900
    114    -17.4390     -4.9160      9.1710      0.0100     78.3900
    115    -16.8410     -2.9700      8.9170      1.7700     78.3900
    116    -17.6120     -2.7350      7.9820      1.5900     78.3900
    117    -15.9090     -2.0650      9.5040      1.7700     78.3900
    118    -15.6090     -0.7440      9.1920      1.6800     78.3900
    119    -14.6520     -0.4220     10.0350      1.7700     78.3900
    120    -14.1690      0.5570     10.0870      0.0100     78.3900
    121    -13.6880     -0.5950     13.1570      1.7700     78.3900
    122    -14.4470      0.1850     12.9330      0.0100     78.3900
    123    -12.5370     -0.0250     13.7680      1.5900     78.3900
    124    -12.2420      0.8030     13.3290      0.0100     78.3900
    125    -14.2840     -1.7010     14.0360      1.7700     78.3900
    126    -15.2600     -2.0500     13.6270      0.0100     78.3900
    127    -14.3810     -1.4050     15.4520      1.5900     78.3900
    128    -15.2750     -0.1950     15.9440      2.1000     78.3900
    129    -16.5730     -0.2300     15.2310      1.5900     78.3900
    130    -15.3330     -0.2310     17.4250      1.5900     78.3900
    131    -14.4960      1.1050     15.5320      1.5900     78.3900
    132    -15.0770      2.4140     15.4090      1.7700     78.3900
    133    -16.0250      2.5160     15.9850      0.0100     78.3900
    134    -15.3160      2.6010     14.3390      0.0100     78.3900
    135    -14.0880      3.4960     15.8760      1.7700     78.3900
    136    -14.4900      4.5140     15.6940      0.0100     78.3900
    137    -13.8890      3.3640     17.3140      1.5900     78.3900
    138    -12.5250      3.6040     17.6280      1.7700     78.3900
    139    -12.5160      4.4310     18.3750      0.0100     78.3900
    140    -11.8970      2.4210     18.2250      1.6800     78.3900
    141    -10.5530      1.0980     19.3600      1.7700     78.3900
    142    -11.5720      0.2880     18.8740      1.6800     78.3900
    143    -12.3410      1.1190     18.2070      1.7700     78.3900
    144    -13.2600      0.8480     17.6860      0.0100     78.3900
    145     -8.6150      1.8720     20.4820      1.6800     78.3900
    146     -8.9100      3.0810     19.9940      1.7700     78.3900
    147     -8.2210      3.8800     20.2810      0.0100     78.3900
    148     -9.9580      3.4630     19.2540      1.6800     78.3900
    149    -10.7410      2.4110     18.9620      1.7700     78.3900
    150     -9.4320      0.8320     20.1750      1.7700     78.3900
    151     -9.1440     -0.3870     20.6720      1.6800     78.3900
    152     -9.6790     -1.1950     20.4160      0.0100     78.3900
    153     -8.3190     -0.5240     21.2290      0.0100     78.3900
    154    -11.8230      4.0680     16.3640      1.7700     78.3900
    155    -10.7700      3.7150     16.3040      0.0100     78.3900
    156    -11.8670      5.4830     16.2770      1.5900     78.3900
    157    -11.5760      5.7230     15.3830      0.0100     78.3900
    158    -12.6680      3.4070     15.2810      1.7700     78.3900
    159    -12.4210      2.3240     15.2220      0.0100     78.3900
    160    -12.6230      4.0650     13.9960      1.5900     78.3900
    161    -11.5370      3.6670     12.9240      2.1000     78.3900
    162    -11.5110      2.1930     12.7970      1.5900     78.3900
    163    -11.8250      4.4150     11.6810      1.5900     78.3900
    164    -10.1820      4.2270     13.5210      1.5900     78.3900
    165     -8.9140      3.9110     12.8890      1.7700     78.3900
    166     -8.4250      4.8450     12.5230      0.0100     78.3900
    167     -9.0240      3.2470     11.9950      0.0100     78.3900
    168     -7.9650      3.2130     13.8750      1.7700     78.3900
    169     -7.6890      3.8990     14.7020      0.0100     78.3900
    170     -8.6330      2.0720     14.4920      1.5900     78.3900
    171     -7.7460      0.9730     14.5670      1.7700     78.3900
    172     -7.7640      0.6470     15.6310      0.0100     78.3900
    173     -8.1560     -0.1690     13.6980      1.6800     78.3900
    174     -9.0250      0.0390     12.6480      1.7700     78.3900
    175     -9.4190      1.0510     12.5500      0.0100     78.3900
    176     -9.4000     -0.9650     11.8450      1.7700     78.3900
    177    -10.0800     -0.8260     11.0070      0.0100     78.3900
    178     -7.6540     -1.4470     13.9380      1.7700     78.3900
    179     -6.8810     -1.6300     14.8920      1.5900     78.3900
    180     -8.0370     -2.4740     13.1460      1.6800     78.3900
    181     -8.8770     -2.2580     12.1190      1.7700     78.3900
    182     -9.2210     -3.2640     11.3310      1.6800     78.3900
    183     -9.0860     -4.1990     11.6580      0.0100     78.3900
    184     -9.9500     -3.1450     10.6540      0.0100     78.3900
    185     -6.3650      1.4890     14.2340      1.7700     78.3900
    186     -5.7560      0.7070     13.7580      0.0100     78.3900
    187     -5.7030      1.9440     15.4020      1.5900     78.3900
    188     -4.9240      2.4470     15.1180      0.0100     78.3900
    189     -6.6810      2.6260     13.2690      1.7700     78.3900
    190     -6.9870      2.2160     12.2800      0.0100     78.3900
    191     -5.6470      3.6320     13.1830      1.5900     78.3900
    192     -4.8260      3.8380     11.8530      2.1000     78.3900
    193     -5.7650      4.1690     10.7590      1.5900     78.3900
    194     -3.7340      4.8020     12.1140      1.5900     78.3900
    195     -4.1880      2.4410     11.5330      1.5900     78.3900
    196     -3.1640      1.8700     12.3710      1.7700     78.3900
    197     -3.3980      2.0060     13.4550      0.0100     78.3900
    198     -2.1890      2.3720     12.1700      0.0100     78.3900
    199     -3.0180      0.3600     12.1200      1.7700     78.3900
    200     -2.2670     -0.0790     12.8130      0.0100     78.3900
    201     -4.2870     -0.3040     12.3740      1.5900     78.3900
    202     -4.5270     -1.2880     11.3880      1.7700     78.3900
    203     -4.7890     -2.2270     11.9280      0.0100     78.3900
    204     -5.6500     -0.9180     10.5080      1.6800     78.3900
    205     -6.3230     -1.7460      9.6540      1.7700     78.3900
    206     -6.8220     -4.8820      8.2890      1.6800     78.3900
    207     -6.1150     -5.4310      8.7300      0.0100     78.3900
    208     -7.4280     -5.3080      7.6090      0.0100     78.3900
    209     -6.0670     -3.0480      9.4560      1.6800     78.3900
    210     -6.9190     -3.6040      8.5990      1.7700     78.3900
    211     -7.9150     -2.9050      7.9670      1.6800     78.3900
    212     -8.5160     -3.4030      7.3290      0.0100     78.3900
    213     -8.1980     -1.5580      8.1450      1.7700     78.3900
    214     -9.1160     -0.9960      7.5380      1.5900     78.3900
    215     -7.3010     -0.9630      9.0690      1.7700     78.3900
    216     -7.2400      0.3380      9.5440      1.6800     78.3900
    217     -6.2450      0.3150     10.3940      1.7700     78.3900
    218     -5.9050      1.1560     10.9900      0.0100     78.3900
    219     -3.2330     -1.4720     10.6350      1.7700     78.3900
    220     -3.3950     -1.8090      9.5930      0.0100     78.3900
    221     -2.4130     -2.4050     11.3180      1.5900     78.3900
    222     -1.5530     -2.4000     10.8800      0.0100     78.3900
    223     -2.6530     -0.0580     10.6900      1.7700     78.3900
    224     -3.2230      0.6200     10.0120      0.0100     78.3900
    225     -1.2200      0.0250     10.5060      1.5900     78.3900
    226     -0.6580      0.3270      9.0670      2.1000     78.3900
    227     -1.4200      1.4400      8.4630      1.5900     78.3900
    228      0.8100      0.4810      9.1180      1.5900     78.3900
    229     -0.9790     -0.9840      8.2580      1.5900     78.3900
    230     -0.3210     -2.2250      8.6100      1.7700     78.3900
    231     -0.4620     -2.4800      9.6830      0.0100     78.3900
    232      0.7800     -2.1490      8.4340      0.0100     78.3900
    233     -0.8670     -3.3900      7.7760      1.7700     78.3900
    234     -0.3300     -4.3340      8.0250      0.0100     78.3900
    235     -2.2810     -3.6030      8.0580      1.5900     78.3900
    236     -2.9570     -3.9310      6.8480      1.7700     78.3900
    237     -3.4630     -4.9060      7.0360      0.0100     78.3900
    238     -3.9840     -2.9200      6.4680      1.6800     78.3900
    239     -3.9230     -1.6450      6.9780      1.7700     78.3900
    240     -3.1150     -1.4500      7.6780      0.0100     78.3900
    241     -4.8310     -0.7150      6.6590      1.7700     78.3900
    242     -4.8100      0.2890      7.0780      0.0100     78.3900
    243     -4.9880     -3.2460      5.5610      1.7700     78.3900
    244     -5.0140     -4.3840      5.0710      1.5900     78.3900
    245     -5.9150     -2.3210      5.2240      1.6800     78.3900
    246     -5.8590     -1.0840      5.7470      1.7700     78.3900
    247     -6.7950     -0.2000      5.4110      1.6800     78.3900
    248     -7.5160     -0.4670      4.7680      0.0100     78.3900
    249     -6.8290      0.7150      5.8140      0.0100     78.3900
    250     -1.8990     -4.1190      5.7700      1.7700     78.3900
    251     -2.2640     -3.8100      4.7670      0.0100     78.3900
    252     -1.4730     -5.4720      5.7380      1.5900     78.3900
    253     -0.6710     -5.5380      5.1910      0.0100     78.3900
    254     -0.8030     -3.1770      6.2600      1.7700     78.3900
    255     -1.0720     -2.1200      6.0350      0.0100     78.3900
    256      0.5140     -3.4870      5.7700      1.5900     78.3900
    257      0.5740     -3.2910      4.8170      0.0100     78.3900

 CREATION OF A NEW CAVITY WITH THE ORIGINAL SPHERE
 SIZES FOR THE COMPUTATION OF THE CAVITATION ENERGY.

     INPUT FOR CAVITY DEFINITION 
     ---------------------------
   ATOM               COORDINATES                RADIUS       EPS
      1    -15.1990     -3.2220     -1.1280      0.0100     78.3900
      2    -14.5040     -3.7470     -0.6820      1.5900     78.3900
      3    -14.3370     -4.9490     -1.4480      1.7700     78.3900
      4    -14.1530     -4.6820     -2.5130      0.0100     78.3900
      5    -15.2750     -5.5460     -1.4000      0.0100     78.3900
      6    -13.1760     -5.8130     -0.9490      1.7700     78.3900
      7    -13.0990     -6.7560     -1.5340      0.0100     78.3900
      8    -11.9220     -5.0900     -1.1200      1.5900     78.3900
      9    -11.0740     -5.3540     -0.0150      1.7700     78.3900
     10    -10.1170     -5.7560     -0.4330      0.0100     78.3900
     11    -10.7810     -4.1300      0.7490      1.6800     78.3900
     12     -9.7520     -3.9620      1.6360      1.7700     78.3900
     13     -6.9590     -5.2050      3.2610      1.6800     78.3900
     14     -6.9320     -6.1530      2.9560      0.0100     78.3900
     15     -6.2910     -4.8900      3.9400      0.0100     78.3900
     16     -8.8500     -4.8960      1.9820      1.6800     78.3900
     17     -7.9350     -4.4290      2.8270      1.7700     78.3900
     18     -7.9290     -3.1380      3.2880      1.6800     78.3900
     19     -7.2040     -2.8690      3.9340      0.0100     78.3900
     20     -8.8410     -2.1480      2.9440      1.7700     78.3900
     21     -8.7520     -1.0000      3.3940      1.5900     78.3900
     22     -9.8340     -2.6470      2.0570      1.7700     78.3900
     23    -10.9180     -2.0050      1.4670      1.6800     78.3900
     24    -11.4600     -2.9310      0.7060      1.7700     78.3900
     25    -12.3400     -2.7950      0.0710      0.0100     78.3900
     26    -11.7390     -6.4220      0.8250      1.7700     78.3900
     27    -11.5060     -6.3180      1.9040      0.0100     78.3900
     28    -11.3340     -7.6990      0.3730      1.5900     78.3900
     29    -11.7960     -8.3440      0.9210      0.0100     78.3900
     30    -13.2180     -6.1650      0.5440      1.7700     78.3900
     31    -13.5500     -5.2410      1.0750      0.0100     78.3900
     32    -14.1020     -7.2950      0.7620      1.5900     78.3900
     33    -14.7850     -7.4400      2.1860      2.1000     78.3900
     34    -15.3490     -6.1350      2.5950      1.5900     78.3900
     35    -15.7250     -8.5850      2.1610      1.5900     78.3900
     36    -13.5820     -7.7990      3.1320      1.5900     78.3900
     37    -12.9300     -9.0890      3.0450      1.7700     78.3900
     38    -12.5640     -9.2920      2.0170      0.0100     78.3900
     39    -13.6310     -9.9110      3.3210      0.0100     78.3900
     40    -11.7160     -9.1730      3.9800      1.7700     78.3900
     41    -11.2020    -10.1520      3.8710      0.0100     78.3900
     42    -10.7490     -8.1450      3.6370      1.5900     78.3900
     43    -10.1350     -7.6680      4.8270      1.7700     78.3900
     44     -9.0440     -7.8540      4.6920      0.0100     78.3900
     45    -10.3530     -6.2120      5.0460      1.6800     78.3900
     46    -11.4310     -5.5820      4.4700      1.7700     78.3900
     47    -12.0770     -6.2150      3.8610      0.0100     78.3900
     48    -11.6370     -4.2670      4.6230      1.7700     78.3900
     49    -12.4670     -3.7470      4.1470      0.0100     78.3900
     50     -9.4900     -5.4910      5.8670      1.7700     78.3900
     51     -8.5500     -6.0790      6.4240      1.5900     78.3900
     52     -9.6770     -4.1600      6.0250      1.6800     78.3900
     53    -10.7100     -3.5440      5.4260      1.7700     78.3900
     54    -10.8550     -2.2320      5.5930      1.6800     78.3900
     55    -10.2190     -1.7470      6.2000      0.0100     78.3900
     56    -11.5790     -1.7100      5.1420      0.0100     78.3900
     57    -10.6380     -8.5210      5.9780      1.7700     78.3900
     58    -10.7250     -7.9460      6.9190      0.0100     78.3900
     59     -9.7830     -9.6320      6.1720      1.5900     78.3900
     60    -10.2130    -10.2180      6.8150      0.0100     78.3900
     61    -12.0070     -8.9540      5.4700      1.7700     78.3900
     62    -12.7260     -8.1100      5.5370      0.0100     78.3900
     63    -12.5220    -10.1710      6.0540      1.5900     78.3900
     64    -13.3270    -10.1080      7.4040      2.1000     78.3900
     65    -14.3760     -9.0770      7.2720      1.5900     78.3900
     66    -13.7680    -11.4850      7.7330      1.5900     78.3900
     67    -12.2760     -9.6450      8.4760      1.5900     78.3900
     68    -12.6950     -9.0400      9.7280      1.7700     78.3900
     69    -12.7820     -9.8220     10.5170      0.0100     78.3900
     70    -13.6940     -8.5450      9.6410      0.0100     78.3900
     71    -11.7040     -7.9660     10.2230      1.7700     78.3900
     72    -10.8050     -8.4380     10.6770      0.0100     78.3900
     73    -11.2340     -7.1630      9.1010      1.5900     78.3900
     74    -11.1970     -5.7990      9.4550      1.7700     78.3900
     75    -10.1660     -5.4490      9.2160      0.0100     78.3900
     76    -12.1910     -5.0050      8.6800      1.6800     78.3900
     77    -13.2080     -5.6190      7.9780      1.7700     78.3900
     78    -13.2450     -6.7110      8.0420      0.0100     78.3900
     79    -12.0400     -3.6370      8.6510      1.7700     78.3900
     80    -11.1360     -3.0530      9.2400      1.5900     78.3900
     81    -12.9630     -2.9690      7.8890      1.6800     78.3900
     82    -12.8390     -1.9730      7.8270      0.0100     78.3900
     83    -13.9600     -3.5190      7.1120      1.7700     78.3900
     84    -14.6550     -2.8060      6.3940      1.5900     78.3900
     85    -14.0760     -4.9410      7.2170      1.7700     78.3900
     86    -14.8410     -5.4470      6.6330      0.0100     78.3900
     87    -11.4190     -5.7310     10.9540      1.7700     78.3900
     88    -11.9210     -4.7890     11.2680      0.0100     78.3900
     89    -10.1860     -5.8790     11.6350      1.5900     78.3900
     90    -10.3970     -6.0020     12.5750      0.0100     78.3900
     91    -12.3110     -6.9370     11.1970      1.7700     78.3900
     92    -13.3470     -6.7170     10.8530      0.0100     78.3900
     93    -12.2720     -7.4490     12.5450      1.5900     78.3900
     94    -13.1470     -6.7940     13.6780      2.1000     78.3900
     95    -14.5580     -6.9550     13.2520      1.5900     78.3900
     96    -12.7510     -7.3910     14.9720      1.5900     78.3900
     97    -12.7570     -5.2680     13.7110      1.5900     78.3900
     98    -13.7690     -4.2750     14.0380      1.7700     78.3900
     99    -14.0700     -4.3570     15.1060      0.0100     78.3900
    100    -14.6970     -4.4220     13.4410      0.0100     78.3900
    101    -13.2670     -2.8350     13.7940      1.7700     78.3900
    102    -12.3770     -2.6350     14.4240      0.0100     78.3900
    103    -12.8420     -2.6580     12.4060      1.5900     78.3900
    104    -13.2540     -1.3800     11.9400      1.7700     78.3900
    105    -12.3450     -0.9150     11.5010      0.0100     78.3900
    106    -14.3080     -1.4510     10.8890      1.6800     78.3900
    107    -15.1230     -2.5140     10.5410      1.7700     78.3900
    108    -16.1110     -5.7890     11.0640      1.6800     78.3900
    109    -16.7760     -6.4460     10.7130      0.0100     78.3900
    110    -15.5380     -6.0410     11.8510      0.0100     78.3900
    111    -15.1270     -3.7310     11.1040      1.6800     78.3900
    112    -16.0010     -4.5610     10.5840      1.7700     78.3900
    113    -16.8200     -4.2160      9.5420      1.6800     78.3900
    114    -17.4390     -4.9160      9.1710      0.0100     78.3900
    115    -16.8410     -2.9700      8.9170      1.7700     78.3900
    116    -17.6120     -2.7350      7.9820      1.5900     78.3900
    117    -15.9090     -2.0650      9.5040      1.7700     78.3900
    118    -15.6090     -0.7440      9.1920      1.6800     78.3900
    119    -14.6520     -0.4220     10.0350      1.7700     78.3900
    120    -14.1690      0.5570     10.0870      0.0100     78.3900
    121    -13.6880     -0.5950     13.1570      1.7700     78.3900
    122    -14.4470      0.1850     12.9330      0.0100     78.3900
    123    -12.5370     -0.0250     13.7680      1.5900     78.3900
    124    -12.2420      0.8030     13.3290      0.0100     78.3900
    125    -14.2840     -1.7010     14.0360      1.7700     78.3900
    126    -15.2600     -2.0500     13.6270      0.0100     78.3900
    127    -14.3810     -1.4050     15.4520      1.5900     78.3900
    128    -15.2750     -0.1950     15.9440      2.1000     78.3900
    129    -16.5730     -0.2300     15.2310      1.5900     78.3900
    130    -15.3330     -0.2310     17.4250      1.5900     78.3900
    131    -14.4960      1.1050     15.5320      1.5900     78.3900
    132    -15.0770      2.4140     15.4090      1.7700     78.3900
    133    -16.0250      2.5160     15.9850      0.0100     78.3900
    134    -15.3160      2.6010     14.3390      0.0100     78.3900
    135    -14.0880      3.4960     15.8760      1.7700     78.3900
    136    -14.4900      4.5140     15.6940      0.0100     78.3900
    137    -13.8890      3.3640     17.3140      1.5900     78.3900
    138    -12.5250      3.6040     17.6280      1.7700     78.3900
    139    -12.5160      4.4310     18.3750      0.0100     78.3900
    140    -11.8970      2.4210     18.2250      1.6800     78.3900
    141    -10.5530      1.0980     19.3600      1.7700     78.3900
    142    -11.5720      0.2880     18.8740      1.6800     78.3900
    143    -12.3410      1.1190     18.2070      1.7700     78.3900
    144    -13.2600      0.8480     17.6860      0.0100     78.3900
    145     -8.6150      1.8720     20.4820      1.6800     78.3900
    146     -8.9100      3.0810     19.9940      1.7700     78.3900
    147     -8.2210      3.8800     20.2810      0.0100     78.3900
    148     -9.9580      3.4630     19.2540      1.6800     78.3900
    149    -10.7410      2.4110     18.9620      1.7700     78.3900
    150     -9.4320      0.8320     20.1750      1.7700     78.3900
    151     -9.1440     -0.3870     20.6720      1.6800     78.3900
    152     -9.6790     -1.1950     20.4160      0.0100     78.3900
    153     -8.3190     -0.5240     21.2290      0.0100     78.3900
    154    -11.8230      4.0680     16.3640      1.7700     78.3900
    155    -10.7700      3.7150     16.3040      0.0100     78.3900
    156    -11.8670      5.4830     16.2770      1.5900     78.3900
    157    -11.5760      5.7230     15.3830      0.0100     78.3900
    158    -12.6680      3.4070     15.2810      1.7700     78.3900
    159    -12.4210      2.3240     15.2220      0.0100     78.3900
    160    -12.6230      4.0650     13.9960      1.5900     78.3900
    161    -11.5370      3.6670     12.9240      2.1000     78.3900
    162    -11.5110      2.1930     12.7970      1.5900     78.3900
    163    -11.8250      4.4150     11.6810      1.5900     78.3900
    164    -10.1820      4.2270     13.5210      1.5900     78.3900
    165     -8.9140      3.9110     12.8890      1.7700     78.3900
    166     -8.4250      4.8450     12.5230      0.0100     78.3900
    167     -9.0240      3.2470     11.9950      0.0100     78.3900
    168     -7.9650      3.2130     13.8750      1.7700     78.3900
    169     -7.6890      3.8990     14.7020      0.0100     78.3900
    170     -8.6330      2.0720     14.4920      1.5900     78.3900
    171     -7.7460      0.9730     14.5670      1.7700     78.3900
    172     -7.7640      0.6470     15.6310      0.0100     78.3900
    173     -8.1560     -0.1690     13.6980      1.6800     78.3900
    174     -9.0250      0.0390     12.6480      1.7700     78.3900
    175     -9.4190      1.0510     12.5500      0.0100     78.3900
    176     -9.4000     -0.9650     11.8450      1.7700     78.3900
    177    -10.0800     -0.8260     11.0070      0.0100     78.3900
    178     -7.6540     -1.4470     13.9380      1.7700     78.3900
    179     -6.8810     -1.6300     14.8920      1.5900     78.3900
    180     -8.0370     -2.4740     13.1460      1.6800     78.3900
    181     -8.8770     -2.2580     12.1190      1.7700     78.3900
    182     -9.2210     -3.2640     11.3310      1.6800     78.3900
    183     -9.0860     -4.1990     11.6580      0.0100     78.3900
    184     -9.9500     -3.1450     10.6540      0.0100     78.3900
    185     -6.3650      1.4890     14.2340      1.7700     78.3900
    186     -5.7560      0.7070     13.7580      0.0100     78.3900
    187     -5.7030      1.9440     15.4020      1.5900     78.3900
    188     -4.9240      2.4470     15.1180      0.0100     78.3900
    189     -6.6810      2.6260     13.2690      1.7700     78.3900
    190     -6.9870      2.2160     12.2800      0.0100     78.3900
    191     -5.6470      3.6320     13.1830      1.5900     78.3900
    192     -4.8260      3.8380     11.8530      2.1000     78.3900
    193     -5.7650      4.1690     10.7590      1.5900     78.3900
    194     -3.7340      4.8020     12.1140      1.5900     78.3900
    195     -4.1880      2.4410     11.5330      1.5900     78.3900
    196     -3.1640      1.8700     12.3710      1.7700     78.3900
    197     -3.3980      2.0060     13.4550      0.0100     78.3900
    198     -2.1890      2.3720     12.1700      0.0100     78.3900
    199     -3.0180      0.3600     12.1200      1.7700     78.3900
    200     -2.2670     -0.0790     12.8130      0.0100     78.3900
    201     -4.2870     -0.3040     12.3740      1.5900     78.3900
    202     -4.5270     -1.2880     11.3880      1.7700     78.3900
    203     -4.7890     -2.2270     11.9280      0.0100     78.3900
    204     -5.6500     -0.9180     10.5080      1.6800     78.3900
    205     -6.3230     -1.7460      9.6540      1.7700     78.3900
    206     -6.8220     -4.8820      8.2890      1.6800     78.3900
    207     -6.1150     -5.4310      8.7300      0.0100     78.3900
    208     -7.4280     -5.3080      7.6090      0.0100     78.3900
    209     -6.0670     -3.0480      9.4560      1.6800     78.3900
    210     -6.9190     -3.6040      8.5990      1.7700     78.3900
    211     -7.9150     -2.9050      7.9670      1.6800     78.3900
    212     -8.5160     -3.4030      7.3290      0.0100     78.3900
    213     -8.1980     -1.5580      8.1450      1.7700     78.3900
    214     -9.1160     -0.9960      7.5380      1.5900     78.3900
    215     -7.3010     -0.9630      9.0690      1.7700     78.3900
    216     -7.2400      0.3380      9.5440      1.6800     78.3900
    217     -6.2450      0.3150     10.3940      1.7700     78.3900
[...]
   205    7   6.0   0.00    0.0    0.000000    0.710801    0.718425
   206    7   7.0  12.86   25.2   -0.091138   -0.975378   -1.054202
   207    7   1.0   0.00    0.0    0.000000    0.443332    0.439308
   208    7   1.0   0.00    0.0    0.000000    0.474526    0.522422
   209    7   7.0   5.07    9.9    0.074531   -0.751020   -0.755605
   210    7   6.0   0.00    0.0    0.000000    0.977600    0.985486
   211    7   7.0   0.00    0.0    0.000005   -0.929553   -1.020853
   212    7   1.0   0.00    0.0    0.000000    0.482957    0.545794
   213    7   6.0   0.00    0.0    0.000000    0.889607    0.898515
   214    7   8.0   9.83   21.5    0.160466   -0.766634   -0.757340
   215    7   6.0   0.00    0.0    0.000000   -0.055901   -0.050649
   216    7   7.0   9.06   17.7    0.160054   -0.595943   -0.609539
   217    7   6.0   2.83    5.0    0.019065    0.288765    0.262335
   218    7   1.0   0.00    0.0    0.000000    0.257524    0.296576
   219    7   6.0   0.00    0.0    0.000000    0.140519    0.103331
   220    7   1.0   0.00    0.0    0.000000    0.193785    0.232574
   221    7   8.0  17.04   37.3    0.094099   -0.824897   -0.845142
   222    7   1.0   0.00    0.0    0.000000    0.495929    0.523779
   223    7   6.0   0.94    1.7   -0.019489    0.128434    0.093813
   224    7   1.0   0.00    0.0    0.000000    0.251779    0.254241
   225    7   8.0   4.45    9.7    0.061265   -0.793767   -0.800767
   226    7  15.0   9.58   12.0    0.138500    1.601180    1.654165
   227    7   8.0  14.55   31.8    0.312273   -0.894152   -0.892772
   228    7   8.0  18.06   39.5    0.358288   -0.889526   -0.885256
   229    7   8.0   2.04    4.5    0.024655   -0.973685   -0.787625
   230    8   6.0  12.81   22.6   -0.089136    0.223236   -0.022749
   231    8   1.0   0.00    0.0    0.000000    0.125597    0.156730
   232    8   1.0   0.00    0.0    0.000000    0.247630    0.231687
   233    8   6.0   6.17   10.9   -0.049434    0.091751    0.153069
   234    8   1.0   0.00    0.0    0.000000    0.255798    0.227448
   235    8   8.0   4.16    9.1    0.052952   -0.727232   -0.737702
   236    8   6.0   3.70    6.5   -0.038806    0.426443    0.425597
   237    8   1.0   0.00    0.0    0.000000    0.250942    0.240923
   238    8   7.0   0.71    1.4   -0.004455   -0.824902   -0.834815
   239    8   6.0   2.87    5.1    0.000221    0.202007    0.179702
   240    8   1.0   0.00    0.0    0.000000    0.299620    0.328762
   241    8   6.0   7.92   14.0   -0.042450   -0.394839   -0.404753
   242    8   1.0   0.00    0.0    0.000000    0.274747    0.280855
   243    8   6.0   1.93    3.4   -0.004090    1.065991    1.075985
   244    8   8.0   8.76   19.1    0.138306   -0.797577   -0.769919
   245    8   7.0   3.40    6.7    0.026856   -0.868559   -0.863924
   246    8   6.0   2.16    3.8   -0.001152    0.718459    0.730538
   247    8   7.0  15.47   30.3   -0.095449   -0.948510   -0.998574
   248    8   1.0   0.00    0.0    0.000000    0.460860    0.498740
   249    8   1.0   0.00    0.0    0.000000    0.452368    0.452740
   250    8   6.0   5.67   10.0   -0.048900    0.121437    0.122376
   251    8   1.0   0.00    0.0    0.000000    0.224697    0.224795
   252    8   8.0  20.04   43.8    0.049702   -0.838026   -0.841811
   253    8   1.0   0.00    0.0    0.000000    0.501513    0.503220
   254    8   6.0   5.26    9.3   -0.057107    0.157558    0.142589
   255    8   1.0   0.00    0.0    0.000000    0.222417    0.226978
   256    8   8.0  22.63   49.5   -0.036712   -0.851031   -0.853745
   257    8   1.0   0.00    0.0    0.000000    0.510173    0.510956

 Done with FMO properties.
 CPU     0: STEP CPU TIME=     0.00 TOTAL CPU TIME=      13904.4 (    231.7 MIN)
 TOTAL WALL CLOCK TIME=      31400.6 SECONDS, CPU UTILIZATION IS    44.28%
 CPU     0: STEP CPU TIME=     0.00 TOTAL CPU TIME=      13904.4 (    231.7 MIN)
 TOTAL WALL CLOCK TIME=      31400.7 SECONDS, CPU UTILIZATION IS    44.28%

 Total timing statistics in pairs (CPU,wall) for each rank, sec

    Rank   total     SCF    corr     DFT    CPHF     EFP    solv     ESP    geom
 -------------------------------------------------------------------------------
       1   13904.4   3790.0   5535.0      0.0    0.0   0.0   93.0  4302.2    0.0
       1   31400.8   8031.3  13930.8      0.0    0.0   0.0  284.5  8665.3    0.0
       2   13980.3   3778.5   5606.5      0.0    0.0   0.0   93.4  4311.7    0.0
       2   31400.8   8025.6  13934.6      0.0    0.0   0.0  284.5  8664.7    0.0
       3   13838.0   3759.1   5483.1      0.0    0.0   0.0   93.7  4313.8    0.0
       3   31400.8   8025.6  13934.6      0.0    0.0   0.0  284.8  8664.6    0.0
       4   13587.4   3767.6   5321.8      0.0    0.0   0.0   93.2  4220.2    0.0
       4   31400.8   8026.1  13934.6      0.0    0.0   0.0  284.0  8664.5    0.0
       5   13739.4   3755.1   5390.7      0.0    0.0   0.0   92.6  4328.4    0.0
       5   31400.8   8026.1  13934.6      0.0    0.0   0.0  284.1  8664.9    0.0
       6   13565.0   3779.4   5137.5      0.0    0.0   0.0   92.2  4383.2    0.0
       6   31400.8   8026.3  13934.5      0.0    0.0   0.0  283.6  8664.8    0.0
       7   13971.3   3772.5   5642.3      0.0    0.0   0.0   92.5  4279.9    0.0
       7   31400.8   8026.3  13934.6      0.0    0.0   0.0  283.8  8664.8    0.0
       8   13689.5   3779.6   5392.3      0.0    0.0   0.0   92.2  4250.1    0.0
       8   31400.8   8026.6  13934.5      0.0    0.0   0.0  283.1  8664.7    0.0
       9   13992.5   3786.5   5626.7      0.0    0.0   0.0   91.1  4304.3    0.0
       9   31400.8   8026.6  13934.5      0.0    0.0   0.0  283.4  8665.0    0.0
      10   14109.2   3751.2   5814.4      0.0    0.0   0.0   91.8  4281.7    0.0
      10   31400.8   8026.2  13934.5      0.0    0.0   0.0  283.4  8664.9    0.0
      11   13396.5   3712.3   5188.6      0.0    0.0   0.0   90.9  4229.9    0.0
      11   31400.8   8026.8  13934.5      0.0    0.0   0.0  283.0  8664.9    0.0
      12   13662.5   3745.3   5410.7      0.0    0.0   0.0   91.2  4235.3    0.0
      12   31400.9   8026.8  13934.5      0.0    0.0   0.0  282.6  8664.9    0.0
      13   13680.5   3788.8   5432.2      0.0    0.0   0.0   91.0  4188.7    0.0
      13   31400.8   8027.2  13934.5      0.0    0.0   0.0  282.8  8664.9    0.0
      14   13930.1   3776.5   5595.7      0.0    0.0   0.0   91.4  4287.1    0.0
      14   31400.8   8027.2  13934.5      0.0    0.0   0.0  282.5  8664.9    0.0
      15   13686.8   3736.7   5513.3      0.0    0.0   0.0   91.0  4168.5    0.0
      15   31400.8   8027.0  13934.5      0.0    0.0   0.0  282.7  8664.8    0.0
      16   13234.9   3710.4   5056.9      0.0    0.0   0.0   90.8  4208.1    0.0
      16   31400.8   8027.2  13934.7      0.0    0.0   0.0  282.0  8664.8    0.0
averaged   13748.0   3761.8   5446.7      0.0    0.0   0.0   92.0  4268.3    0.0
averaged   31400.8   8026.8  13934.3      0.0    0.0   0.0  283.4  8664.8    0.0

  FMO  timing statistics in pairs (CPU,wall) for each rank, sec

    Rank  FMOini FMOscf1  FMOdm1 FMOsyn1 FMOscf2  FMOes2 FMOsyn2 FMOscf3 FMOsyn3
 -------------------------------------------------------------------------------
       1    1.7    5245.7    0.2    0.0    8532.3     124.5    0.0    0.0    0.0
       1    4.1   10934.9    0.4    0.0   20204.7     256.4    0.0    0.0    0.0
       2    1.2    5232.8    0.1    0.0    8612.4     133.7    0.0    0.0    0.0
       2    4.1   10934.9    0.4    0.0   20206.0     255.1    0.0    0.0    0.0
       3    1.4    5251.3    0.1    0.0    8454.0     131.2    0.0    0.0    0.0
       3    4.1   10934.9    0.4    0.0   20203.6     257.5    0.0    0.0    0.0
       4    1.2    5246.5    0.1    0.0    8210.8     128.8    0.0    0.0    0.0
       4    4.1   10934.9    0.4    0.0   20206.8     254.3    0.0    0.0    0.0
       5    1.5    5261.2    0.1    0.0    8360.8     115.8    0.0    0.0    0.0
       5    4.1   10934.9    0.4    0.0   20205.9     255.2    0.0    0.0    0.0
       6    1.2    5262.5    0.1    0.0    8183.5     117.6    0.0    0.0    0.0
       6    4.1   10934.9    0.4    0.0   20206.0     255.1    0.0    0.0    0.0
       7    1.4    5228.2    0.1    0.0    8613.6     128.0    0.0    0.0    0.0
       7    4.1   10934.9    0.4    0.0   20207.3     253.8    0.0    0.0    0.0
       8    1.2    5246.7    0.1    0.0    8320.7     120.9    0.0    0.0    0.0
       8    4.1   10934.9    0.4    0.0   20205.9     255.2    0.0    0.0    0.0
       9    1.4    5216.8    0.2    0.0    8646.0     128.0    0.0    0.0    0.0
       9    4.1   10934.9    0.4    0.0   20207.4     253.7    0.0    0.0    0.0
      10    1.1    5191.8    0.1    0.0    8800.3     115.9    0.0    0.0    0.0
      10    4.1   10934.9    0.4    0.0   20206.0     255.1    0.0    0.0    0.0
      11    1.2    5172.5    0.1    0.0    8102.2     120.5    0.0    0.0    0.0
      11    4.1   10934.9    0.4    0.0   20205.9     255.2    0.0    0.0    0.0
      12    1.1    5201.7    0.0    0.0    8333.6     126.1    0.0    0.0    0.0
      12    4.1   10934.9    0.4    0.0   20208.7     252.4    0.0    0.0    0.0
      13    1.3    5177.7    0.2    0.0    8377.1     124.1    0.0    0.0    0.0
      13    4.1   10934.9    0.4    0.0   20205.8     255.3    0.0    0.0    0.0
      14    1.1    5202.8    0.0    0.0    8600.8     125.4    0.0    0.0    0.0
      14    4.1   10934.9    0.4    0.0   20205.4     255.7    0.0    0.0    0.0
      15    1.2    5165.4    0.1    0.0    8397.2     122.8    0.0    0.0    0.0
      15    4.1   10934.9    0.4    0.0   20208.1     253.0    0.0    0.0    0.0
      16    1.1    5250.0    0.0    0.0    7868.9     114.9    0.0    0.0    0.0
      16    4.1   10934.9    0.4    0.0   20206.0     255.1    0.0    0.0    0.0
averaged    1.3    5222.1    0.1    0.0    8400.9     123.6    0.0    0.0    0.0
averaged    4.1   10934.9    0.4    0.0   20206.2     254.9    0.0    0.0    0.0
             62780710  WORDS OF DYNAMIC MEMORY USED
 EXECUTION OF GAMESS TERMINATED NORMALLY Sun Nov 17 02:47:27 2019
 DDI: 263640 bytes (0.3 MB / 0 MWords) used by master data server.

 ----------------------------------------
 CPU timing information for all processes
 ========================================
 0: 13567.59 + 337.370 = 13904.429
 1: 13672.527 + 307.778 = 13980.306
 2: 13517.242 + 320.810 = 13838.53
 3: 13282.972 + 304.434 = 13587.406
 4: 13428.124 + 311.296 = 13739.420
 5: 13286.13 + 278.978 = 13564.992
 6: 13637.934 + 333.420 = 13971.354
 7: 13378.387 + 311.116 = 13689.504
 8: 13667.692 + 324.845 = 13992.538
 9: 13800.111 + 309.164 = 14109.275
 10: 13100.154 + 296.396 = 13396.550
 11: 13360.242 + 302.318 = 13662.560
 12: 13365.961 + 314.574 = 13680.535
 13: 13631.473 + 298.700 = 13930.174
 14: 13379.549 + 307.250 = 13686.799
 15: 12938.768 + 296.200 = 13234.968
 ----------------------------------------
 ddikick.x: exited gracefully.
----- accounting info -----
Files used on the master node gollum053.lsa.umich.edu were:
-rw-r--r-- 1 hazwong frank    13686 Nov 16 18:04 /scratch/hazwong/636437/4A4U_4/usrc/4A4U_4_fmo_input.F05
-rw-r--r-- 1 hazwong frank      634 Nov 17 02:47 /scratch/hazwong/636437/4A4U_4/usrc/4A4U_4_fmo_input.F06.001
-rw-r--r-- 1 hazwong frank      634 Nov 17 02:47 /scratch/hazwong/636437/4A4U_4/usrc/4A4U_4_fmo_input.F06.002
-rw-r--r-- 1 hazwong frank      634 Nov 17 02:47 /scratch/hazwong/636437/4A4U_4/usrc/4A4U_4_fmo_input.F06.003
-rw-r--r-- 1 hazwong frank      634 Nov 17 02:47 /scratch/hazwong/636437/4A4U_4/usrc/4A4U_4_fmo_input.F06.004
-rw-r--r-- 1 hazwong frank      634 Nov 17 02:47 /scratch/hazwong/636437/4A4U_4/usrc/4A4U_4_fmo_input.F06.005
-rw-r--r-- 1 hazwong frank      634 Nov 17 02:47 /scratch/hazwong/636437/4A4U_4/usrc/4A4U_4_fmo_input.F06.006
-rw-r--r-- 1 hazwong frank      634 Nov 17 02:47 /scratch/hazwong/636437/4A4U_4/usrc/4A4U_4_fmo_input.F06.007
-rw-r--r-- 1 hazwong frank      634 Nov 17 02:47 /scratch/hazwong/636437/4A4U_4/usrc/4A4U_4_fmo_input.F06.008
-rw-r--r-- 1 hazwong frank      634 Nov 17 02:47 /scratch/hazwong/636437/4A4U_4/usrc/4A4U_4_fmo_input.F06.009
-rw-r--r-- 1 hazwong frank      634 Nov 17 02:47 /scratch/hazwong/636437/4A4U_4/usrc/4A4U_4_fmo_input.F06.010
-rw-r--r-- 1 hazwong frank      634 Nov 17 02:47 /scratch/hazwong/636437/4A4U_4/usrc/4A4U_4_fmo_input.F06.011
-rw-r--r-- 1 hazwong frank      634 Nov 17 02:47 /scratch/hazwong/636437/4A4U_4/usrc/4A4U_4_fmo_input.F06.012
-rw-r--r-- 1 hazwong frank      634 Nov 17 02:47 /scratch/hazwong/636437/4A4U_4/usrc/4A4U_4_fmo_input.F06.013
-rw-r--r-- 1 hazwong frank      634 Nov 17 02:47 /scratch/hazwong/636437/4A4U_4/usrc/4A4U_4_fmo_input.F06.014
-rw-r--r-- 1 hazwong frank      634 Nov 17 02:47 /scratch/hazwong/636437/4A4U_4/usrc/4A4U_4_fmo_input.F06.015
-rw-r--r-- 1 hazwong frank     6172 Nov 17 02:47 /scratch/hazwong/636437/4A4U_4/usrc/4A4U_4_fmo_input.F07
-rw-r--r-- 1 hazwong frank        0 Nov 16 18:04 /scratch/hazwong/636437/4A4U_4/usrc/4A4U_4_fmo_input.F07.001
-rw-r--r-- 1 hazwong frank        0 Nov 16 18:04 /scratch/hazwong/636437/4A4U_4/usrc/4A4U_4_fmo_input.F07.002
-rw-r--r-- 1 hazwong frank        0 Nov 16 18:04 /scratch/hazwong/636437/4A4U_4/usrc/4A4U_4_fmo_input.F07.003
-rw-r--r-- 1 hazwong frank        0 Nov 16 18:04 /scratch/hazwong/636437/4A4U_4/usrc/4A4U_4_fmo_input.F07.004
-rw-r--r-- 1 hazwong frank        0 Nov 16 18:04 /scratch/hazwong/636437/4A4U_4/usrc/4A4U_4_fmo_input.F07.005
-rw-r--r-- 1 hazwong frank        0 Nov 16 18:04 /scratch/hazwong/636437/4A4U_4/usrc/4A4U_4_fmo_input.F07.006
-rw-r--r-- 1 hazwong frank        0 Nov 16 18:04 /scratch/hazwong/636437/4A4U_4/usrc/4A4U_4_fmo_input.F07.007
-rw-r--r-- 1 hazwong frank        0 Nov 16 18:04 /scratch/hazwong/636437/4A4U_4/usrc/4A4U_4_fmo_input.F07.008
-rw-r--r-- 1 hazwong frank        0 Nov 16 18:04 /scratch/hazwong/636437/4A4U_4/usrc/4A4U_4_fmo_input.F07.009
-rw-r--r-- 1 hazwong frank        0 Nov 16 18:04 /scratch/hazwong/636437/4A4U_4/usrc/4A4U_4_fmo_input.F07.010
-rw-r--r-- 1 hazwong frank        0 Nov 16 18:04 /scratch/hazwong/636437/4A4U_4/usrc/4A4U_4_fmo_input.F07.011
-rw-r--r-- 1 hazwong frank        0 Nov 16 18:04 /scratch/hazwong/636437/4A4U_4/usrc/4A4U_4_fmo_input.F07.012
-rw-r--r-- 1 hazwong frank        0 Nov 16 18:04 /scratch/hazwong/636437/4A4U_4/usrc/4A4U_4_fmo_input.F07.013
-rw-r--r-- 1 hazwong frank        0 Nov 16 18:04 /scratch/hazwong/636437/4A4U_4/usrc/4A4U_4_fmo_input.F07.014
-rw-r--r-- 1 hazwong frank        0 Nov 16 18:04 /scratch/hazwong/636437/4A4U_4/usrc/4A4U_4_fmo_input.F07.015
-rw-r--r-- 1 hazwong frank    65440 Nov 17 02:47 /scratch/hazwong/636437/4A4U_4/usrc/4A4U_4_fmo_input.F10.000
-rw-r--r-- 1 hazwong frank        0 Nov 16 18:04 /scratch/hazwong/636437/4A4U_4/usrc/4A4U_4_fmo_input.F26.000
-rw-r--r-- 1 hazwong frank        0 Nov 16 18:04 /scratch/hazwong/636437/4A4U_4/usrc/4A4U_4_fmo_input.F26.001
-rw-r--r-- 1 hazwong frank        0 Nov 16 18:04 /scratch/hazwong/636437/4A4U_4/usrc/4A4U_4_fmo_input.F26.002
-rw-r--r-- 1 hazwong frank        0 Nov 16 18:04 /scratch/hazwong/636437/4A4U_4/usrc/4A4U_4_fmo_input.F26.003
-rw-r--r-- 1 hazwong frank        0 Nov 16 18:04 /scratch/hazwong/636437/4A4U_4/usrc/4A4U_4_fmo_input.F26.004
-rw-r--r-- 1 hazwong frank        0 Nov 16 18:04 /scratch/hazwong/636437/4A4U_4/usrc/4A4U_4_fmo_input.F26.005
-rw-r--r-- 1 hazwong frank        0 Nov 16 18:04 /scratch/hazwong/636437/4A4U_4/usrc/4A4U_4_fmo_input.F26.006
-rw-r--r-- 1 hazwong frank        0 Nov 16 18:04 /scratch/hazwong/636437/4A4U_4/usrc/4A4U_4_fmo_input.F26.007
-rw-r--r-- 1 hazwong frank        0 Nov 16 18:04 /scratch/hazwong/636437/4A4U_4/usrc/4A4U_4_fmo_input.F26.008
-rw-r--r-- 1 hazwong frank        0 Nov 16 18:04 /scratch/hazwong/636437/4A4U_4/usrc/4A4U_4_fmo_input.F26.009
-rw-r--r-- 1 hazwong frank        0 Nov 16 18:04 /scratch/hazwong/636437/4A4U_4/usrc/4A4U_4_fmo_input.F26.010
-rw-r--r-- 1 hazwong frank        0 Nov 16 18:04 /scratch/hazwong/636437/4A4U_4/usrc/4A4U_4_fmo_input.F26.011
-rw-r--r-- 1 hazwong frank        0 Nov 16 18:04 /scratch/hazwong/636437/4A4U_4/usrc/4A4U_4_fmo_input.F26.012
-rw-r--r-- 1 hazwong frank        0 Nov 16 18:04 /scratch/hazwong/636437/4A4U_4/usrc/4A4U_4_fmo_input.F26.013
-rw-r--r-- 1 hazwong frank        0 Nov 16 18:04 /scratch/hazwong/636437/4A4U_4/usrc/4A4U_4_fmo_input.F26.014
-rw-r--r-- 1 hazwong frank        0 Nov 16 18:04 /scratch/hazwong/636437/4A4U_4/usrc/4A4U_4_fmo_input.F26.015
-rw-r--r-- 1 hazwong frank        0 Nov 16 18:04 /scratch/hazwong/636437/4A4U_4/usrc/4A4U_4_fmo_input.F27.000
-rw-r--r-- 1 hazwong frank        0 Nov 16 18:04 /scratch/hazwong/636437/4A4U_4/usrc/4A4U_4_fmo_input.F27.001
-rw-r--r-- 1 hazwong frank        0 Nov 16 18:04 /scratch/hazwong/636437/4A4U_4/usrc/4A4U_4_fmo_input.F27.002
-rw-r--r-- 1 hazwong frank        0 Nov 16 18:04 /scratch/hazwong/636437/4A4U_4/usrc/4A4U_4_fmo_input.F27.003
-rw-r--r-- 1 hazwong frank        0 Nov 16 18:04 /scratch/hazwong/636437/4A4U_4/usrc/4A4U_4_fmo_input.F27.004
-rw-r--r-- 1 hazwong frank        0 Nov 16 18:04 /scratch/hazwong/636437/4A4U_4/usrc/4A4U_4_fmo_input.F27.005
-rw-r--r-- 1 hazwong frank        0 Nov 16 18:04 /scratch/hazwong/636437/4A4U_4/usrc/4A4U_4_fmo_input.F27.006
-rw-r--r-- 1 hazwong frank        0 Nov 16 18:04 /scratch/hazwong/636437/4A4U_4/usrc/4A4U_4_fmo_input.F27.007
-rw-r--r-- 1 hazwong frank        0 Nov 16 18:04 /scratch/hazwong/636437/4A4U_4/usrc/4A4U_4_fmo_input.F27.008
-rw-r--r-- 1 hazwong frank        0 Nov 16 18:04 /scratch/hazwong/636437/4A4U_4/usrc/4A4U_4_fmo_input.F27.009
-rw-r--r-- 1 hazwong frank        0 Nov 16 18:04 /scratch/hazwong/636437/4A4U_4/usrc/4A4U_4_fmo_input.F27.010
-rw-r--r-- 1 hazwong frank        0 Nov 16 18:04 /scratch/hazwong/636437/4A4U_4/usrc/4A4U_4_fmo_input.F27.011
-rw-r--r-- 1 hazwong frank        0 Nov 16 18:04 /scratch/hazwong/636437/4A4U_4/usrc/4A4U_4_fmo_input.F27.012
-rw-r--r-- 1 hazwong frank        0 Nov 16 18:04 /scratch/hazwong/636437/4A4U_4/usrc/4A4U_4_fmo_input.F27.013
-rw-r--r-- 1 hazwong frank        0 Nov 16 18:04 /scratch/hazwong/636437/4A4U_4/usrc/4A4U_4_fmo_input.F27.014
-rw-r--r-- 1 hazwong frank        0 Nov 16 18:04 /scratch/hazwong/636437/4A4U_4/usrc/4A4U_4_fmo_input.F27.015
-rw-r--r-- 1 hazwong frank 16400384 Nov 16 21:06 /scratch/hazwong/636437/4A4U_4/usrc/4A4U_4_fmo_input.F40.000
-rw-r--r-- 1 hazwong frank 16400384 Nov 16 21:06 /scratch/hazwong/636437/4A4U_4/usrc/4A4U_4_fmo_input.F40.001
-rw-r--r-- 1 hazwong frank 16400384 Nov 16 21:06 /scratch/hazwong/636437/4A4U_4/usrc/4A4U_4_fmo_input.F40.002
-rw-r--r-- 1 hazwong frank 16400384 Nov 16 21:06 /scratch/hazwong/636437/4A4U_4/usrc/4A4U_4_fmo_input.F40.003
-rw-r--r-- 1 hazwong frank 16400384 Nov 16 21:06 /scratch/hazwong/636437/4A4U_4/usrc/4A4U_4_fmo_input.F40.004
-rw-r--r-- 1 hazwong frank 16400384 Nov 16 21:06 /scratch/hazwong/636437/4A4U_4/usrc/4A4U_4_fmo_input.F40.005
-rw-r--r-- 1 hazwong frank 16400384 Nov 16 21:06 /scratch/hazwong/636437/4A4U_4/usrc/4A4U_4_fmo_input.F40.006
-rw-r--r-- 1 hazwong frank 16400384 Nov 16 21:06 /scratch/hazwong/636437/4A4U_4/usrc/4A4U_4_fmo_input.F40.007
-rw-r--r-- 1 hazwong frank 16400384 Nov 16 21:06 /scratch/hazwong/636437/4A4U_4/usrc/4A4U_4_fmo_input.F40.008
-rw-r--r-- 1 hazwong frank 16400384 Nov 16 21:06 /scratch/hazwong/636437/4A4U_4/usrc/4A4U_4_fmo_input.F40.009
-rw-r--r-- 1 hazwong frank 16400384 Nov 16 21:06 /scratch/hazwong/636437/4A4U_4/usrc/4A4U_4_fmo_input.F40.010
-rw-r--r-- 1 hazwong frank 16400384 Nov 16 21:06 /scratch/hazwong/636437/4A4U_4/usrc/4A4U_4_fmo_input.F40.011
-rw-r--r-- 1 hazwong frank 16400384 Nov 16 21:06 /scratch/hazwong/636437/4A4U_4/usrc/4A4U_4_fmo_input.F40.012
-rw-r--r-- 1 hazwong frank 16400384 Nov 16 21:06 /scratch/hazwong/636437/4A4U_4/usrc/4A4U_4_fmo_input.F40.013
-rw-r--r-- 1 hazwong frank 16400384 Nov 16 21:06 /scratch/hazwong/636437/4A4U_4/usrc/4A4U_4_fmo_input.F40.014
-rw-r--r-- 1 hazwong frank 16400384 Nov 16 21:06 /scratch/hazwong/636437/4A4U_4/usrc/4A4U_4_fmo_input.F40.015
Sun Nov 17 02:47:30 EST 2019
0.188u 0.072s 8:43:24.34 0.0%	0+0k 1224+128io 20pf+0w
