----- GAMESS execution script 'rungms' -----
This job is running on host gollum059.lsa.umich.edu
under operating system Linux at Sun Nov 17 22:08:03 EST 2019
Available scratch disk space (Kbyte units) at beginning of the job is
Filesystem     1K-blocks   Used Available Use% Mounted on
/dev/sda4      426933580 565272 426368308   1% /scratch
GAMESS temporary binary files will be written to /scratch/hazwong/638905/EXP_3/usrc
GAMESS supplementary output files will be written to /scratch/hazwong/638905/EXP_3/src
Copying input file EXP_3_fmo_input.inp to your run's scratch directory...
This is a GDDI run, keeping various output files on local disks
 
Assuming a single but multicore node.
 

 Distributed Data Interface kickoff program.
 Initiating 16 compute processes on 1 nodes to run the following command:
 /export/apps/CentOS7/gamess/src/build//gamess.R3.x EXP_3_fmo_input 

          ******************************************************
          *         GAMESS VERSION = 30 SEP 2018 (R3)         *
          *             FROM IOWA STATE UNIVERSITY             *
          * M.W.SCHMIDT, K.K.BALDRIDGE, J.A.BOATZ, S.T.ELBERT, *
          *   M.S.GORDON, J.H.JENSEN, S.KOSEKI, N.MATSUNAGA,   *
          *          K.A.NGUYEN, S.J.SU, T.L.WINDUS,           *
          *       TOGETHER WITH M.DUPUIS, J.A.MONTGOMERY       *
          *         J.COMPUT.CHEM.  14, 1347-1363(1993)        *
          **************** 64 BIT LINUX VERSION ****************

  SINCE 1993, STUDENTS AND POSTDOCS WORKING AT IOWA STATE UNIVERSITY
  AND ALSO IN THEIR VARIOUS JOBS AFTER LEAVING ISU HAVE MADE IMPORTANT
  CONTRIBUTIONS TO THE CODE:
     IVANA ADAMOVIC, CHRISTINE AIKENS, YURI ALEXEEV, POOJA ARORA,
     ANDREY ASADCHEV, ROB BELL, PRADIPTA BANDYOPADHYAY, JONATHAN BENTZ,
     BRETT BODE, KURT BRORSEN, CALEB CARLIN, GALINA CHABAN, WEI CHEN,
     CHEOL HO CHOI, PAUL DAY, ALBERT DEFUSCO, NUWAN DESILVA, TIM DUDLEY,
     DMITRI FEDOROV, ALEX FINDLATER, GRAHAM FLETCHER, MARK FREITAG,
     KURT GLAESEMANN, ANASTASIA GUNINA,
     DAN KEMP, GRANT MERRILL, NORIYUKI MINEZAWA, JONATHAN MULLIN,
     TAKESHI NAGATA, SEAN NEDD, HEATHER NETZLOFF, BOSILJKA NJEGIC, RYAN OLSON,
     MIKE PAK, BUU PHAM,
     SPENCER PRUITT, LUKE ROSKOP, JIM SHOEMAKER, LYUDMILA SLIPCHENKO,
     TONY SMITH, SAROM SOK LEANG, JIE SONG, TETSUYA TAKETSUGU, SIMON WEBB,
     PENG XU, SOOHAENG YOO, FEDERICO ZAHARIEV

  ADDITIONAL CODE HAS BEEN PROVIDED BY COLLABORATORS IN OTHER GROUPS:
     IOWA STATE UNIVERSITY:
          JOE IVANIC, AARON WEST, LAIMUTIS BYTAUTAS, KLAUS RUEDENBERG
     UNIVERSITY OF TOKYO: KIMIHIKO HIRAO, TAKAHITO NAKAJIMA,
          TAKAO TSUNEDA, MUNEAKI KAMIYA, SUSUMU YANAGISAWA,
          KIYOSHI YAGI, MAHITO CHIBA, SEIKEN TOKURA, NAOAKI KAWAKAMI
     UNIVERSITY OF AARHUS: FRANK JENSEN
     UNIVERSITY OF IOWA: VISVALDAS KAIRYS, HUI LI
     NATIONAL INST. OF STANDARDS AND TECHNOLOGY: WALT STEVENS, DAVID GARMER
     UNIVERSITY OF PISA: BENEDETTA MENNUCCI, JACOPO TOMASI
     UNIVERSITY OF MEMPHIS: HENRY KURTZ, PRAKASHAN KORAMBATH
     UNIVERSITY OF ALBERTA: TOBY ZENG, MARIUSZ KLOBUKOWSKI
     UNIVERSITY OF NEW ENGLAND: MARK SPACKMAN
     MIE UNIVERSITY: HIROAKI UMEDA
     NAT. INST. OF ADVANCED INDUSTRIAL SCIENCE AND TECHNOLOGY: KAZUO KITAURA
     MICHIGAN STATE UNIVERSITY:
          KAROL KOWALSKI, MARTA WLOCH, JEFFREY GOUR, JESSE LUTZ,
          WEI LI, JUN SHEN, J. EMILIANO DEUSTUA, PIOTR PIECUCH
     UNIVERSITY OF MINNESOTA:
          YINAN SHU
     UNIVERSITY OF SILESIA: MONIKA MUSIAL, STANISLAW KUCHARSKI
     FACULTES UNIVERSITAIRES NOTRE-DAME DE LA PAIX:
          OLIVIER QUINET, BENOIT CHAMPAGNE
     UNIVERSITY OF CALIFORNIA - SANTA BARBARA: BERNARD KIRTMAN
     INSTITUTE FOR MOLECULAR SCIENCE:
          KAZUYA ISHIMURA, MICHIO KATOUDA, AND SHIGERU NAGASE
     UNIVERSITY OF NOTRE DAME: ANNA POMOGAEVA, DAN CHIPMAN
     KYUSHU UNIVERSITY:
          HARUYUKI NAKANO,
          FENG LONG GU, JACEK KORCHOWIEC, MARCIN MAKOWSKI, AND YURIKO AOKI,
          HIROTOSHI MORI AND EISAKU MIYOSHI
     PENNSYLVANIA STATE UNIVERSITY:
          TZVETELIN IORDANOV, CHET SWALINA, JONATHAN SKONE,
          SHARON HAMMES-SCHIFFER
     WASEDA UNIVERSITY:
          MASATO KOBAYASHI, TOMOKO AKAMA, TSUGUKI TOUMA,
          TAKESHI YOSHIKAWA, YASUHIRO IKABATA, JUNJI SEINO,
          YUYA NAKAJIMA, HIROMI NAKAI
     NANJING UNIVERSITY: SHUHUA LI
     UNIVERSITY OF NEBRASKA:
          PEIFENG SU, DEJUN SI, NANDUN THELLAMUREGE, YALI WANG, HUI LI
     UNIVERSITY OF ZURICH: ROBERTO PEVERATI, KIM BALDRIDGE
     N. COPERNICUS UNIVERSITY AND JACKSON STATE UNIVERSITY:
          MARIA BARYSZ
     UNIVERSITY OF COPENHAGEN: Jimmy Kromann, CASPER STEINMANN
     TOKYO INSTITUTE OF TECHNOLOGY: HIROYA NAKATA
     NAGOYA UNIVERSITY: YOSHIO NISHIMOTO, STEPHAN IRLE
     MOSCOW STATE UNIVERSITY: VLADIMIR MIRONOV


 PARALLEL VERSION RUNNING ON       16 PROCESSORS IN        1 NODES.

 EXECUTION OF GAMESS BEGUN Sun Nov 17 22:08:03 2019

            ECHO OF THE FIRST FEW INPUT CARDS -
 INPUT CARD>!*** FMO 5.3 (Gamess) INPUT generated by Facio 22.1.1.32 ***                    
 INPUT CARD> $CONTRL RUNTYP=ENERGY NPRINT=-5 ISPHER=1 MAXIT=200 $END                        
 INPUT CARD> $SYSTEM MWORDS=63 MEMDDI=63 $END                                               
 INPUT CARD> $GDDI NGROUP=1 $END                                                            
 INPUT CARD> $SCF DIRSCF=.TRUE. NPUNCH=0 $END                                               
 INPUT CARD>!*** NumCPU : 2  MemPerNode : 512MB                                             
 INPUT CARD> $PCM SOLVNT=WATER IEF=-10 ICOMP=2 ICAV=1 IDISP=1 IFMO=-1 $END                  
 INPUT CARD> $PCMCAV RADII=SUAHF $END                                                       
 INPUT CARD> $TESCAV NTSALL=60 $END                                                         
 INPUT CARD> $FMOPRP                                                                        
 INPUT CARD>    NAODIR=200                                                                  
 INPUT CARD>    NGRFMO(1)=1, 1, 0, 0, 0,   0, 0, 0, 0, 0                                    
 INPUT CARD>    IPIEDA=1                                                                    
 INPUT CARD>    NPRINT=9                                                                    
 INPUT CARD> $END                                                                           
 INPUT CARD> $FMO                                                                           
 INPUT CARD>      SCFTYP(1)=RHF                                                             
 INPUT CARD>      MODGRD=10                                                                 
 INPUT CARD>      MODMUL=0                                                                  
 INPUT CARD>      MAXCAO=5                                                                  
 INPUT CARD>      MAXBND=15                                                                 
 INPUT CARD>      NLAYER=1                                                                  
 INPUT CARD>      MPLEVL(1)=2                                                               
 INPUT CARD>      NFRAG=13                                                                  
 INPUT CARD>      ICHARG(1)=-1, -1, -1, -1, -1, 0, -1, -1, -1, -1, -1, -1, 0                
 INPUT CARD>      FRGNAM(1)=F1, F2, F3, F4, F5, F6, F7, F8, F9, F10, F11, F12, F13          
 INPUT CARD>      indat(1)=0                                                                
 INPUT CARD>               1   -33   0                                                      
 INPUT CARD>               34   -67   0                                                     
 INPUT CARD>               68   -101   0                                                    
 INPUT CARD>               102   -135   0                                                   
 INPUT CARD>               136   -169   0                                                   
 INPUT CARD>               170   -202   0                                                   
 INPUT CARD>               203   -233   0                                                   
 INPUT CARD>               234   -264   0                                                   
 INPUT CARD>               265   -294   0                                                   
 INPUT CARD>               295   -327   0                                                   
 INPUT CARD>               328   -357   0                                                   
 INPUT CARD>               358   -388   0                                                   
 INPUT CARD>               389   -419   0                                                   
 INPUT CARD> $END                                                                           
 INPUT CARD>                                                                                
 INPUT CARD> $FMOBND                                                                        
 INPUT CARD>   -34   33       6-31G*    MINI                                                
 INPUT CARD>   -68   67       6-31G*    MINI                                                
 INPUT CARD>   -102   101       6-31G*    MINI                                              
 INPUT CARD>   -136   135       6-31G*    MINI                                              
 INPUT CARD>   -170   169       6-31G*    MINI                                              
 INPUT CARD>   -203   202       6-31G*    MINI                                              
 INPUT CARD>   -234   233       6-31G*    MINI                                              


 -------------------------------------------------------------
 GROUP DDI, PROGRAMMED BY: RYAN M. OLSON AND DMITRI G. FEDOROV
        FEDOROV ET AL., J. COMPUT. CHEM., 25 (2004) 872.
 -------------------------------------------------------------

 -------------------------------------------------------
 GDDI: INITIALIZATION COMPLETED FOR GROUP     1 OF     1
 WITH    16 PROCESSES BALTYP=DLB   global rank=        0
 -------------------------------------------------------

   63000000 WORDS OF MEMORY AVAILABLE


     RUN TITLE
     ---------
  FMO calculation                                                                

 THE POINT GROUP OF THE MOLECULE IS C1      
 THE ORDER OF THE PRINCIPAL AXIS IS     0

 ATOM   ATOMIC CHARGE
 H.1-1       1.0
 O.1-1       8.0
 C.1-1       6.0
 N.1-1       7.0
 P.1-1      15.0

     ATOMIC BASIS SET LIBRARY
     ----------------
 THE CONTRACTED PRIMITIVE FUNCTIONS HAVE BEEN UNNORMALIZED
 THE CONTRACTED BASIS FUNCTIONS ARE NOW NORMALIZED TO UNITY

  SHELL TYPE  PRIMITIVE        EXPONENT          CONTRACTION COEFFICIENT(S)

 H.1-1     

      1   S       1            18.7311370    0.033494604338
      1   S       2             2.8253944    0.234726953484
      1   S       3             0.6401217    0.813757326146

      2   S       4             0.1612778    1.000000000000

 O.1-1     

      3   S       5          5484.6716600    0.001831074430
      3   S       6           825.2349460    0.013950172200
      3   S       7           188.0469580    0.068445078098
      3   S       8            52.9645000    0.232714335992
      3   S       9            16.8975704    0.470192897984
      3   S      10             5.7996353    0.358520852987

      4   L      11            15.5396162   -0.110777549525    0.070874268231
      4   L      12             3.5999336   -0.148026262701    0.339752839147
      4   L      13             1.0137618    1.130767015354    0.727158577316

      5   L      14             0.2700058    1.000000000000    1.000000000000

      6   D      15             0.8000000    1.000000000000

 C.1-1     

      7   S      16          3047.5248800    0.001834737132
      7   S      17           457.3695180    0.014037322813
      7   S      18           103.9486850    0.068842622264
      7   S      19            29.2101553    0.232184443216
      7   S      20             9.2866630    0.467941348435
      7   S      21             3.1639270    0.362311985337

      8   L      22             7.8682723   -0.119332419775    0.068999066591
      8   L      23             1.8812885   -0.160854151696    0.316423960957
      8   L      24             0.5442493    1.143456437840    0.744308290898

      9   L      25             0.1687145    1.000000000000    1.000000000000

     10   D      26             0.8000000    1.000000000000

 N.1-1     

     11   S      27          4173.5114600    0.001834772160
     11   S      28           627.4579110    0.013994627002
     11   S      29           142.9020930    0.068586551812
     11   S      30            40.2343293    0.232240873040
     11   S      31            12.8202129    0.469069948082
     11   S      32             4.3904370    0.360455199063

     12   L      33            11.6263619   -0.114961181702    0.067579743878
     12   L      34             2.7162798   -0.169117478561    0.323907295893
     12   L      35             0.7722184    1.145851947027    0.740895139755

     13   L      36             0.2120315    1.000000000000    1.000000000000

     14   D      37             0.8000000    1.000000000000

 P.1-1     

     15   S      38         19413.3000000    0.001851598923
     15   S      39          2909.4200000    0.014206191735
     15   S      40           661.3640000    0.069999459277
     15   S      41           185.7590000    0.240078860331
     15   S      42            59.1943000    0.484761717984
     15   S      43            20.0310000    0.335199804993

     16   L      44           339.4780000   -0.002782170105    0.004564616191
     16   L      45            81.0101000   -0.036049901354    0.033693571881
     16   L      46            25.8780000   -0.116631004382    0.139754883368
     16   L      47             9.4522100    0.096832803638    0.339361716786
     16   L      48             3.6656600    0.614418023082    0.450920623685
     16   L      49             1.4674600    0.403798015170    0.238585800889

     17   L      50             2.1562300   -0.252924113863   -0.017765312733
     17   L      51             0.7489970    0.032851844678    0.274058196433
     17   L      52             0.2831450    1.081254761783    0.785421562957

     18   L      53             0.0998317    1.000000000000    1.000000000000

     19   D      54             0.5500000    1.000000000000

 TOTAL NUMBER OF BASIS SET SHELLS             =   19
 NUMBER OF CARTESIAN GAUSSIAN BASIS FUNCTIONS =   66

     $CONTRL OPTIONS
     ---------------
 SCFTYP=RHF          RUNTYP=ENERGY       EXETYP=RUN     
 MPLEVL=       0     CITYP =NONE         CCTYP =NONE         VBTYP =NONE    
 DFTTYP=NONE         TDDFT =NONE    
 MULT  =       1     ICHARG=       0     NZVAR =       0     COORD =UNIQUE  
 PP    =NONE         RELWFN=NONE         LOCAL =NONE         NUMGRD=       F
 ISPHER=       1     NOSYM =       0     MAXIT =     200     UNITS =ANGS    
 PLTORB=       F     MOLPLT=       F     AIMPAC=       F     FRIEND=        
 NPRINT=      -5     IREST =       0     GEOM  =INPUT   
 NORMF =       0     NORMP =       0     ITOL  =      24     ICUT  =      12
 INTTYP=BEST         GRDTYP=BEST         QMTTOL= 1.0E-06

     $SYSTEM OPTIONS
     ---------------
  REPLICATED MEMORY=    63000000 WORDS (ON EVERY NODE).
 DISTRIBUTED MEMDDI=          63 MILLION WORDS IN AGGREGATE,
 MEMDDI DISTRIBUTED OVER  16 PROCESSORS IS     3937500 WORDS/PROCESSOR.
 TOTAL MEMORY REQUESTED ON EACH PROCESSOR=    66937500 WORDS.
 TIMLIM=      525600.00 MINUTES, OR     365.0 DAYS.
 PARALL= T  BALTYP=  DLB     KDIAG=    0  COREFL= F
 MXSEQ2=     300 MXSEQ3=     150  mem10=         0

 ** LOOKING UP INTERNALLY STORED DATA FOR SOLVENT=WATER    **
 OPTICAL AND PHYSICAL CONSTANTS:
 EPS= 78.390; EPSINF=  1.776; RSOLV=  1.385 A; VMOL=  18.070 ML/MOL;
 TCE= .25700E-03 1/K; STEN= 71.810 DYN/CM;  DSTEN=  0.6500; CMF=  1.2770


     -----------------------------------
     INPUT FOR PCM SOLVATION CALCULATION 
     -----------------------------------
     IEF   =     -10
     ICOMP =       2     IFIELD=       0     ICAV  =       1
     IDISP =       1     IREP  =       0     IDP   =       0

     SOLVNT=WATER        EPS   = 78.3900     EPSINF=  1.7760
     VMOL  = 18.0700     TCE   =  0.00025700 STEN  = 71.8100
     DSTEN =  0.6500     CMF   =  1.2770     RSOLV =  1.3850

     NESFP =       0
     OMEGA = 40.0000     RET   =100.0000     FRO   =  0.7000

     TABS  =298.0000     IPRINT=       0

     --------------------------------
     INPUT FOR ITERATIVE C-PCM METHOD 
     --------------------------------
     IPCMIT  =         1     MXDIIS  =        50
     MXITR1  =       200     MXITR2  =       200
     THRES   = 0.100E-09     IMUL    =         3
     RCUT(1) =   20.0000     RCUT(2) =   50.0000

     IDIRCT  =         1
     IMGABI  =         0     RABI    =    4.0000
     IMGASC  =         0     RASC    =   20.0000
     THRSLS  = 0.500E-03     DENSLS  =    0.0100
     IEFPOL  =         1     REFPOL  =    0.0000

     INPUT FOR ISOTROPIC DIELECTRICS
     -------------------------------
     EPS=    78.39

          ----------------
          PROPERTIES INPUT
          ----------------

     MOMENTS            FIELD           POTENTIAL          DENSITY
 IEMOM =       1   IEFLD =       0   IEPOT =       0   IEDEN =       0
 WHERE =COMASS     WHERE =NUCLEI     WHERE =NUCLEI     WHERE =NUCLEI  
 OUTPUT=BOTH       OUTPUT=BOTH       OUTPUT=NONE       OUTPUT=BOTH    
 IEMINT=       0   IEFINT=       0                     IEDINT=       0
                                                       MORB  =       0
          EXTRAPOLATION IN EFFECT
          SOSCF IN EFFECT
 ORBITAL PRINTING OPTION: NPREO=     1 32767     2     1

     -------------------------------
     INTEGRAL TRANSFORMATION OPTIONS
     -------------------------------
     NWORD  =            0
     CUTOFF = 1.0E-10     MPTRAN =       0
     DIRTRF =       T     AOINTS =DUP     

          ----------------------
          INTEGRAL INPUT OPTIONS
          ----------------------
 NOPK  =       1 NORDER=       0 SCHWRZ=       T

 ..... DONE SETTING UP THE RUN .....
 CPU     0: STEP CPU TIME=     0.04 TOTAL CPU TIME=          0.0 (      0.0 MIN)
 TOTAL WALL CLOCK TIME=          0.1 SECONDS, CPU UTILIZATION IS    50.00%
 CPU     0: STEP CPU TIME=     0.00 TOTAL CPU TIME=          0.0 (      0.0 MIN)
 TOTAL WALL CLOCK TIME=          0.1 SECONDS, CPU UTILIZATION IS    50.00%

                    ----------------------
                    AO INTEGRAL TECHNOLOGY
                    ----------------------
     S,P,L SHELL ROTATED AXIS INTEGRALS, REPROGRAMMED BY
        KAZUYA ISHIMURA (IMS) AND JOSE SIERRA (SYNSTAR).
     S,P,D,L SHELL ROTATED AXIS INTEGRALS PROGRAMMED BY
        KAZUYA ISHIMURA (INSTITUTE FOR MOLECULAR SCIENCE).
     S,P,D,F,G SHELL TO TOTAL QUARTET ANGULAR MOMENTUM SUM 5,
        ERIC PROGRAM BY GRAHAM FLETCHER (ELORET AND NASA ADVANCED
        SUPERCOMPUTING DIVISION, AMES RESEARCH CENTER).
     S,P,D,F,G,L SHELL GENERAL RYS QUADRATURE PROGRAMMED BY
        MICHEL DUPUIS (PACIFIC NORTHWEST NATIONAL LABORATORY).
 Setting modorb=1 flag...
 Setting modorb=1 flag...

          -----------------------
          MP2 CONTROL INFORMATION
          -----------------------
          NACORE =        8  NBCORE =        8
          LMOMP2 =        F  AOINTS = DUP     
          METHOD =        2  NWORD  =               0
          MP2PRP =        F  OSPT   = NONE    
          CUTOFF = 1.00E-12  CPHFBS = BASISAO 
          CODE   = IMS     

          NUMBER OF CORE -A-  ORBITALS =     8
          NUMBER OF CORE -B-  ORBITALS =     8
          NUMBER OF OCC. -A-  ORBITALS =    18
          NUMBER OF OCC. -B-  ORBITALS =    18
          NUMBER OF MOLECULAR ORBITALS =    66
          NUMBER OF   BASIS  FUNCTIONS =    66

 CPU     0: STEP CPU TIME=     0.03 TOTAL CPU TIME=          0.1 (      0.0 MIN)
 TOTAL WALL CLOCK TIME=          0.1 SECONDS, CPU UTILIZATION IS    63.64%
 CPU     0: STEP CPU TIME=     0.00 TOTAL CPU TIME=          0.1 (      0.0 MIN)
 TOTAL WALL CLOCK TIME=          0.1 SECONDS, CPU UTILIZATION IS    63.64%

     INPUT FOR CAVITY DEFINITION 
     ---------------------------
   ATOM               COORDINATES                RADIUS       EPS
      1     10.3050     11.9100     -9.0250      0.0100     78.3900
      2      9.4170     12.3180     -9.0910      1.5900     78.3900
      3      9.5880     13.7330     -8.9390      1.7700     78.3900
      4     10.3220     14.0980     -9.6920      0.0100     78.3900
      5     10.0010     13.9310     -7.9260      0.0100     78.3900
      6      8.2780     14.5130     -9.0820      1.7700     78.3900
      7      8.4330     15.5940     -8.8710      0.0100     78.3900
      8      7.7900     14.4050    -10.4520      1.5900     78.3900
      9      6.3740     14.2690    -10.4300      1.7700     78.3900
     10      5.9830     15.0910    -11.0730      0.0100     78.3900
     11      5.9050     12.9670    -10.9770      1.6800     78.3900
     12      6.7720     11.9000    -11.0750      1.7700     78.3900
     13      7.7950     12.0750    -10.7410      0.0100     78.3900
     14      6.3780     10.7260    -11.5850      1.7700     78.3900
     15      7.0530      9.8790    -11.6940      0.0100     78.3900
     16      4.5810     12.8180    -11.3810      1.7700     78.3900
     17      3.8030     13.7790    -11.2690      1.5900     78.3900
     18      4.1710     11.6470    -11.9190      1.6800     78.3900
     19      5.0270     10.6140    -12.0200      1.7700     78.3900
     20      4.6030      9.4750    -12.5620      1.6800     78.3900
     21      3.6460      9.3860    -12.8500      0.0100     78.3900
     22      5.2120      8.6920    -12.6740      0.0100     78.3900
     23      5.9150     14.5040     -9.0080      1.7700     78.3900
     24      4.9950     13.9390     -8.7600      0.0100     78.3900
     25      5.6940     15.8840     -8.8010      1.5900     78.3900
     26      5.4270     15.9830     -7.8790      0.0100     78.3900
     27      7.1140     14.0040     -8.2120      1.7700     78.3900
     28      7.1490     12.8900     -8.2330      0.0100     78.3900
     29      7.2330     14.5450     -6.8770      1.5900     78.3900
     30      6.5610     13.8000     -5.6660      2.1000     78.3900
     31      6.9520     12.3750     -5.7100      1.5900     78.3900
     32      6.8980     14.5360     -4.4310      1.5900     78.3900
     33      5.0190     13.9450     -5.9550      1.5900     78.3900
     34      4.3960     15.2450     -5.7830      1.7700     78.3900
     35      4.9180     16.0320     -6.3720      0.0100     78.3900
     36      4.4310     15.5570     -4.7130      0.0100     78.3900
     37      2.9240     15.2230     -6.2190      1.7700     78.3900
     38      2.4690     16.2320     -6.1410      0.0100     78.3900
     39      2.8120     14.8040     -7.6100      1.5900     78.3900
     40      1.6760     13.9570     -7.7470      1.7700     78.3900
     41      1.0380     14.4130     -8.5380      0.0100     78.3900
     42      2.0510     12.6010     -8.1730      1.6800     78.3900
     43      1.2170     11.6830     -8.7500      1.7700     78.3900
     44     -1.9390     10.7620     -9.8450      1.6800     78.3900
     45     -2.4890     11.5650     -9.6250      0.0100     78.3900
     46     -2.3810      9.9560    -10.2510      0.0100     78.3900
     47     -0.0910     11.8560     -9.0060      1.6800     78.3900
     48     -0.6490     10.7840     -9.5570      1.7700     78.3900
     49      0.0580      9.6520     -9.8660      1.6800     78.3900
     50     -0.4320      8.8920    -10.3130      0.0100     78.3900
     51      1.4130      9.4490     -9.6350      1.7700     78.3900
     52      1.9660      8.3940     -9.9580      1.5900     78.3900
     53      2.0030     10.5760     -9.0050      1.7700     78.3900
     54      3.3060     10.7840     -8.5730      1.6800     78.3900
     55      3.2860     11.9990     -8.0780      1.7700     78.3900
     56      4.1390     12.5160     -7.6390      0.0100     78.3900
     57      0.9260     13.9650     -6.4310      1.7700     78.3900
     58      0.4150     13.0000     -6.2200      0.0100     78.3900
     59     -0.0210     15.0170     -6.4160      1.5900     78.3900
     60     -0.3700     15.0720     -5.5120      0.0100     78.3900
     61      2.0530     14.2270     -5.4400      1.7700     78.3900
     62      2.6690     13.3090     -5.3000      0.0100     78.3900
     63      1.6400     14.8140     -4.1860      1.5900     78.3900
     64      1.0890     13.8650     -3.0540      2.1000     78.3900
     65      1.9960     12.7030     -2.9300      1.5900     78.3900
     66      0.8710     14.6820     -1.8410      1.5900     78.3900
     67     -0.3100     13.3900     -3.5970      1.5900     78.3900
     68     -0.9480     12.2190     -3.0310      1.7700     78.3900
     69     -1.2710     12.4210     -1.9830      0.0100     78.3900
     70     -0.2500     11.3500     -3.0270      0.0100     78.3900
     71     -2.1860     11.8110     -3.8480      1.7700     78.3900
     72     -2.9460     12.6230     -3.8140      0.0100     78.3900
     73     -1.8150     11.6390     -5.2500      1.5900     78.3900
     74     -2.5030     10.5250     -5.7930      1.7700     78.3900
     75     -3.0230     10.8870     -6.7090      0.0100     78.3900
     76     -1.5630      9.4500     -6.1690      1.6800     78.3900
     77     -1.8500      8.3440     -6.9260      1.7700     78.3900
     78     -4.1280      6.4010     -8.6760      1.6800     78.3900
     79     -4.1630      5.5430     -9.1820      0.0100     78.3900
     80     -4.9560      6.9680     -8.6270      0.0100     78.3900
     81     -3.0510      8.0350     -7.4460      1.6800     78.3900
     82     -3.0300      6.8930     -8.1300      1.7700     78.3900
     83     -1.9000      6.1460     -8.3100      1.6800     78.3900
     84     -1.9670      5.3070     -8.8580      0.0100     78.3900
     85     -0.6410      6.4600     -7.8180      1.7700     78.3900
     86      0.3090      5.7110     -8.0620      1.5900     78.3900
     87     -0.6560      7.6550     -7.0480      1.7700     78.3900
     88      0.3690      8.3070     -6.3660      1.6800     78.3900
     89     -0.2200      9.3690     -5.8600      1.7700     78.3900
     90      0.2680     10.1350     -5.2510      0.0100     78.3900
     91     -3.5320     10.0800     -4.7700      1.7700     78.3900
     92     -3.7180      8.9880     -4.8100      0.0100     78.3900
     93     -4.7540     10.7690     -4.9650      1.5900     78.3900
     94     -5.3180     10.5380     -4.2160      0.0100     78.3900
     95     -2.8650     10.4850     -3.4590      1.7700     78.3900
     96     -2.0370      9.7780     -3.2160      0.0100     78.3900
     97     -3.7840     10.6950     -2.3590      1.5900     78.3900
     98     -4.0160      9.5500     -1.3020      2.1000     78.3900
     99     -2.7170      8.8970     -1.0400      1.5900     78.3900
    100     -4.7180     10.1320     -0.1350      1.5900     78.3900
    101     -4.9420      8.5130     -2.0340      1.5900     78.3900
    102     -6.3190      8.7920     -2.3640      1.7700     78.3900
    103     -6.4180      9.7440     -2.9380      0.0100     78.3900
    104     -6.9280      8.8870     -1.4370      0.0100     78.3900
    105     -6.9130      7.6580     -3.2160      1.7700     78.3900
    106     -7.9720      7.8720     -3.4780      0.0100     78.3900
    107     -6.1610      7.5630     -4.4590      1.5900     78.3900
    108     -6.0010      6.1990     -4.8170      1.7700     78.3900
    109     -6.4030      6.0970     -5.8500      0.0100     78.3900
    110     -4.5840      5.7980     -4.8200      1.6800     78.3900
    111     -4.0420      4.6960     -5.4310      1.7700     78.3900
    112     -4.3910      1.7920     -7.2870      1.6800     78.3900
    113     -3.8240      1.0460     -7.6330      0.0100     78.3900
    114     -5.3770      1.7620     -7.4530      0.0100     78.3900
    115     -4.7190      3.7690     -6.1350      1.6800     78.3900
    116     -3.9150      2.8120     -6.6030      1.7700     78.3900
    117     -2.5570      2.8140     -6.4270      1.6800     78.3900
    118     -2.0310      2.0550     -6.8280      0.0100     78.3900
    119     -1.8340      3.7670     -5.7270      1.7700     78.3900
    120     -0.6060      3.6780     -5.6370      1.5900     78.3900
    121     -2.6810      4.7750     -5.1930      1.7700     78.3900
    122     -2.3760      5.8940     -4.4330      1.6800     78.3900
    123     -3.5380      6.4650     -4.2300      1.7700     78.3900
    124     -3.7020      7.3750     -3.6520      0.0100     78.3900
    125     -6.8390      5.3750     -3.8660      1.7700     78.3900
    126     -6.3960      4.3780     -3.6640      0.0100     78.3900
    127     -8.1460      5.2220     -4.3910      1.5900     78.3900
    128     -8.6740      4.8130     -3.6930      0.0100     78.3900
    129     -6.8370      6.2420     -2.6090      1.7700     78.3900
    130     -5.8560      6.1670     -2.0860      0.0100     78.3900
    131     -7.9580      6.0160     -1.7270      1.5900     78.3900
    132     -7.8520      4.9730     -0.5530      2.1000     78.3900
    133     -6.6760      5.3070      0.2800      1.5900     78.3900
    134     -9.1480      4.9570      0.1650      1.5900     78.3900
    135     -7.5820      3.5960     -1.2570      1.5900     78.3900
    136     -8.6250      2.8550     -1.9220      1.7700     78.3900
    137     -9.1100      3.4650     -2.7160      0.0100     78.3900
    138     -9.4220      2.5560     -1.2050      0.0100     78.3900
    139     -8.0680      1.5800     -2.5670      1.7700     78.3900
    140     -8.8780      1.0190     -3.0860      0.0100     78.3900
    141     -7.0650      1.9210     -3.5640      1.5900     78.3900
    142     -6.0320      0.9520     -3.5350      1.7700     78.3900
    143     -5.9480      0.5460     -4.5660      0.0100     78.3900
    144     -4.7400      1.5490     -3.1520      1.6800     78.3900
    145     -3.5000      1.0120     -3.3820      1.7700     78.3900
    146     -1.5100     -1.5720     -4.5550      1.6800     78.3900
    147     -2.1810     -2.2440     -4.8610      0.0100     78.3900
    148     -0.5390     -1.8270     -4.5520      0.0100     78.3900
    149     -3.2470     -0.1660     -3.9790      1.6800     78.3900
    150     -1.9450     -0.4360     -4.0430      1.7700     78.3900
    151     -0.9810      0.4320     -3.6030      1.6800     78.3900
    152     -0.0170      0.1470     -3.6760      0.0100     78.3900
    153     -1.2090      1.6590     -2.9930      1.7700     78.3900
    154     -0.2690      2.3720     -2.6290      1.5900     78.3900
    155     -2.5980      1.9340     -2.8870      1.7700     78.3900
    156     -3.2590      3.0240     -2.3360      1.6800     78.3900
    157     -4.5290      2.7460     -2.5020      1.7700     78.3900
    158     -5.3630      3.3790     -2.1920      0.0100     78.3900
    159     -6.4660     -0.1530     -2.5910      1.7700     78.3900
    160     -5.6080     -0.6280     -2.0740      0.0100     78.3900
    161     -7.1900     -1.1400     -3.3010      1.5900     78.3900
    162     -7.5130     -1.7690     -2.6450      0.0100     78.3900
    163     -7.3580      0.6120     -1.6180      1.7700     78.3900
    164     -6.7300      1.2430     -0.9490      0.0100     78.3900
    165     -8.3380     -0.1850     -0.9070      1.5900     78.3900
    166     -7.9660     -0.6760      0.5490      2.1000     78.3900
    167     -7.3480      0.4240      1.3240      1.5900     78.3900
    168     -9.1580     -1.3210      1.1400      1.5900     78.3900
    169     -6.8670     -1.7740      0.2920      1.5900     78.3900
    170     -7.2650     -3.0400     -0.2850      1.7700     78.3900
    171     -7.7580     -2.9030     -1.2760      0.0100     78.3900
    172     -7.9860     -3.5660      0.3830      0.0100     78.3900
    173     -6.0610     -3.9630     -0.4830      1.7700     78.3900
    174     -6.3730     -4.9370     -0.9220      0.0100     78.3900
    175     -5.1230     -3.3430     -1.4070      1.5900     78.3900
    176     -3.7980     -3.6180     -0.9820      1.7700     78.3900
    177     -3.2850     -4.1180     -1.8320      0.0100     78.3900
    178     -3.0720     -2.3800     -0.6600      1.6800     78.3900
    179     -1.7140     -2.2400     -0.5780      1.7700     78.3900
    180      1.4600     -3.6100     -0.7510      1.6800     78.3900
    181      1.2700     -4.5730     -0.9330      0.0100     78.3900
    182      2.4120     -3.3060     -0.6570      0.0100     78.3900
    183     -0.8110     -3.2190     -0.7480      1.6800     78.3900
    184      0.4410     -2.7810     -0.6290      1.7700     78.3900
    185      0.7530     -1.4760     -0.3520      1.6800     78.3900
    186      1.7260     -1.2290     -0.2620      0.0100     78.3900
    187     -0.1570     -0.4460     -0.1550      1.7700     78.3900
    188      0.2190      0.7040      0.0940      1.5900     78.3900
    189     -1.4960     -0.9080     -0.2760      1.7700     78.3900
    190     -2.6990     -0.2230     -0.1620      1.6800     78.3900
    191     -3.6070     -1.1400     -0.3940      1.7700     78.3900
    192     -4.6860     -0.9840     -0.3670      0.0100     78.3900
    193     -3.8750     -4.5750      0.1970      1.7700     78.3900
    194     -3.0660     -4.3960      0.9390      0.0100     78.3900
    195     -3.8150     -5.9130     -0.2750      1.5900     78.3900
    196     -4.0390     -6.5160      0.4570      0.0100     78.3900
    197     -5.2410     -4.2340      0.7850      1.7700     78.3900
    198     -5.1930     -3.2920      1.3700      0.0100     78.3900
    199     -5.8320     -5.2940      1.5610      1.5900     78.3900
    200     -5.3490     -5.3990      2.4000      0.0100     78.3900
    201     10.1030      1.0760     -0.3200      0.0100     78.3900
    202      9.4200      0.4180     -0.5630      1.5900     78.3900
    203     10.0430     -0.8720     -0.4640      1.7700     78.3900
    204     10.4820     -0.9830      0.5540      0.0100     78.3900
    205     10.8770     -0.9250     -1.1990      0.0100     78.3900
    206      9.0860     -2.0400     -0.7320      1.7700     78.3900
    207      9.6420     -3.0040     -0.7520      0.0100     78.3900
    208      8.0910     -2.1330      0.3340      1.5900     78.3900
    209      6.8320     -2.4710     -0.2360      1.7700     78.3900
    210      6.4860     -3.3860      0.3020      0.0100     78.3900
    211      5.8140     -1.3940     -0.0720      1.6800     78.3900
    212      6.2030     -0.1020      0.2090      1.7700     78.3900
    213      7.2770      0.0670      0.3100      0.0100     78.3900
    214      5.3060      0.8750      0.3880      1.7700     78.3900
    215      5.6010      1.8890      0.6510      0.0100     78.3900
    216      4.4600     -1.6860     -0.2120      1.7700     78.3900
    217      4.1170     -2.8480     -0.4710      1.5900     78.3900
    218      3.5400     -0.7080     -0.0490      1.6800     78.3900
    219      3.9270      0.5410      0.2660      1.7700     78.3900
    220      2.9960      1.4720      0.4730      1.6800     78.3900
    221      2.0270      1.2360      0.3660      0.0100     78.3900
    222      3.2390      2.4090      0.7310      0.0100     78.3900
    223      7.0750     -2.8260     -1.6900      1.7700     78.3900
    224      6.2020     -2.6000     -2.3340      0.0100     78.3900
    225      7.4110     -4.1950     -1.8110      1.5900     78.3900
    226      7.5930     -4.3510     -2.7460      0.0100     78.3900
    227      8.2630     -1.9280     -2.0240      1.7700     78.3900
    228      7.9280     -0.8670     -2.0990      0.0100     78.3900
    229      9.0640     -2.3510     -3.1550      1.5900     78.3900
    230      8.7230     -1.7590     -4.5820      2.1000     78.3900
    231      8.5750     -0.2920     -4.4740      1.5900     78.3900
    232      9.7070     -2.2530     -5.5710      1.5900     78.3900
    233      7.3210     -2.3950     -4.9050      1.5900     78.3900
    234      7.2280     -3.8100     -5.1870      1.7700     78.3900
    235      7.6740     -4.4160     -4.3670      0.0100     78.3900
    236      7.7840     -4.0590     -6.1210      0.0100     78.3900
    237      5.7710     -4.2550     -5.3760      1.7700     78.3900
    238      5.7220     -5.3510     -5.5510      0.0100     78.3900
    239      4.9830     -3.9770     -4.1780      1.5900     78.3900
    240      3.6820     -3.5320     -4.5710      1.7700     78.3900
    241      2.9630     -4.2220     -4.0700      0.0100     78.3900
    242      3.3800     -2.1320     -4.1520      1.6800     78.3900
    243      4.3990     -1.2650     -3.8370      1.7700     78.3900
    244      5.4060     -1.6720     -3.9150      0.0100     78.3900
    245      4.1560     -0.0110     -3.4340      1.7700     78.3900
    246      4.9520      0.6680     -3.1340      0.0100     78.3900
    247      2.0600     -1.6870     -4.1020      1.7700     78.3900
    248      1.1460     -2.4720     -4.4000      1.5900     78.3900
    249      1.7940     -0.4180     -3.7150      1.6800     78.3900
    250      2.7960      0.4060     -3.3630      1.7700     78.3900
    251      2.5000      1.6320     -2.9380      1.6800     78.3900
    252      1.5410      1.9090     -2.8440      0.0100     78.3900
    253      3.2070      2.3030     -2.7160      0.0100     78.3900
    254      3.5690     -3.7200     -6.0700      1.7700     78.3900
    255      2.9160     -2.9600     -6.5500      0.0100     78.3900
    256      3.0940     -5.0230     -6.3670      1.5900     78.3900
    257      3.1700     -5.1270     -7.3230      0.0100     78.3900
    258      5.0160     -3.5460     -6.5070      1.7700     78.3900
    259      5.3130     -2.4720     -6.4590      0.0100     78.3900
    260      5.3380     -4.1670     -7.7670      1.5900     78.3900
    261      5.2620     -3.3280     -9.0900      2.1000     78.3900
    262      5.9570     -2.0410     -8.8820      1.5900     78.3900
    263      5.7440     -4.1740    -10.2020      1.5900     78.3900
    264      3.7420     -3.0130     -9.2820      1.5900     78.3900
    265      2.7660     -4.0030     -9.6550      1.7700     78.3900
    266      2.8060     -4.8860     -8.9780      0.0100     78.3900
    267      2.9610     -4.3560    -10.6920      0.0100     78.3900
    268      1.3390     -3.4280     -9.6000      1.7700     78.3900
    269      0.5870     -4.2320     -9.7600      0.0100     78.3900
    270      1.0750     -2.8360     -8.2840      1.5900     78.3900
    271      0.2780     -1.6650     -8.4230      1.7700     78.3900
    272     -0.6470     -1.8590     -7.8300      0.0100     78.3900
    273      0.9740     -0.4330     -7.9100      1.6800     78.3900
    274      2.3480     -0.3540     -7.9260      1.7700     78.3900
    275      2.8560     -1.2340     -8.3080      0.0100     78.3900
    276      0.2240      0.6160     -7.4130      1.7700     78.3900
    277     -1.0040      0.5930     -7.3760      1.5900     78.3900
    278      0.9500      1.6930     -6.9550      1.6800     78.3900
    279      0.4400      2.4470     -6.5170      0.0100     78.3900
    280      2.3210      1.8000     -6.8750      1.7700     78.3900
    281      2.8330      2.7840     -6.3460      1.5900     78.3900
    282      3.0310      0.6920     -7.4380      1.7700     78.3900
    283      4.1180      0.6980     -7.4080      0.0100     78.3900
    284     -0.0880     -1.5530     -9.8930      1.7700     78.3900
    285     -0.1390     -0.5020    -10.2300      0.0100     78.3900
    286     -1.3320     -2.1820    -10.1360      1.5900     78.3900
    287     -1.5370     -2.0320    -11.0710      0.0100     78.3900
    288      1.0600     -2.2870    -10.5840      1.7700     78.3900
    289      1.9750     -1.6430    -10.5800      0.0100     78.3900
    290      0.7210     -2.8120    -11.8920      1.5900     78.3900
    291      1.6250     -2.4300    -13.1210      2.1000     78.3900
    292      1.6600     -0.9510    -13.2250      1.5900     78.3900
    293      2.9260     -3.1160    -13.0080      1.5900     78.3900
    294      0.8390     -3.0600    -14.3370      1.5900     78.3900
    295      0.9610     -2.4370    -15.6390      1.7700     78.3900
    296      2.0250     -2.2240    -15.8950      0.0100     78.3900
    297      0.4010     -1.4730    -15.6490      0.0100     78.3900
    298      0.3830     -3.3160    -16.7600      1.7700     78.3900
    299      0.3520     -2.7540    -17.7180      0.0100     78.3900
    300      1.2470     -4.4690    -16.9790      1.5900     78.3900
    301      0.4560     -5.6260    -17.2100      1.7700     78.3900
    302      0.8010     -6.0620    -18.1790      0.0100     78.3900
    303      0.6470     -6.6230    -16.1480      1.6800     78.3900
    304      0.6740     -8.5000    -15.0000      1.7700     78.3900
    305      1.3380     -7.5570    -14.2170      1.6800     78.3900
    306      1.2870     -6.4600    -14.9390      1.7700     78.3900
    307      1.7040     -5.4910    -14.6500      0.0100     78.3900
    308     -0.3140    -10.5150    -15.7750      1.6800     78.3900
    309     -0.6850     -9.8220    -16.8570      1.7700     78.3900
    310     -1.2510    -10.3880    -17.6070      0.0100     78.3900
    311     -0.4370     -8.5460    -17.1740      1.6800     78.3900
    312      0.2460     -7.9350    -16.1890      1.7700     78.3900
    313      0.3930     -9.8720    -14.8090      1.7700     78.3900
    314      0.7980    -10.5690    -13.7300      1.6800     78.3900
    315      1.2560    -10.1220    -12.9540      0.0100     78.3900
    316      0.5110    -11.5250    -13.6170      0.0100     78.3900
    317     -0.9890     -5.1820    -17.3450      1.7700     78.3900
    318     -1.7030     -5.9320    -16.9420      0.0100     78.3900
    319     -1.2930     -4.9280    -18.7050      1.5900     78.3900
    320     -2.1430     -4.4570    -18.7420      0.0100     78.3900
    321     -1.0080     -3.9120    -16.5000      1.7700     78.3900
    322     -1.0220     -4.2040    -15.4240      0.0100     78.3900
    323     -2.0500     -2.9710    -16.8650      1.5900     78.3900
    324     -3.1160     -2.4900    -15.8050      2.1000     78.3900
    325     -4.3960     -2.2590    -16.5050      1.5900     78.3900
    326     -3.1700     -3.4700    -14.6960      1.5900     78.3900
    327     -2.5700     -1.0940    -15.3240      1.5900     78.3900
    328     -1.9720     -0.8480    -14.0410      1.7700     78.3900
    329     -1.0080     -0.3140    -14.1870      0.0100     78.3900
    330     -1.7210     -1.7910    -13.5020      0.0100     78.3900
    331     -2.8890      0.0160    -13.1660      1.7700     78.3900
    332     -3.8970     -0.4370    -13.0680      0.0100     78.3900
    333     -2.3050      0.0660    -11.8340      1.5900     78.3900
    334     -2.4380      1.3730    -11.2850      1.7700     78.3900
    335     -2.9730      1.2400    -10.3150      0.0100     78.3900
    336     -1.1070      2.0190    -11.0440      1.6800     78.3900
    337      0.0390      1.5390    -11.6550      1.7700     78.3900
    338     -0.0870      0.6630    -12.2980      0.0100     78.3900
    339     -1.0370      3.0850    -10.1700      1.7700     78.3900
    340     -2.0250      3.5590     -9.6120      1.5900     78.3900
    341      0.2220      3.5870     -9.9580      1.6800     78.3900
    342      0.3130      4.3530     -9.3040      0.0100     78.3900
    343      1.4070      3.1230    -10.4860      1.7700     78.3900
    344      2.4690      3.6420    -10.1550      1.5900     78.3900
    345      1.2590      2.0280    -11.3950      1.7700     78.3900
    346      2.1510      1.5860    -11.8360      0.0100     78.3900
    347     -3.3200      2.1690    -12.2330      1.7700     78.3900
    348     -3.0400      3.2400    -12.2600      0.0100     78.3900
    349     -4.6800      2.0540    -11.8650      1.5900     78.3900
    350     -5.1970      2.3990    -12.6070      0.0100     78.3900
    351     -3.0430      1.4910    -13.5700      1.7700     78.3900
    352     -2.0310      1.7930    -13.9330      0.0100     78.3900
    353     -4.1060      1.6460    -14.5520      1.5900     78.3900
    354     -3.8900      2.6790    -15.7220      2.1000     78.3900
    355     -2.4410      2.7990    -16.0020      1.5900     78.3900
    356     -4.7520      2.3700    -16.8840      1.5900     78.3900
    357     -4.3680      4.0390    -15.0830      1.5900     78.3900
    358     -5.7600      4.2520    -14.7470      1.7700     78.3900
    359     -6.1640      3.4200    -14.1220      0.0100     78.3900
    360     -6.3740      4.3060    -15.6760      0.0100     78.3900
    361     -5.9700      5.5620    -13.9730      1.7700     78.3900
    362     -7.0520      5.7460    -13.7970      0.0100     78.3900
    363     -5.3420      5.4580    -12.6670      1.5900     78.3900
    364     -4.7870      6.7170    -12.3090      1.7700     78.3900
    365     -5.2590      6.9950    -11.3370      0.0100     78.3900
    366     -3.3060      6.6520    -12.1400      1.6800     78.3900
    367     -2.5860      5.6950    -12.8180      1.7700     78.3900
    368     -3.1710      4.9990    -13.4190      0.0100     78.3900
    369     -1.2580      5.5910    -12.6870      1.7700     78.3900
    370     -0.6840      4.8070    -13.1740      0.0100     78.3900
    371     -2.6290      7.6140    -11.3970      1.7700     78.3900
    372     -3.2650      8.5530    -10.8940      1.5900     78.3900
    373     -1.2930      7.4960    -11.2110      1.6800     78.3900
    374     -0.6040      6.5270    -11.8410      1.7700     78.3900
    375      0.7080      6.4270    -11.6410      1.6800     78.3900
    376      1.1710      7.1090    -11.0680      0.0100     78.3900
    377      1.2770      5.7800    -12.1560      0.0100     78.3900
    378     -5.2110      7.7230    -13.3630      1.7700     78.3900
    379     -4.4520      8.5130    -13.5230      0.0100     78.3900
    380     -6.4400      8.3260    -13.0100      1.5900     78.3900
    381     -6.7130      8.8600    -13.7650      0.0100     78.3900
    382     -5.3590      6.8300    -14.5890      1.7700     78.3900
    383     -4.3510      6.5430    -14.9690      0.0100     78.3900
    384     -6.2370      7.3480    -15.6140      1.5900     78.3900
    385     -5.6150      8.0450    -16.8800      2.1000     78.3900
    386     -4.4420      7.2750    -17.3400      1.5900     78.3900
    387     -6.6890      8.2790    -17.8700      1.5900     78.3900
    388     -5.1130      9.4250    -16.3040      1.5900     78.3900
    389     -6.0800     10.4150    -15.8820      1.7700     78.3900
    390     -6.7890      9.9980    -15.1300      0.0100     78.3900
    391     -6.6810     10.7680    -16.7540      0.0100     78.3900
    392     -5.3900     11.6340    -15.2610      1.7700     78.3900
    393     -6.1300     12.4250    -15.0080      0.0100     78.3900
    394     -4.7310     11.2490    -14.0200      1.5900     78.3900
    395     -3.5100     11.9700    -13.9020      1.7700     78.3900
    396     -3.5440     12.5100    -12.9300      0.0100     78.3900
    397     -2.3520     11.0660    -13.8980      1.6800     78.3900
    398     -1.1010     11.3590    -13.4280      1.7700     78.3900
    399      1.1490     13.6050    -12.0560      1.6800     78.3900
    400      0.6000     14.4300    -11.9520      0.0100     78.3900
    401      2.1150     13.6230    -11.7810      0.0100     78.3900
    402     -0.7110     12.5330    -12.8990      1.6800     78.3900
    403      0.5760     12.5270    -12.5520      1.7700     78.3900
    404      1.3820     11.4260    -12.6810      1.6800     78.3900
    405      2.3510     11.5130    -12.4140      0.0100     78.3900
    406      1.0060     10.2040    -13.2230      1.7700     78.3900
    407      1.8050      9.2660    -13.3100      1.5900     78.3900
    408     -0.3540     10.2120    -13.6240      1.7700     78.3900
    409     -1.1120      9.2270    -14.2430      1.6800     78.3900
    410     -2.2940      9.7790    -14.3830      1.7700     78.3900
    411     -3.1680      9.3040    -14.8310      0.0100     78.3900
    412     -3.4470     12.9730    -15.0450      1.7700     78.3900
    413     -2.4070     13.1340    -15.4000      0.0100     78.3900
    414     -4.0170     14.2100    -14.6410      1.5900     78.3900
    415     -4.0950     14.7950    -15.4130      0.0100     78.3900
    416     -4.2750     12.2600    -16.1090      1.7700     78.3900
    417     -3.6830     11.4400    -16.5730      0.0100     78.3900
    418     -4.8260     13.1260    -17.1150      1.5900     78.3900
    419     -4.1140     13.5110    -17.6540      0.0100     78.3900

     ----------------------------
     INPUT FOR TESSERA DEFINITION
     ----------------------------
     NTSALL  =        60     MTHALL  =         4
     MTHAUT  =         0     AUTFRE  =    2.0000
     NTSFRZ  =        60     KEEPSM  =         0
     AREAKP  =   10.0000     BONDRY  =    1.0000
     AREATL  =    0.0100

     SPHERE     INITS       METHOD
          1        60       FIXPVA
          2        60       FIXPVA
          3        60       FIXPVA
          4        60       FIXPVA
          5        60       FIXPVA
          6        60       FIXPVA
          7        60       FIXPVA
          8        60       FIXPVA
          9        60       FIXPVA
         10        60       FIXPVA
         11        60       FIXPVA
         12        60       FIXPVA
         13        60       FIXPVA
         14        60       FIXPVA
         15        60       FIXPVA
         16        60       FIXPVA
         17        60       FIXPVA
         18        60       FIXPVA
         19        60       FIXPVA
         20        60       FIXPVA
         21        60       FIXPVA
         22        60       FIXPVA
         23        60       FIXPVA
         24        60       FIXPVA
         25        60       FIXPVA
         26        60       FIXPVA
         27        60       FIXPVA
         28        60       FIXPVA
         29        60       FIXPVA
         30        60       FIXPVA
         31        60       FIXPVA
         32        60       FIXPVA
         33        60       FIXPVA
         34        60       FIXPVA
         35        60       FIXPVA
         36        60       FIXPVA
         37        60       FIXPVA
         38        60       FIXPVA
         39        60       FIXPVA
         40        60       FIXPVA
         41        60       FIXPVA
         42        60       FIXPVA
         43        60       FIXPVA
         44        60       FIXPVA
         45        60       FIXPVA
         46        60       FIXPVA
         47        60       FIXPVA
         48        60       FIXPVA
         49        60       FIXPVA
         50        60       FIXPVA
         51        60       FIXPVA
         52        60       FIXPVA
         53        60       FIXPVA
         54        60       FIXPVA
         55        60       FIXPVA
         56        60       FIXPVA
         57        60       FIXPVA
         58        60       FIXPVA
         59        60       FIXPVA
         60        60       FIXPVA
         61        60       FIXPVA
         62        60       FIXPVA
         63        60       FIXPVA
         64        60       FIXPVA
         65        60       FIXPVA
         66        60       FIXPVA
         67        60       FIXPVA
         68        60       FIXPVA
         69        60       FIXPVA
         70        60       FIXPVA
         71        60       FIXPVA
         72        60       FIXPVA
         73        60       FIXPVA
         74        60       FIXPVA
         75        60       FIXPVA
         76        60       FIXPVA
         77        60       FIXPVA
         78        60       FIXPVA
         79        60       FIXPVA
         80        60       FIXPVA
         81        60       FIXPVA
         82        60       FIXPVA
         83        60       FIXPVA
         84        60       FIXPVA
         85        60       FIXPVA
         86        60       FIXPVA
         87        60       FIXPVA
         88        60       FIXPVA
         89        60       FIXPVA
         90        60       FIXPVA
         91        60       FIXPVA
         92        60       FIXPVA
         93        60       FIXPVA
         94        60       FIXPVA
         95        60       FIXPVA
         96        60       FIXPVA
         97        60       FIXPVA
         98        60       FIXPVA
         99        60       FIXPVA
        100        60       FIXPVA
        101        60       FIXPVA
        102        60       FIXPVA
        103        60       FIXPVA
        104        60       FIXPVA
        105        60       FIXPVA
        106        60       FIXPVA
        107        60       FIXPVA
        108        60       FIXPVA
        109        60       FIXPVA
        110        60       FIXPVA
        111        60       FIXPVA
        112        60       FIXPVA
        113        60       FIXPVA
        114        60       FIXPVA
        115        60       FIXPVA
        116        60       FIXPVA
        117        60       FIXPVA
        118        60       FIXPVA
        119        60       FIXPVA
        120        60       FIXPVA
        121        60       FIXPVA
        122        60       FIXPVA
        123        60       FIXPVA
        124        60       FIXPVA
        125        60       FIXPVA
        126        60       FIXPVA
        127        60       FIXPVA
        128        60       FIXPVA
        129        60       FIXPVA
        130        60       FIXPVA
        131        60       FIXPVA
        132        60       FIXPVA
        133        60       FIXPVA
        134        60       FIXPVA
        135        60       FIXPVA
        136        60       FIXPVA
        137        60       FIXPVA
        138        60       FIXPVA
        139        60       FIXPVA
        140        60       FIXPVA
        141        60       FIXPVA
        142        60       FIXPVA
        143        60       FIXPVA
        144        60       FIXPVA
        145        60       FIXPVA
        146        60       FIXPVA
        147        60       FIXPVA
        148        60       FIXPVA
        149        60       FIXPVA
        150        60       FIXPVA
        151        60       FIXPVA
        152        60       FIXPVA
        153        60       FIXPVA
        154        60       FIXPVA
        155        60       FIXPVA
        156        60       FIXPVA
        157        60       FIXPVA
        158        60       FIXPVA
        159        60       FIXPVA
        160        60       FIXPVA
        161        60       FIXPVA
        162        60       FIXPVA
        163        60       FIXPVA
        164        60       FIXPVA
        165        60       FIXPVA
        166        60       FIXPVA
        167        60       FIXPVA
        168        60       FIXPVA
        169        60       FIXPVA
        170        60       FIXPVA
        171        60       FIXPVA
        172        60       FIXPVA
        173        60       FIXPVA
        174        60       FIXPVA
        175        60       FIXPVA
        176        60       FIXPVA
        177        60       FIXPVA
        178        60       FIXPVA
        179        60       FIXPVA
        180        60       FIXPVA
        181        60       FIXPVA
        182        60       FIXPVA
        183        60       FIXPVA
        184        60       FIXPVA
        185        60       FIXPVA
        186        60       FIXPVA
        187        60       FIXPVA
        188        60       FIXPVA
        189        60       FIXPVA
        190        60       FIXPVA
        191        60       FIXPVA
        192        60       FIXPVA
        193        60       FIXPVA
        194        60       FIXPVA
        195        60       FIXPVA
        196        60       FIXPVA
        197        60       FIXPVA
        198        60       FIXPVA
        199        60       FIXPVA
        200        60       FIXPVA
        201        60       FIXPVA
        202        60       FIXPVA
        203        60       FIXPVA
        204        60       FIXPVA
        205        60       FIXPVA
        206        60       FIXPVA
        207        60       FIXPVA
        208        60       FIXPVA
        209        60       FIXPVA
        210        60       FIXPVA
        211        60       FIXPVA
        212        60       FIXPVA
        213        60       FIXPVA
        214        60       FIXPVA
        215        60       FIXPVA
        216        60       FIXPVA
        217        60       FIXPVA
        218        60       FIXPVA
        219        60       FIXPVA
        220        60       FIXPVA
        221        60       FIXPVA
        222        60       FIXPVA
        223        60       FIXPVA
        224        60       FIXPVA
        225        60       FIXPVA
        226        60       FIXPVA
        227        60       FIXPVA
        228        60       FIXPVA
        229        60       FIXPVA
        230        60       FIXPVA
        231        60       FIXPVA
        232        60       FIXPVA
        233        60       FIXPVA
        234        60       FIXPVA
        235        60       FIXPVA
        236        60       FIXPVA
        237        60       FIXPVA
        238        60       FIXPVA
        239        60       FIXPVA
        240        60       FIXPVA
        241        60       FIXPVA
        242        60       FIXPVA
        243        60       FIXPVA
        244        60       FIXPVA
        245        60       FIXPVA
        246        60       FIXPVA
        247        60       FIXPVA
        248        60       FIXPVA
        249        60       FIXPVA
        250        60       FIXPVA
        251        60       FIXPVA
        252        60       FIXPVA
        253        60       FIXPVA
        254        60       FIXPVA
        255        60       FIXPVA
        256        60       FIXPVA
        257        60       FIXPVA
        258        60       FIXPVA
        259        60       FIXPVA
        260        60       FIXPVA
        261        60       FIXPVA
        262        60       FIXPVA
        263        60       FIXPVA
        264        60       FIXPVA
        265        60       FIXPVA
        266        60       FIXPVA
        267        60       FIXPVA
        268        60       FIXPVA
        269        60       FIXPVA
        270        60       FIXPVA
        271        60       FIXPVA
        272        60       FIXPVA
        273        60       FIXPVA
        274        60       FIXPVA
        275        60       FIXPVA
        276        60       FIXPVA
        277        60       FIXPVA
        278        60       FIXPVA
        279        60       FIXPVA
        280        60       FIXPVA
        281        60       FIXPVA
        282        60       FIXPVA
        283        60       FIXPVA
        284        60       FIXPVA
        285        60       FIXPVA
        286        60       FIXPVA
        287        60       FIXPVA
        288        60       FIXPVA
        289        60       FIXPVA
        290        60       FIXPVA
        291        60       FIXPVA
        292        60       FIXPVA
        293        60       FIXPVA
        294        60       FIXPVA
        295        60       FIXPVA
        296        60       FIXPVA
        297        60       FIXPVA
        298        60       FIXPVA
        299        60       FIXPVA
        300        60       FIXPVA
        301        60       FIXPVA
        302        60       FIXPVA
        303        60       FIXPVA
        304        60       FIXPVA
        305        60       FIXPVA
        306        60       FIXPVA
        307        60       FIXPVA
        308        60       FIXPVA
        309        60       FIXPVA
        310        60       FIXPVA
        311        60       FIXPVA
        312        60       FIXPVA
        313        60       FIXPVA
        314        60       FIXPVA
        315        60       FIXPVA
        316        60       FIXPVA
        317        60       FIXPVA
        318        60       FIXPVA
        319        60       FIXPVA
        320        60       FIXPVA
        321        60       FIXPVA
        322        60       FIXPVA
        323        60       FIXPVA
        324        60       FIXPVA
        325        60       FIXPVA
        326        60       FIXPVA
        327        60       FIXPVA
        328        60       FIXPVA
        329        60       FIXPVA
        330        60       FIXPVA
        331        60       FIXPVA
        332        60       FIXPVA
        333        60       FIXPVA
        334        60       FIXPVA
        335        60       FIXPVA
        336        60       FIXPVA
        337        60       FIXPVA
        338        60       FIXPVA
        339        60       FIXPVA
        340        60       FIXPVA
        341        60       FIXPVA
        342        60       FIXPVA
        343        60       FIXPVA
        344        60       FIXPVA
        345        60       FIXPVA
        346        60       FIXPVA
        347        60       FIXPVA
        348        60       FIXPVA
        349        60       FIXPVA
        350        60       FIXPVA
        351        60       FIXPVA
        352        60       FIXPVA
        353        60       FIXPVA
        354        60       FIXPVA
        355        60       FIXPVA
        356        60       FIXPVA
        357        60       FIXPVA
        358        60       FIXPVA
        359        60       FIXPVA
        360        60       FIXPVA
        361        60       FIXPVA
        362        60       FIXPVA
        363        60       FIXPVA
        364        60       FIXPVA
        365        60       FIXPVA
        366        60       FIXPVA
        367        60       FIXPVA
        368        60       FIXPVA
        369        60       FIXPVA
        370        60       FIXPVA
        371        60       FIXPVA
        372        60       FIXPVA
        373        60       FIXPVA
        374        60       FIXPVA
        375        60       FIXPVA
        376        60       FIXPVA
        377        60       FIXPVA
        378        60       FIXPVA
        379        60       FIXPVA
        380        60       FIXPVA
        381        60       FIXPVA
        382        60       FIXPVA
        383        60       FIXPVA
        384        60       FIXPVA
        385        60       FIXPVA
        386        60       FIXPVA
        387        60       FIXPVA
        388        60       FIXPVA
        389        60       FIXPVA
        390        60       FIXPVA
        391        60       FIXPVA
        392        60       FIXPVA
        393        60       FIXPVA
        394        60       FIXPVA
        395        60       FIXPVA
        396        60       FIXPVA
        397        60       FIXPVA
        398        60       FIXPVA
        399        60       FIXPVA
        400        60       FIXPVA
        401        60       FIXPVA
        402        60       FIXPVA
        403        60       FIXPVA
        404        60       FIXPVA
        405        60       FIXPVA
        406        60       FIXPVA
        407        60       FIXPVA
        408        60       FIXPVA
        409        60       FIXPVA
        410        60       FIXPVA
        411        60       FIXPVA
        412        60       FIXPVA
        413        60       FIXPVA
        414        60       FIXPVA
        415        60       FIXPVA
        416        60       FIXPVA
        417        60       FIXPVA
        418        60       FIXPVA
        419        60       FIXPVA

     ------------------------------
      FIXPVA TESSELLATION FOR PCM
         PEIFENG SU AND HUI LI
     UNIVERSITY OF NEBRASKA-LINCOLN
     ------------------------------


 PCM DIMENSIONS: MXSP=   419, MXTS=     16760, MEMORY=        172212

     INPUT FOR CAVITY DEFINITION 
     ---------------------------
   ATOM               COORDINATES                RADIUS       EPS
      1     10.3050     11.9100     -9.0250      0.0100     78.3900
      2      9.4170     12.3180     -9.0910      1.5900     78.3900
      3      9.5880     13.7330     -8.9390      1.7700     78.3900
      4     10.3220     14.0980     -9.6920      0.0100     78.3900
      5     10.0010     13.9310     -7.9260      0.0100     78.3900
      6      8.2780     14.5130     -9.0820      1.7700     78.3900
      7      8.4330     15.5940     -8.8710      0.0100     78.3900
      8      7.7900     14.4050    -10.4520      1.5900     78.3900
      9      6.3740     14.2690    -10.4300      1.7700     78.3900
     10      5.9830     15.0910    -11.0730      0.0100     78.3900
     11      5.9050     12.9670    -10.9770      1.6800     78.3900
     12      6.7720     11.9000    -11.0750      1.7700     78.3900
     13      7.7950     12.0750    -10.7410      0.0100     78.3900
     14      6.3780     10.7260    -11.5850      1.7700     78.3900
     15      7.0530      9.8790    -11.6940      0.0100     78.3900
     16      4.5810     12.8180    -11.3810      1.7700     78.3900
     17      3.8030     13.7790    -11.2690      1.5900     78.3900
     18      4.1710     11.6470    -11.9190      1.6800     78.3900
     19      5.0270     10.6140    -12.0200      1.7700     78.3900
     20      4.6030      9.4750    -12.5620      1.6800     78.3900
     21      3.6460      9.3860    -12.8500      0.0100     78.3900
     22      5.2120      8.6920    -12.6740      0.0100     78.3900
     23      5.9150     14.5040     -9.0080      1.7700     78.3900
     24      4.9950     13.9390     -8.7600      0.0100     78.3900
     25      5.6940     15.8840     -8.8010      1.5900     78.3900
     26      5.4270     15.9830     -7.8790      0.0100     78.3900
     27      7.1140     14.0040     -8.2120      1.7700     78.3900
     28      7.1490     12.8900     -8.2330      0.0100     78.3900
     29      7.2330     14.5450     -6.8770      1.5900     78.3900
     30      6.5610     13.8000     -5.6660      2.1000     78.3900
     31      6.9520     12.3750     -5.7100      1.5900     78.3900
     32      6.8980     14.5360     -4.4310      1.5900     78.3900
     33      5.0190     13.9450     -5.9550      1.5900     78.3900
     34      4.3960     15.2450     -5.7830      1.7700     78.3900
     35      4.9180     16.0320     -6.3720      0.0100     78.3900
     36      4.4310     15.5570     -4.7130      0.0100     78.3900
     37      2.9240     15.2230     -6.2190      1.7700     78.3900
     38      2.4690     16.2320     -6.1410      0.0100     78.3900
     39      2.8120     14.8040     -7.6100      1.5900     78.3900
     40      1.6760     13.9570     -7.7470      1.7700     78.3900
     41      1.0380     14.4130     -8.5380      0.0100     78.3900
     42      2.0510     12.6010     -8.1730      1.6800     78.3900
     43      1.2170     11.6830     -8.7500      1.7700     78.3900
     44     -1.9390     10.7620     -9.8450      1.6800     78.3900
     45     -2.4890     11.5650     -9.6250      0.0100     78.3900
     46     -2.3810      9.9560    -10.2510      0.0100     78.3900
     47     -0.0910     11.8560     -9.0060      1.6800     78.3900
     48     -0.6490     10.7840     -9.5570      1.7700     78.3900
     49      0.0580      9.6520     -9.8660      1.6800     78.3900
     50     -0.4320      8.8920    -10.3130      0.0100     78.3900
     51      1.4130      9.4490     -9.6350      1.7700     78.3900
     52      1.9660      8.3940     -9.9580      1.5900     78.3900
     53      2.0030     10.5760     -9.0050      1.7700     78.3900
     54      3.3060     10.7840     -8.5730      1.6800     78.3900
     55      3.2860     11.9990     -8.0780      1.7700     78.3900
     56      4.1390     12.5160     -7.6390      0.0100     78.3900
     57      0.9260     13.9650     -6.4310      1.7700     78.3900
     58      0.4150     13.0000     -6.2200      0.0100     78.3900
     59     -0.0210     15.0170     -6.4160      1.5900     78.3900
     60     -0.3700     15.0720     -5.5120      0.0100     78.3900
     61      2.0530     14.2270     -5.4400      1.7700     78.3900
     62      2.6690     13.3090     -5.3000      0.0100     78.3900
     63      1.6400     14.8140     -4.1860      1.5900     78.3900
     64      1.0890     13.8650     -3.0540      2.1000     78.3900
     65      1.9960     12.7030     -2.9300      1.5900     78.3900
     66      0.8710     14.6820     -1.8410      1.5900     78.3900
     67     -0.3100     13.3900     -3.5970      1.5900     78.3900
     68     -0.9480     12.2190     -3.0310      1.7700     78.3900
     69     -1.2710     12.4210     -1.9830      0.0100     78.3900
     70     -0.2500     11.3500     -3.0270      0.0100     78.3900
     71     -2.1860     11.8110     -3.8480      1.7700     78.3900
     72     -2.9460     12.6230     -3.8140      0.0100     78.3900
     73     -1.8150     11.6390     -5.2500      1.5900     78.3900
     74     -2.5030     10.5250     -5.7930      1.7700     78.3900
     75     -3.0230     10.8870     -6.7090      0.0100     78.3900
     76     -1.5630      9.4500     -6.1690      1.6800     78.3900
     77     -1.8500      8.3440     -6.9260      1.7700     78.3900
     78     -4.1280      6.4010     -8.6760      1.6800     78.3900
     79     -4.1630      5.5430     -9.1820      0.0100     78.3900
     80     -4.9560      6.9680     -8.6270      0.0100     78.3900
     81     -3.0510      8.0350     -7.4460      1.6800     78.3900
     82     -3.0300      6.8930     -8.1300      1.7700     78.3900
     83     -1.9000      6.1460     -8.3100      1.6800     78.3900
     84     -1.9670      5.3070     -8.8580      0.0100     78.3900
     85     -0.6410      6.4600     -7.8180      1.7700     78.3900
     86      0.3090      5.7110     -8.0620      1.5900     78.3900
     87     -0.6560      7.6550     -7.0480      1.7700     78.3900
     88      0.3690      8.3070     -6.3660      1.6800     78.3900
     89     -0.2200      9.3690     -5.8600      1.7700     78.3900
     90      0.2680     10.1350     -5.2510      0.0100     78.3900
     91     -3.5320     10.0800     -4.7700      1.7700     78.3900
     92     -3.7180      8.9880     -4.8100      0.0100     78.3900
     93     -4.7540     10.7690     -4.9650      1.5900     78.3900
     94     -5.3180     10.5380     -4.2160      0.0100     78.3900
     95     -2.8650     10.4850     -3.4590      1.7700     78.3900
     96     -2.0370      9.7780     -3.2160      0.0100     78.3900
     97     -3.7840     10.6950     -2.3590      1.5900     78.3900
     98     -4.0160      9.5500     -1.3020      2.1000     78.3900
     99     -2.7170      8.8970     -1.0400      1.5900     78.3900
    100     -4.7180     10.1320     -0.1350      1.5900     78.3900
    101     -4.9420      8.5130     -2.0340      1.5900     78.3900
    102     -6.3190      8.7920     -2.3640      1.7700     78.3900
    103     -6.4180      9.7440     -2.9380      0.0100     78.3900
    104     -6.9280      8.8870     -1.4370      0.0100     78.3900
    105     -6.9130      7.6580     -3.2160      1.7700     78.3900
    106     -7.9720      7.8720     -3.4780      0.0100     78.3900
    107     -6.1610      7.5630     -4.4590      1.5900     78.3900
    108     -6.0010      6.1990     -4.8170      1.7700     78.3900
    109     -6.4030      6.0970     -5.8500      0.0100     78.3900
    110     -4.5840      5.7980     -4.8200      1.6800     78.3900
    111     -4.0420      4.6960     -5.4310      1.7700     78.3900
    112     -4.3910      1.7920     -7.2870      1.6800     78.3900
    113     -3.8240      1.0460     -7.6330      0.0100     78.3900
    114     -5.3770      1.7620     -7.4530      0.0100     78.3900
    115     -4.7190      3.7690     -6.1350      1.6800     78.3900
    116     -3.9150      2.8120     -6.6030      1.7700     78.3900
    117     -2.5570      2.8140     -6.4270      1.6800     78.3900
    118     -2.0310      2.0550     -6.8280      0.0100     78.3900
    119     -1.8340      3.7670     -5.7270      1.7700     78.3900
    120     -0.6060      3.6780     -5.6370      1.5900     78.3900
    121     -2.6810      4.7750     -5.1930      1.7700     78.3900
    122     -2.3760      5.8940     -4.4330      1.6800     78.3900
    123     -3.5380      6.4650     -4.2300      1.7700     78.3900
    124     -3.7020      7.3750     -3.6520      0.0100     78.3900
    125     -6.8390      5.3750     -3.8660      1.7700     78.3900
    126     -6.3960      4.3780     -3.6640      0.0100     78.3900
    127     -8.1460      5.2220     -4.3910      1.5900     78.3900
    128     -8.6740      4.8130     -3.6930      0.0100     78.3900
    129     -6.8370      6.2420     -2.6090      1.7700     78.3900
    130     -5.8560      6.1670     -2.0860      0.0100     78.3900
    131     -7.9580      6.0160     -1.7270      1.5900     78.3900
    132     -7.8520      4.9730     -0.5530      2.1000     78.3900
    133     -6.6760      5.3070      0.2800      1.5900     78.3900
    134     -9.1480      4.9570      0.1650      1.5900     78.3900
    135     -7.5820      3.5960     -1.2570      1.5900     78.3900
    136     -8.6250      2.8550     -1.9220      1.7700     78.3900
    137     -9.1100      3.4650     -2.7160      0.0100     78.3900
    138     -9.4220      2.5560     -1.2050      0.0100     78.3900
    139     -8.0680      1.5800     -2.5670      1.7700     78.3900
    140     -8.8780      1.0190     -3.0860      0.0100     78.3900
    141     -7.0650      1.9210     -3.5640      1.5900     78.3900
    142     -6.0320      0.9520     -3.5350      1.7700     78.3900
    143     -5.9480      0.5460     -4.5660      0.0100     78.3900
    144     -4.7400      1.5490     -3.1520      1.6800     78.3900
    145     -3.5000      1.0120     -3.3820      1.7700     78.3900
    146     -1.5100     -1.5720     -4.5550      1.6800     78.3900
    147     -2.1810     -2.2440     -4.8610      0.0100     78.3900
    148     -0.5390     -1.8270     -4.5520      0.0100     78.3900
    149     -3.2470     -0.1660     -3.9790      1.6800     78.3900
    150     -1.9450     -0.4360     -4.0430      1.7700     78.3900
    151     -0.9810      0.4320     -3.6030      1.6800     78.3900
    152     -0.0170      0.1470     -3.6760      0.0100     78.3900
    153     -1.2090      1.6590     -2.9930      1.7700     78.3900
    154     -0.2690      2.3720     -2.6290      1.5900     78.3900
    155     -2.5980      1.9340     -2.8870      1.7700     78.3900
    156     -3.2590      3.0240     -2.3360      1.6800     78.3900
    157     -4.5290      2.7460     -2.5020      1.7700     78.3900
    158     -5.3630      3.3790     -2.1920      0.0100     78.3900
    159     -6.4660     -0.1530     -2.5910      1.7700     78.3900
    160     -5.6080     -0.6280     -2.0740      0.0100     78.3900
    161     -7.1900     -1.1400     -3.3010      1.5900     78.3900
    162     -7.5130     -1.7690     -2.6450      0.0100     78.3900
    163     -7.3580      0.6120     -1.6180      1.7700     78.3900
    164     -6.7300      1.2430     -0.9490      0.0100     78.3900
    165     -8.3380     -0.1850     -0.9070      1.5900     78.3900
    166     -7.9660     -0.6760      0.5490      2.1000     78.3900
    167     -7.3480      0.4240      1.3240      1.5900     78.3900
    168     -9.1580     -1.3210      1.1400      1.5900     78.3900
    169     -6.8670     -1.7740      0.2920      1.5900     78.3900
    170     -7.2650     -3.0400     -0.2850      1.7700     78.3900
    171     -7.7580     -2.9030     -1.2760      0.0100     78.3900
    172     -7.9860     -3.5660      0.3830      0.0100     78.3900
    173     -6.0610     -3.9630     -0.4830      1.7700     78.3900
    174     -6.3730     -4.9370     -0.9220      0.0100     78.3900
    175     -5.1230     -3.3430     -1.4070      1.5900     78.3900
    176     -3.7980     -3.6180     -0.9820      1.7700     78.3900
    177     -3.2850     -4.1180     -1.8320      0.0100     78.3900
    178     -3.0720     -2.3800     -0.6600      1.6800     78.3900
    179     -1.7140     -2.2400     -0.5780      1.7700     78.3900
    180      1.4600     -3.6100     -0.7510      1.6800     78.3900
    181      1.2700     -4.5730     -0.9330      0.0100     78.3900
    182      2.4120     -3.3060     -0.6570      0.0100     78.3900
    183     -0.8110     -3.2190     -0.7480      1.6800     78.3900
    184      0.4410     -2.7810     -0.6290      1.7700     78.3900
    185      0.7530     -1.4760     -0.3520      1.6800     78.3900
    186      1.7260     -1.2290     -0.2620      0.0100     78.3900
    187     -0.1570     -0.4460     -0.1550      1.7700     78.3900
    188      0.2190      0.7040      0.0940      1.5900     78.3900
    189     -1.4960     -0.9080     -0.2760      1.7700     78.3900
    190     -2.6990     -0.2230     -0.1620      1.6800     78.3900
    191     -3.6070     -1.1400     -0.3940      1.7700     78.3900
    192     -4.6860     -0.9840     -0.3670      0.0100     78.3900
    193     -3.8750     -4.5750      0.1970      1.7700     78.3900
    194     -3.0660     -4.3960      0.9390      0.0100     78.3900
    195     -3.8150     -5.9130     -0.2750      1.5900     78.3900
    196     -4.0390     -6.5160      0.4570      0.0100     78.3900
    197     -5.2410     -4.2340      0.7850      1.7700     78.3900
    198     -5.1930     -3.2920      1.3700      0.0100     78.3900
    199     -5.8320     -5.2940      1.5610      1.5900     78.3900
    200     -5.3490     -5.3990      2.4000      0.0100     78.3900
    201     10.1030      1.0760     -0.3200      0.0100     78.3900
    202      9.4200      0.4180     -0.5630      1.5900     78.3900
    203     10.0430     -0.8720     -0.4640      1.7700     78.3900
    204     10.4820     -0.9830      0.5540      0.0100     78.3900
    205     10.8770     -0.9250     -1.1990      0.0100     78.3900
    206      9.0860     -2.0400     -0.7320      1.7700     78.3900
    207      9.6420     -3.0040     -0.7520      0.0100     78.3900
    208      8.0910     -2.1330      0.3340      1.5900     78.3900
    209      6.8320     -2.4710     -0.2360      1.7700     78.3900
    210      6.4860     -3.3860      0.3020      0.0100     78.3900
    211      5.8140     -1.3940     -0.0720      1.6800     78.3900
    212      6.2030     -0.1020      0.2090      1.7700     78.3900
    213      7.2770      0.0670      0.3100      0.0100     78.3900
    214      5.3060      0.8750      0.3880      1.7700     78.3900
    215      5.6010      1.8890      0.6510      0.0100     78.3900
    216      4.4600     -1.6860     -0.2120      1.7700     78.3900
    217      4.1170     -2.8480     -0.4710      1.5900     78.3900
    218      3.5400     -0.7080     -0.0490      1.6800     78.3900
    219      3.9270      0.5410      0.2660      1.7700     78.3900
    220      2.9960      1.4720      0.4730      1.6800     78.3900
    221      2.0270      1.2360      0.3660      0.0100     78.3900
    222      3.2390      2.4090      0.7310      0.0100     78.3900
    223      7.0750     -2.8260     -1.6900      1.7700     78.3900
    224      6.2020     -2.6000     -2.3340      0.0100     78.3900
    225      7.4110     -4.1950     -1.8110      1.5900     78.3900
    226      7.5930     -4.3510     -2.7460      0.0100     78.3900
    227      8.2630     -1.9280     -2.0240      1.7700     78.3900
    228      7.9280     -0.8670     -2.0990      0.0100     78.3900
    229      9.0640     -2.3510     -3.1550      1.5900     78.3900
    230      8.7230     -1.7590     -4.5820      2.1000     78.3900
    231      8.5750     -0.2920     -4.4740      1.5900     78.3900
    232      9.7070     -2.2530     -5.5710      1.5900     78.3900
[...]
   364   12   6.0   3.63    6.4   -0.036818    0.415114    0.411727
   365   12   1.0   0.00    0.0    0.000000    0.253262    0.253985
   366   12   7.0   0.00    0.0    0.000000   -0.822964   -0.837477
   367   12   6.0   2.04    3.6   -0.002443    0.175927    0.163768
   368   12   1.0   0.00    0.0    0.000000    0.315364    0.335285
   369   12   6.0   6.69   11.8   -0.037508   -0.409491   -0.422512
   370   12   1.0   0.00    0.0    0.000000    0.265832    0.270146
   371   12   6.0   0.00    0.0    0.000000    1.061673    1.101605
   372   12   8.0   5.17   11.3    0.087841   -0.786891   -0.769673
   373   12   7.0   0.00    0.0    0.000000   -0.872311   -0.870144
   374   12   6.0   0.01    0.0    0.000895    0.755242    0.767848
   375   12   7.0   7.90   15.5   -0.088321   -0.941329   -1.006087
   376   12   1.0   0.00    0.0    0.000000    0.469543    0.514897
   377   12   1.0   0.00    0.0    0.000000    0.441456    0.441222
   378   12   6.0   0.00    0.0   -0.000000    0.145122    0.113141
   379   12   1.0   0.00    0.0    0.000000    0.196572    0.228716
   380   12   8.0  16.51   36.1    0.086089   -0.821941   -0.840995
   381   12   1.0   0.00    0.0    0.000000    0.493980    0.519872
   382   12   6.0   0.24    0.4   -0.008556    0.143284    0.111914
   383   12   1.0   0.00    0.0    0.000000    0.244207    0.244509
   384   12   8.0   4.47    9.8    0.056615   -0.795496   -0.801610
   385   12  15.0   9.15   11.5    0.140359    1.604334    1.659381
   386   12   8.0  13.08   28.6    0.303514   -0.890129   -0.889425
   387   12   8.0  18.31   40.0    0.368588   -0.892926   -0.887539
   388   12   8.0   1.72    3.8    0.024780   -0.972538   -0.787042
   389   13   6.0  11.97   21.1   -0.078060    0.209032   -0.018932
   390   13   1.0   0.00    0.0    0.000000    0.151663    0.163166
   391   13   1.0   0.00    0.0    0.000000    0.239354    0.221605
   392   13   6.0   5.76   10.2   -0.046449    0.090840    0.153277
   393   13   1.0   0.00    0.0    0.000000    0.251523    0.222394
   394   13   8.0   4.54    9.9    0.053101   -0.726747   -0.733982
   395   13   6.0   4.73    8.3   -0.046182    0.419572    0.420896
   396   13   1.0   0.00    0.0    0.000000    0.250937    0.246773
   397   13   7.0   0.48    0.9   -0.001486   -0.793231   -0.803936
   398   13   6.0   1.90    3.3   -0.000314    0.712222    0.716203
   399   13   7.0  15.61   30.6   -0.082753   -0.967451   -1.054549
   400   13   1.0   0.00    0.0    0.000000    0.445489    0.437991
   401   13   1.0   0.00    0.0    0.000000    0.474537    0.527358
   402   13   7.0   8.16   16.0    0.114665   -0.757273   -0.761783
   403   13   6.0   1.59    2.8   -0.003664    0.978197    0.977359
   404   13   7.0   1.76    3.4    0.004277   -0.936532   -1.027866
   405   13   1.0   0.00    0.0    0.000000    0.484007    0.545537
   406   13   6.0   1.91    3.4    0.000851    0.870902    0.873769
   407   13   8.0   8.77   19.2    0.146005   -0.756789   -0.737039
   408   13   6.0   1.80    3.2    0.010456   -0.049122   -0.041998
   409   13   7.0   7.67   15.0    0.124729   -0.592634   -0.595341
   410   13   6.0   4.32    7.6    0.015977    0.272247    0.265719
   411   13   1.0   0.00    0.0    0.000000    0.261812    0.276596
   412   13   6.0   5.67   10.0   -0.051693    0.114300    0.114691
   413   13   1.0   0.00    0.0    0.000000    0.224254    0.224620
   414   13   8.0  20.43   44.7    0.040853   -0.838372   -0.841118
   415   13   1.0   0.00    0.0    0.000000    0.501984    0.501723
   416   13   6.0   5.24    9.2   -0.052743    0.168145    0.150747
   417   13   1.0   0.00    0.0    0.000000    0.221642    0.224637
   418   13   8.0  22.74   49.7   -0.026804   -0.851508   -0.855759
   419   13   1.0   0.00    0.0    0.000000    0.508682    0.508263

 Done with FMO properties.
 CPU     0: STEP CPU TIME=     0.00 TOTAL CPU TIME=      22629.0 (    377.1 MIN)
 TOTAL WALL CLOCK TIME=      49139.5 SECONDS, CPU UTILIZATION IS    46.05%
 CPU     0: STEP CPU TIME=     0.01 TOTAL CPU TIME=      22629.0 (    377.1 MIN)
 TOTAL WALL CLOCK TIME=      49141.4 SECONDS, CPU UTILIZATION IS    46.05%

 Total timing statistics in pairs (CPU,wall) for each rank, sec

    Rank   total     SCF    corr     DFT    CPHF     EFP    solv     ESP    geom
 -------------------------------------------------------------------------------
       1   22629.0   6192.5   8894.7      0.0    0.0   0.0  229.0  6831.4    0.0
       1   49141.8  13108.6  20705.7      0.0    0.0   0.0  615.3 13587.4    0.0
       2   22572.9   6158.0   8909.8      0.0    0.0   0.0  231.1  6792.1    0.0
       2   49141.9  13102.2  20710.8      0.0    0.0   0.0  615.1 13586.4    0.0
       3   21765.7   6153.6   8125.7      0.0    0.0   0.0  231.9  6779.7    0.0
       3   49141.9  13101.4  20710.8      0.0    0.0   0.0  615.7 13586.8    0.0
       4   22223.3   6114.7   8674.2      0.0    0.0   0.0  231.2  6735.1    0.0
       4   49141.8  13102.3  20710.8      0.0    0.0   0.0  614.3 13586.6    0.0
       5   22669.2   6162.2   8881.2      0.0    0.0   0.0  232.1  6900.1    0.0
       5   49141.9  13102.6  20710.8      0.0    0.0   0.0  615.0 13586.5    0.0
       6   21792.5   6120.9   8194.3      0.0    0.0   0.0  231.3  6773.2    0.0
       6   49141.9  13103.2  20710.9      0.0    0.0   0.0  613.9 13586.3    0.0
       7   22289.4   6185.0   8693.7      0.0    0.0   0.0  229.7  6703.5    0.0
       7   49141.8  13103.3  20710.9      0.0    0.0   0.0  614.0 13586.4    0.0
       8   21361.9   6067.3   8017.5      0.0    0.0   0.0  230.5  6561.5    0.0
       8   49141.9  13103.8  20710.8      0.0    0.0   0.0  612.9 13586.3    0.0
       9   21382.0   6123.6   7929.8      0.0    0.0   0.0  224.5  6638.3    0.0
       9   49141.9  13104.1  20710.8      0.0    0.0   0.0  613.2 13586.8    0.0
      10   22054.3   6123.7   8508.1      0.0    0.0   0.0  227.6  6727.9    0.0
      10   49141.9  13103.8  20710.7      0.0    0.0   0.0  613.0 13586.7    0.0
      11   21880.7   6099.5   8482.0      0.0    0.0   0.0  225.5  6600.5    0.0
      11   49141.9  13104.4  20710.7      0.0    0.0   0.0  612.8 13586.4    0.0
      12   22280.4   6103.5   8708.7      0.0    0.0   0.0  225.1  6760.2    0.0
      12   49141.9  13104.9  20710.7      0.0    0.0   0.0  611.7 13586.3    0.0
      13   21789.7   6109.0   8290.8      0.0    0.0   0.0  225.5  6699.2    0.0
      13   49141.9  13105.4  20710.7      0.0    0.0   0.0  612.4 13586.6    0.0
      14   21546.3   6093.8   8133.3      0.0    0.0   0.0  227.9  6624.1    0.0
      14   49141.8  13104.7  20710.7      0.0    0.0   0.0  612.3 13586.5    0.0
      15   21563.8   6124.8   8143.4      0.0    0.0   0.0  226.3  6611.3    0.0
      15   49141.8  13104.7  20710.7      0.0    0.0   0.0  612.0 13586.4    0.0
      16   21640.9   6107.6   8328.6      0.0    0.0   0.0  227.1  6510.9    0.0
      16   49141.8  13105.0  20710.7      0.0    0.0   0.0  611.1 13586.4    0.0
averaged   21965.1   6127.5   8432.2      0.0    0.0   0.0  228.5  6703.1    0.0
averaged   49141.9  13104.0  20710.5      0.0    0.0   0.0  613.4 13586.6    0.0

  FMO  timing statistics in pairs (CPU,wall) for each rank, sec

    Rank  FMOini FMOscf1  FMOdm1 FMOsyn1 FMOscf2  FMOes2 FMOsyn2 FMOscf3 FMOsyn3
 -------------------------------------------------------------------------------
       1    2.6    8313.1    0.4    0.0   13970.8     342.0    0.0    0.0    0.0
       1    6.4   17306.5    0.7    0.0   31124.9     698.1    1.2    0.0    0.0
       2    2.0    8308.3    0.1    0.0   13916.7     345.8    0.0    0.0    0.0
       2    6.4   17306.5    0.7    0.0   31127.6     695.5    1.2    0.0    0.0
       3    2.2    8333.2    0.2    0.0   13093.1     337.1    0.0    0.0    0.0
       3    6.4   17306.5    0.7    0.0   31128.3     694.8    1.2    0.0    0.0
       4    2.0    8307.9    0.1    0.0   13580.0     333.4    0.0    0.0    0.0
       4    6.4   17306.5    0.7    0.0   31129.4     693.6    1.2    0.0    0.0
       5    2.4    8396.0    0.3    0.0   13915.9     354.7    0.0    0.0    0.0
       5    6.4   17306.5    0.7    0.0   31127.1     696.0    1.2    0.0    0.0
       6    2.0    8384.8    0.1    0.0   13068.6     337.1    0.0    0.0    0.0
       6    6.4   17306.5    0.7    0.0   31128.8     694.3    1.2    0.0    0.0
       7    2.2    8306.0    0.2    0.0   13638.6     342.5    0.0    0.0    0.0
       7    6.4   17306.5    0.7    0.0   31129.1     694.0    1.2    0.0    0.0
       8    1.9    8187.9    0.1    0.0   12819.9     352.1    0.0    0.0    0.0
       8    6.4   17306.5    0.7    0.0   31129.1     694.0    1.2    0.0    0.0
       9    2.3    8226.5    0.3    0.0   12821.2     331.7    0.0    0.0    0.0
       9    6.4   17306.5    0.7    0.0   31128.4     694.6    1.2    0.0    0.0
      10    1.9    8294.9    0.1    0.0   13423.7     333.7    0.0    0.0    0.0
      10    6.4   17306.5    0.7    0.0   31128.0     695.1    1.2    0.0    0.0
      11    2.0    8128.1    0.2    0.0   13408.6     341.9    0.0    0.0    0.0
      11    6.4   17306.5    0.7    0.0   31131.0     692.1    1.2    0.0    0.0
      12    1.8    8275.5    0.1    0.0   13649.4     353.6    0.0    0.0    0.0
      12    6.4   17306.5    0.7    0.0   31130.2     692.8    1.2    0.0    0.0
      13    2.1    8250.1    0.2    0.0   13205.1     332.2    0.0    0.0    0.0
      13    6.4   17306.5    0.7    0.0   31130.0     693.1    1.2    0.0    0.0
      14    1.8    8224.5    0.1    0.0   12985.2     334.6    0.0    0.0    0.0
      14    6.4   17306.5    0.7    0.0   31130.1     693.0    1.2    0.0    0.0
      15    1.9    8261.2    0.1    0.0   12973.4     327.1    0.0    0.0    0.0
      15    6.4   17306.5    0.7    0.0   31128.0     695.1    1.2    0.0    0.0
      16    1.8    8151.0    0.1    0.0   13151.6     336.3    0.0    0.0    0.0
      16    6.4   17306.5    0.7    0.0   31127.4     695.7    1.2    0.0    0.0
averaged    2.0    8271.8    0.2    0.0   13351.4     339.7    0.0    0.0    0.0
averaged    6.4   17306.5    0.7    0.0   31128.6     694.5    1.2    0.0    0.0
             62758740  WORDS OF DYNAMIC MEMORY USED
 EXECUTION OF GAMESS TERMINATED NORMALLY Mon Nov 18 11:47:05 2019
 DDI: 263640 bytes (0.3 MB / 0 MWords) used by master data server.

 ----------------------------------------
 CPU timing information for all processes
 ========================================
 0: 22086.932 + 542.77 = 22629.09
 1: 22075.978 + 496.937 = 22572.915
 2: 21294.162 + 471.630 = 21765.792
 3: 21740.759 + 482.645 = 22223.405
 4: 22141.782 + 527.449 = 22669.232
 5: 21329.352 + 463.195 = 21792.547
 6: 21793.594 + 495.854 = 22289.449
 7: 20912.845 + 449.102 = 21361.948
 8: 20902.748 + 479.303 = 21382.51
 9: 21597.482 + 456.857 = 22054.340
 10: 21403.827 + 476.951 = 21880.779
 11: 21815.189 + 465.237 = 22280.426
 12: 21313.511 + 476.211 = 21789.723
 13: 21093.185 + 453.137 = 21546.322
 14: 21100.422 + 463.381 = 21563.803
 15: 21167.174 + 473.762 = 21640.937
 ----------------------------------------
 ddikick.x: exited gracefully.
----- accounting info -----
Files used on the master node gollum059.lsa.umich.edu were:
-rw-r--r-- 1 hazwong frank    20853 Nov 17 22:08 /scratch/hazwong/638905/EXP_3/usrc/EXP_3_fmo_input.F05
-rw-r--r-- 1 hazwong frank      634 Nov 18 11:47 /scratch/hazwong/638905/EXP_3/usrc/EXP_3_fmo_input.F06.001
-rw-r--r-- 1 hazwong frank      634 Nov 18 11:47 /scratch/hazwong/638905/EXP_3/usrc/EXP_3_fmo_input.F06.002
-rw-r--r-- 1 hazwong frank      634 Nov 18 11:47 /scratch/hazwong/638905/EXP_3/usrc/EXP_3_fmo_input.F06.003
-rw-r--r-- 1 hazwong frank      634 Nov 18 11:47 /scratch/hazwong/638905/EXP_3/usrc/EXP_3_fmo_input.F06.004
-rw-r--r-- 1 hazwong frank      634 Nov 18 11:47 /scratch/hazwong/638905/EXP_3/usrc/EXP_3_fmo_input.F06.005
-rw-r--r-- 1 hazwong frank      634 Nov 18 11:47 /scratch/hazwong/638905/EXP_3/usrc/EXP_3_fmo_input.F06.006
-rw-r--r-- 1 hazwong frank      634 Nov 18 11:47 /scratch/hazwong/638905/EXP_3/usrc/EXP_3_fmo_input.F06.007
-rw-r--r-- 1 hazwong frank      634 Nov 18 11:47 /scratch/hazwong/638905/EXP_3/usrc/EXP_3_fmo_input.F06.008
-rw-r--r-- 1 hazwong frank      634 Nov 18 11:47 /scratch/hazwong/638905/EXP_3/usrc/EXP_3_fmo_input.F06.009
-rw-r--r-- 1 hazwong frank      634 Nov 18 11:47 /scratch/hazwong/638905/EXP_3/usrc/EXP_3_fmo_input.F06.010
-rw-r--r-- 1 hazwong frank      634 Nov 18 11:47 /scratch/hazwong/638905/EXP_3/usrc/EXP_3_fmo_input.F06.011
-rw-r--r-- 1 hazwong frank      634 Nov 18 11:47 /scratch/hazwong/638905/EXP_3/usrc/EXP_3_fmo_input.F06.012
-rw-r--r-- 1 hazwong frank      634 Nov 18 11:47 /scratch/hazwong/638905/EXP_3/usrc/EXP_3_fmo_input.F06.013
-rw-r--r-- 1 hazwong frank      634 Nov 18 11:47 /scratch/hazwong/638905/EXP_3/usrc/EXP_3_fmo_input.F06.014
-rw-r--r-- 1 hazwong frank      634 Nov 18 11:47 /scratch/hazwong/638905/EXP_3/usrc/EXP_3_fmo_input.F06.015
-rw-r--r-- 1 hazwong frank    14783 Nov 18 11:47 /scratch/hazwong/638905/EXP_3/usrc/EXP_3_fmo_input.F07
-rw-r--r-- 1 hazwong frank        0 Nov 17 22:08 /scratch/hazwong/638905/EXP_3/usrc/EXP_3_fmo_input.F07.001
-rw-r--r-- 1 hazwong frank        0 Nov 17 22:08 /scratch/hazwong/638905/EXP_3/usrc/EXP_3_fmo_input.F07.002
-rw-r--r-- 1 hazwong frank        0 Nov 17 22:08 /scratch/hazwong/638905/EXP_3/usrc/EXP_3_fmo_input.F07.003
-rw-r--r-- 1 hazwong frank        0 Nov 17 22:08 /scratch/hazwong/638905/EXP_3/usrc/EXP_3_fmo_input.F07.004
-rw-r--r-- 1 hazwong frank        0 Nov 17 22:08 /scratch/hazwong/638905/EXP_3/usrc/EXP_3_fmo_input.F07.005
-rw-r--r-- 1 hazwong frank        0 Nov 17 22:08 /scratch/hazwong/638905/EXP_3/usrc/EXP_3_fmo_input.F07.006
-rw-r--r-- 1 hazwong frank        0 Nov 17 22:08 /scratch/hazwong/638905/EXP_3/usrc/EXP_3_fmo_input.F07.007
-rw-r--r-- 1 hazwong frank        0 Nov 17 22:08 /scratch/hazwong/638905/EXP_3/usrc/EXP_3_fmo_input.F07.008
-rw-r--r-- 1 hazwong frank        0 Nov 17 22:08 /scratch/hazwong/638905/EXP_3/usrc/EXP_3_fmo_input.F07.009
-rw-r--r-- 1 hazwong frank        0 Nov 17 22:08 /scratch/hazwong/638905/EXP_3/usrc/EXP_3_fmo_input.F07.010
-rw-r--r-- 1 hazwong frank        0 Nov 17 22:08 /scratch/hazwong/638905/EXP_3/usrc/EXP_3_fmo_input.F07.011
-rw-r--r-- 1 hazwong frank        0 Nov 17 22:08 /scratch/hazwong/638905/EXP_3/usrc/EXP_3_fmo_input.F07.012
-rw-r--r-- 1 hazwong frank        0 Nov 17 22:08 /scratch/hazwong/638905/EXP_3/usrc/EXP_3_fmo_input.F07.013
-rw-r--r-- 1 hazwong frank        0 Nov 17 22:08 /scratch/hazwong/638905/EXP_3/usrc/EXP_3_fmo_input.F07.014
-rw-r--r-- 1 hazwong frank        0 Nov 17 22:08 /scratch/hazwong/638905/EXP_3/usrc/EXP_3_fmo_input.F07.015
-rw-r--r-- 1 hazwong frank    65440 Nov 18 11:47 /scratch/hazwong/638905/EXP_3/usrc/EXP_3_fmo_input.F10.000
-rw-r--r-- 1 hazwong frank        0 Nov 17 22:08 /scratch/hazwong/638905/EXP_3/usrc/EXP_3_fmo_input.F26.000
-rw-r--r-- 1 hazwong frank        0 Nov 17 22:08 /scratch/hazwong/638905/EXP_3/usrc/EXP_3_fmo_input.F26.001
-rw-r--r-- 1 hazwong frank        0 Nov 17 22:08 /scratch/hazwong/638905/EXP_3/usrc/EXP_3_fmo_input.F26.002
-rw-r--r-- 1 hazwong frank        0 Nov 17 22:08 /scratch/hazwong/638905/EXP_3/usrc/EXP_3_fmo_input.F26.003
-rw-r--r-- 1 hazwong frank        0 Nov 17 22:08 /scratch/hazwong/638905/EXP_3/usrc/EXP_3_fmo_input.F26.004
-rw-r--r-- 1 hazwong frank        0 Nov 17 22:08 /scratch/hazwong/638905/EXP_3/usrc/EXP_3_fmo_input.F26.005
-rw-r--r-- 1 hazwong frank        0 Nov 17 22:08 /scratch/hazwong/638905/EXP_3/usrc/EXP_3_fmo_input.F26.006
-rw-r--r-- 1 hazwong frank        0 Nov 17 22:08 /scratch/hazwong/638905/EXP_3/usrc/EXP_3_fmo_input.F26.007
-rw-r--r-- 1 hazwong frank        0 Nov 17 22:08 /scratch/hazwong/638905/EXP_3/usrc/EXP_3_fmo_input.F26.008
-rw-r--r-- 1 hazwong frank        0 Nov 17 22:08 /scratch/hazwong/638905/EXP_3/usrc/EXP_3_fmo_input.F26.009
-rw-r--r-- 1 hazwong frank        0 Nov 17 22:08 /scratch/hazwong/638905/EXP_3/usrc/EXP_3_fmo_input.F26.010
-rw-r--r-- 1 hazwong frank        0 Nov 17 22:08 /scratch/hazwong/638905/EXP_3/usrc/EXP_3_fmo_input.F26.011
-rw-r--r-- 1 hazwong frank        0 Nov 17 22:08 /scratch/hazwong/638905/EXP_3/usrc/EXP_3_fmo_input.F26.012
-rw-r--r-- 1 hazwong frank        0 Nov 17 22:08 /scratch/hazwong/638905/EXP_3/usrc/EXP_3_fmo_input.F26.013
-rw-r--r-- 1 hazwong frank        0 Nov 17 22:08 /scratch/hazwong/638905/EXP_3/usrc/EXP_3_fmo_input.F26.014
-rw-r--r-- 1 hazwong frank        0 Nov 17 22:08 /scratch/hazwong/638905/EXP_3/usrc/EXP_3_fmo_input.F26.015
-rw-r--r-- 1 hazwong frank        0 Nov 17 22:08 /scratch/hazwong/638905/EXP_3/usrc/EXP_3_fmo_input.F27.000
-rw-r--r-- 1 hazwong frank        0 Nov 17 22:08 /scratch/hazwong/638905/EXP_3/usrc/EXP_3_fmo_input.F27.001
-rw-r--r-- 1 hazwong frank        0 Nov 17 22:08 /scratch/hazwong/638905/EXP_3/usrc/EXP_3_fmo_input.F27.002
-rw-r--r-- 1 hazwong frank        0 Nov 17 22:08 /scratch/hazwong/638905/EXP_3/usrc/EXP_3_fmo_input.F27.003
-rw-r--r-- 1 hazwong frank        0 Nov 17 22:08 /scratch/hazwong/638905/EXP_3/usrc/EXP_3_fmo_input.F27.004
-rw-r--r-- 1 hazwong frank        0 Nov 17 22:08 /scratch/hazwong/638905/EXP_3/usrc/EXP_3_fmo_input.F27.005
-rw-r--r-- 1 hazwong frank        0 Nov 17 22:08 /scratch/hazwong/638905/EXP_3/usrc/EXP_3_fmo_input.F27.006
-rw-r--r-- 1 hazwong frank        0 Nov 17 22:08 /scratch/hazwong/638905/EXP_3/usrc/EXP_3_fmo_input.F27.007
-rw-r--r-- 1 hazwong frank        0 Nov 17 22:08 /scratch/hazwong/638905/EXP_3/usrc/EXP_3_fmo_input.F27.008
-rw-r--r-- 1 hazwong frank        0 Nov 17 22:08 /scratch/hazwong/638905/EXP_3/usrc/EXP_3_fmo_input.F27.009
-rw-r--r-- 1 hazwong frank        0 Nov 17 22:08 /scratch/hazwong/638905/EXP_3/usrc/EXP_3_fmo_input.F27.010
-rw-r--r-- 1 hazwong frank        0 Nov 17 22:08 /scratch/hazwong/638905/EXP_3/usrc/EXP_3_fmo_input.F27.011
-rw-r--r-- 1 hazwong frank        0 Nov 17 22:08 /scratch/hazwong/638905/EXP_3/usrc/EXP_3_fmo_input.F27.012
-rw-r--r-- 1 hazwong frank        0 Nov 17 22:08 /scratch/hazwong/638905/EXP_3/usrc/EXP_3_fmo_input.F27.013
-rw-r--r-- 1 hazwong frank        0 Nov 17 22:08 /scratch/hazwong/638905/EXP_3/usrc/EXP_3_fmo_input.F27.014
-rw-r--r-- 1 hazwong frank        0 Nov 17 22:08 /scratch/hazwong/638905/EXP_3/usrc/EXP_3_fmo_input.F27.015
-rw-r--r-- 1 hazwong frank 26624000 Nov 18 02:56 /scratch/hazwong/638905/EXP_3/usrc/EXP_3_fmo_input.F40.000
-rw-r--r-- 1 hazwong frank 26624000 Nov 18 02:56 /scratch/hazwong/638905/EXP_3/usrc/EXP_3_fmo_input.F40.001
-rw-r--r-- 1 hazwong frank 26624000 Nov 18 02:56 /scratch/hazwong/638905/EXP_3/usrc/EXP_3_fmo_input.F40.002
-rw-r--r-- 1 hazwong frank 26624000 Nov 18 02:56 /scratch/hazwong/638905/EXP_3/usrc/EXP_3_fmo_input.F40.003
-rw-r--r-- 1 hazwong frank 26624000 Nov 18 02:56 /scratch/hazwong/638905/EXP_3/usrc/EXP_3_fmo_input.F40.004
-rw-r--r-- 1 hazwong frank 26624000 Nov 18 02:56 /scratch/hazwong/638905/EXP_3/usrc/EXP_3_fmo_input.F40.005
-rw-r--r-- 1 hazwong frank 26624000 Nov 18 02:56 /scratch/hazwong/638905/EXP_3/usrc/EXP_3_fmo_input.F40.006
-rw-r--r-- 1 hazwong frank 26624000 Nov 18 02:56 /scratch/hazwong/638905/EXP_3/usrc/EXP_3_fmo_input.F40.007
-rw-r--r-- 1 hazwong frank 26624000 Nov 18 02:56 /scratch/hazwong/638905/EXP_3/usrc/EXP_3_fmo_input.F40.008
-rw-r--r-- 1 hazwong frank 26624000 Nov 18 02:56 /scratch/hazwong/638905/EXP_3/usrc/EXP_3_fmo_input.F40.009
-rw-r--r-- 1 hazwong frank 26624000 Nov 18 02:56 /scratch/hazwong/638905/EXP_3/usrc/EXP_3_fmo_input.F40.010
-rw-r--r-- 1 hazwong frank 26624000 Nov 18 02:56 /scratch/hazwong/638905/EXP_3/usrc/EXP_3_fmo_input.F40.011
-rw-r--r-- 1 hazwong frank 26624000 Nov 18 02:56 /scratch/hazwong/638905/EXP_3/usrc/EXP_3_fmo_input.F40.012
-rw-r--r-- 1 hazwong frank 26624000 Nov 18 02:56 /scratch/hazwong/638905/EXP_3/usrc/EXP_3_fmo_input.F40.013
-rw-r--r-- 1 hazwong frank 26624000 Nov 18 02:56 /scratch/hazwong/638905/EXP_3/usrc/EXP_3_fmo_input.F40.014
-rw-r--r-- 1 hazwong frank 26624000 Nov 18 02:56 /scratch/hazwong/638905/EXP_3/usrc/EXP_3_fmo_input.F40.015
Mon Nov 18 11:47:13 EST 2019
0.199u 0.087s 13:39:09.59 0.0%	0+0k 1104+160io 18pf+0w
