‘4A4R_1_fmo_input.inp’ -> ‘/scratch/hazwong/822158/./4A4R_1_fmo_input.inp’
‘rungms’ -> ‘/scratch/hazwong/822158/./rungms’
‘gms-files.csh’ -> ‘/scratch/hazwong/822158/./gms-files.csh’
----- GAMESS execution script 'rungms' -----
This job is running on host gollum083.lsa.umich.edu
under operating system Linux at Fri Dec 6 11:57:22 EST 2019
Available scratch disk space (Kbyte units) at beginning of the job is
Filesystem     1K-blocks  Used Available Use% Mounted on
/dev/sda4      426933580 33460 426900120   1% /scratch
GAMESS temporary binary files will be written to /scratch/hazwong/822158/4A4R_1/usrc
GAMESS supplementary output files will be written to /scratch/hazwong/822158/4A4R_1/src
Copying input file 4A4R_1_fmo_input.inp to your run's scratch directory...
cp 4A4R_1_fmo_input.inp /scratch/hazwong/822158/4A4R_1/usrc/4A4R_1_fmo_input.F05
unset echo
This is a GDDI run, keeping various output files on local disks
setenv OUTPUT /scratch/hazwong/822158/4A4R_1/usrc/4A4R_1_fmo_input.F06
setenv PUNCH /scratch/hazwong/822158/4A4R_1/usrc/4A4R_1_fmo_input.F07
unset echo
 
Assuming a single but multicore node.
 
/export/apps/CentOS7/gamess/src/build//ddikick.x /export/apps/CentOS7/gamess/src/build//gamess.R3.x 4A4R_1_fmo_input -ddi 1 16 gollum083.lsa.umich.edu:cpus=16 -scr /scratch/hazwong/822158/4A4R_1/usrc

 Distributed Data Interface kickoff program.
 Initiating 16 compute processes on 1 nodes to run the following command:
 /export/apps/CentOS7/gamess/src/build//gamess.R3.x 4A4R_1_fmo_input 

          ******************************************************
          *         GAMESS VERSION = 30 SEP 2018 (R3)         *
          *             FROM IOWA STATE UNIVERSITY             *
          * M.W.SCHMIDT, K.K.BALDRIDGE, J.A.BOATZ, S.T.ELBERT, *
          *   M.S.GORDON, J.H.JENSEN, S.KOSEKI, N.MATSUNAGA,   *
          *          K.A.NGUYEN, S.J.SU, T.L.WINDUS,           *
          *       TOGETHER WITH M.DUPUIS, J.A.MONTGOMERY       *
          *         J.COMPUT.CHEM.  14, 1347-1363(1993)        *
          **************** 64 BIT LINUX VERSION ****************

  SINCE 1993, STUDENTS AND POSTDOCS WORKING AT IOWA STATE UNIVERSITY
  AND ALSO IN THEIR VARIOUS JOBS AFTER LEAVING ISU HAVE MADE IMPORTANT
  CONTRIBUTIONS TO THE CODE:
     IVANA ADAMOVIC, CHRISTINE AIKENS, YURI ALEXEEV, POOJA ARORA,
     ANDREY ASADCHEV, ROB BELL, PRADIPTA BANDYOPADHYAY, JONATHAN BENTZ,
     BRETT BODE, KURT BRORSEN, CALEB CARLIN, GALINA CHABAN, WEI CHEN,
     CHEOL HO CHOI, PAUL DAY, ALBERT DEFUSCO, NUWAN DESILVA, TIM DUDLEY,
     DMITRI FEDOROV, ALEX FINDLATER, GRAHAM FLETCHER, MARK FREITAG,
     KURT GLAESEMANN, ANASTASIA GUNINA,
     DAN KEMP, GRANT MERRILL, NORIYUKI MINEZAWA, JONATHAN MULLIN,
     TAKESHI NAGATA, SEAN NEDD, HEATHER NETZLOFF, BOSILJKA NJEGIC, RYAN OLSON,
     MIKE PAK, BUU PHAM,
     SPENCER PRUITT, LUKE ROSKOP, JIM SHOEMAKER, LYUDMILA SLIPCHENKO,
     TONY SMITH, SAROM SOK LEANG, JIE SONG, TETSUYA TAKETSUGU, SIMON WEBB,
     PENG XU, SOOHAENG YOO, FEDERICO ZAHARIEV

  ADDITIONAL CODE HAS BEEN PROVIDED BY COLLABORATORS IN OTHER GROUPS:
     IOWA STATE UNIVERSITY:
          JOE IVANIC, AARON WEST, LAIMUTIS BYTAUTAS, KLAUS RUEDENBERG
     UNIVERSITY OF TOKYO: KIMIHIKO HIRAO, TAKAHITO NAKAJIMA,
          TAKAO TSUNEDA, MUNEAKI KAMIYA, SUSUMU YANAGISAWA,
          KIYOSHI YAGI, MAHITO CHIBA, SEIKEN TOKURA, NAOAKI KAWAKAMI
     UNIVERSITY OF AARHUS: FRANK JENSEN
     UNIVERSITY OF IOWA: VISVALDAS KAIRYS, HUI LI
     NATIONAL INST. OF STANDARDS AND TECHNOLOGY: WALT STEVENS, DAVID GARMER
     UNIVERSITY OF PISA: BENEDETTA MENNUCCI, JACOPO TOMASI
     UNIVERSITY OF MEMPHIS: HENRY KURTZ, PRAKASHAN KORAMBATH
     UNIVERSITY OF ALBERTA: TOBY ZENG, MARIUSZ KLOBUKOWSKI
     UNIVERSITY OF NEW ENGLAND: MARK SPACKMAN
     MIE UNIVERSITY: HIROAKI UMEDA
     NAT. INST. OF ADVANCED INDUSTRIAL SCIENCE AND TECHNOLOGY: KAZUO KITAURA
     MICHIGAN STATE UNIVERSITY:
          KAROL KOWALSKI, MARTA WLOCH, JEFFREY GOUR, JESSE LUTZ,
          WEI LI, JUN SHEN, J. EMILIANO DEUSTUA, PIOTR PIECUCH
     UNIVERSITY OF MINNESOTA:
          YINAN SHU
     UNIVERSITY OF SILESIA: MONIKA MUSIAL, STANISLAW KUCHARSKI
     FACULTES UNIVERSITAIRES NOTRE-DAME DE LA PAIX:
          OLIVIER QUINET, BENOIT CHAMPAGNE
     UNIVERSITY OF CALIFORNIA - SANTA BARBARA: BERNARD KIRTMAN
     INSTITUTE FOR MOLECULAR SCIENCE:
          KAZUYA ISHIMURA, MICHIO KATOUDA, AND SHIGERU NAGASE
     UNIVERSITY OF NOTRE DAME: ANNA POMOGAEVA, DAN CHIPMAN
     KYUSHU UNIVERSITY:
          HARUYUKI NAKANO,
          FENG LONG GU, JACEK KORCHOWIEC, MARCIN MAKOWSKI, AND YURIKO AOKI,
          HIROTOSHI MORI AND EISAKU MIYOSHI
     PENNSYLVANIA STATE UNIVERSITY:
          TZVETELIN IORDANOV, CHET SWALINA, JONATHAN SKONE,
          SHARON HAMMES-SCHIFFER
     WASEDA UNIVERSITY:
          MASATO KOBAYASHI, TOMOKO AKAMA, TSUGUKI TOUMA,
          TAKESHI YOSHIKAWA, YASUHIRO IKABATA, JUNJI SEINO,
          YUYA NAKAJIMA, HIROMI NAKAI
     NANJING UNIVERSITY: SHUHUA LI
     UNIVERSITY OF NEBRASKA:
          PEIFENG SU, DEJUN SI, NANDUN THELLAMUREGE, YALI WANG, HUI LI
     UNIVERSITY OF ZURICH: ROBERTO PEVERATI, KIM BALDRIDGE
     N. COPERNICUS UNIVERSITY AND JACKSON STATE UNIVERSITY:
          MARIA BARYSZ
     UNIVERSITY OF COPENHAGEN: Jimmy Kromann, CASPER STEINMANN
     TOKYO INSTITUTE OF TECHNOLOGY: HIROYA NAKATA
     NAGOYA UNIVERSITY: YOSHIO NISHIMOTO, STEPHAN IRLE
     MOSCOW STATE UNIVERSITY: VLADIMIR MIRONOV


 PARALLEL VERSION RUNNING ON       16 PROCESSORS IN        1 NODES.

 EXECUTION OF GAMESS BEGUN Fri Dec  6 11:57:22 2019

            ECHO OF THE FIRST FEW INPUT CARDS -
 INPUT CARD>!*** FMO 5.3 (Gamess) INPUT generated by Facio 22.1.1.32 ***                    
 INPUT CARD> $CONTRL RUNTYP=ENERGY NPRINT=-5 ISPHER=1 MAXIT=200 $END                        
 INPUT CARD> $SYSTEM MWORDS=63 MEMDDI=63 $END                                               
 INPUT CARD> $GDDI NGROUP=1 $END                                                            
 INPUT CARD> $SCF DIRSCF=.TRUE. NPUNCH=0 $END                                               
 INPUT CARD>!*** NumCPU : 2  MemPerNode : 512MB                                             
 INPUT CARD> $PCM SOLVNT=WATER IEF=-10 ICOMP=2 ICAV=1 IDISP=1 IFMO=-1 $END                  
 INPUT CARD> $PCMCAV RADII=SUAHF $END                                                       
 INPUT CARD> $TESCAV NTSALL=60 $END                                                         
 INPUT CARD> $FMOPRP                                                                        
 INPUT CARD>    NAODIR=200                                                                  
 INPUT CARD>    NGRFMO(1)=1, 1, 0, 0, 0,   0, 0, 0, 0, 0                                    
 INPUT CARD>    IPIEDA=1                                                                    
 INPUT CARD>    NPRINT=9                                                                    
 INPUT CARD> $END                                                                           
 INPUT CARD> $FMO                                                                           
 INPUT CARD>      SCFTYP(1)=RHF                                                             
 INPUT CARD>      MODGRD=10                                                                 
 INPUT CARD>      MODMUL=0                                                                  
 INPUT CARD>      MAXCAO=5                                                                  
 INPUT CARD>      MAXBND=10                                                                 
 INPUT CARD>      NLAYER=1                                                                  
 INPUT CARD>      MPLEVL(1)=2                                                               
 INPUT CARD>      NFRAG=8                                                                   
 INPUT CARD>      ICHARG(1)=-1, -1, -1, -1, -1, -1, -1, 0                                   
 INPUT CARD>      FRGNAM(1)=F1, F2, F3, F4, F5, F6, F7, F8                                  
 INPUT CARD>      indat(1)=0                                                                
 INPUT CARD>               1   -36   0                                                      
 INPUT CARD>               37   -67   0                                                     
 INPUT CARD>               68   -97   0                                                     
 INPUT CARD>               98   -130   0                                                    
 INPUT CARD>               131   -163   0                                                   
 INPUT CARD>               164   -194   0                                                   
 INPUT CARD>               195   -228   0                                                   
 INPUT CARD>               229   -256   0                                                   
 INPUT CARD> $END                                                                           
 INPUT CARD>                                                                                
 INPUT CARD> $FMOBND                                                                        
 INPUT CARD>   -37   36       6-31G*    MINI                                                
 INPUT CARD>   -68   67       6-31G*    MINI                                                
 INPUT CARD>   -98   97       6-31G*    MINI                                                
 INPUT CARD>   -131   130       6-31G*    MINI                                              
 INPUT CARD>   -164   163       6-31G*    MINI                                              
 INPUT CARD>   -195   194       6-31G*    MINI                                              
 INPUT CARD>   -229   228       6-31G*    MINI                                              
 INPUT CARD> $END                                                                           
 INPUT CARD> $FMOHYB                                                                        
 INPUT CARD> 6-31G*      15   5                                                             
 INPUT CARD>   1 0  -0.065034   0.288264   0.000000   0.000000   0.604412                   
 INPUT CARD>         0.290129   0.000000   0.000000   0.319045  -0.017106                   


 -------------------------------------------------------------
 GROUP DDI, PROGRAMMED BY: RYAN M. OLSON AND DMITRI G. FEDOROV
        FEDOROV ET AL., J. COMPUT. CHEM., 25 (2004) 872.
 -------------------------------------------------------------

 -------------------------------------------------------
 GDDI: INITIALIZATION COMPLETED FOR GROUP     1 OF     1
 WITH    16 PROCESSES BALTYP=DLB   global rank=        0
 -------------------------------------------------------

   63000000 WORDS OF MEMORY AVAILABLE


     RUN TITLE
     ---------
  FMO calculation                                                                

 THE POINT GROUP OF THE MOLECULE IS C1      
 THE ORDER OF THE PRINCIPAL AXIS IS     0

 ATOM   ATOMIC CHARGE
 H.1-1       1.0
 O.1-1       8.0
 C.1-1       6.0
 N.1-1       7.0
 P.1-1      15.0

     ATOMIC BASIS SET LIBRARY
     ----------------
 THE CONTRACTED PRIMITIVE FUNCTIONS HAVE BEEN UNNORMALIZED
 THE CONTRACTED BASIS FUNCTIONS ARE NOW NORMALIZED TO UNITY

  SHELL TYPE  PRIMITIVE        EXPONENT          CONTRACTION COEFFICIENT(S)

 H.1-1     

      1   S       1            18.7311370    0.033494604338
      1   S       2             2.8253944    0.234726953484
      1   S       3             0.6401217    0.813757326146

      2   S       4             0.1612778    1.000000000000

 O.1-1     

      3   S       5          5484.6716600    0.001831074430
      3   S       6           825.2349460    0.013950172200
      3   S       7           188.0469580    0.068445078098
      3   S       8            52.9645000    0.232714335992
      3   S       9            16.8975704    0.470192897984
      3   S      10             5.7996353    0.358520852987

      4   L      11            15.5396162   -0.110777549525    0.070874268231
      4   L      12             3.5999336   -0.148026262701    0.339752839147
      4   L      13             1.0137618    1.130767015354    0.727158577316

      5   L      14             0.2700058    1.000000000000    1.000000000000

      6   D      15             0.8000000    1.000000000000

 C.1-1     

      7   S      16          3047.5248800    0.001834737132
      7   S      17           457.3695180    0.014037322813
      7   S      18           103.9486850    0.068842622264
      7   S      19            29.2101553    0.232184443216
      7   S      20             9.2866630    0.467941348435
      7   S      21             3.1639270    0.362311985337

      8   L      22             7.8682723   -0.119332419775    0.068999066591
      8   L      23             1.8812885   -0.160854151696    0.316423960957
      8   L      24             0.5442493    1.143456437840    0.744308290898

      9   L      25             0.1687145    1.000000000000    1.000000000000

     10   D      26             0.8000000    1.000000000000

 N.1-1     

     11   S      27          4173.5114600    0.001834772160
     11   S      28           627.4579110    0.013994627002
     11   S      29           142.9020930    0.068586551812
     11   S      30            40.2343293    0.232240873040
     11   S      31            12.8202129    0.469069948082
     11   S      32             4.3904370    0.360455199063

     12   L      33            11.6263619   -0.114961181702    0.067579743878
     12   L      34             2.7162798   -0.169117478561    0.323907295893
     12   L      35             0.7722184    1.145851947027    0.740895139755

     13   L      36             0.2120315    1.000000000000    1.000000000000

     14   D      37             0.8000000    1.000000000000

 P.1-1     

     15   S      38         19413.3000000    0.001851598923
     15   S      39          2909.4200000    0.014206191735
     15   S      40           661.3640000    0.069999459277
     15   S      41           185.7590000    0.240078860331
     15   S      42            59.1943000    0.484761717984
     15   S      43            20.0310000    0.335199804993

     16   L      44           339.4780000   -0.002782170105    0.004564616191
     16   L      45            81.0101000   -0.036049901354    0.033693571881
     16   L      46            25.8780000   -0.116631004382    0.139754883368
     16   L      47             9.4522100    0.096832803638    0.339361716786
     16   L      48             3.6656600    0.614418023082    0.450920623685
     16   L      49             1.4674600    0.403798015170    0.238585800889

     17   L      50             2.1562300   -0.252924113863   -0.017765312733
     17   L      51             0.7489970    0.032851844678    0.274058196433
     17   L      52             0.2831450    1.081254761783    0.785421562957

     18   L      53             0.0998317    1.000000000000    1.000000000000

     19   D      54             0.5500000    1.000000000000

 TOTAL NUMBER OF BASIS SET SHELLS             =   19
 NUMBER OF CARTESIAN GAUSSIAN BASIS FUNCTIONS =   66

     $CONTRL OPTIONS
     ---------------
 SCFTYP=RHF          RUNTYP=ENERGY       EXETYP=RUN     
 MPLEVL=       0     CITYP =NONE         CCTYP =NONE         VBTYP =NONE    
 DFTTYP=NONE         TDDFT =NONE    
 MULT  =       1     ICHARG=       0     NZVAR =       0     COORD =UNIQUE  
 PP    =NONE         RELWFN=NONE         LOCAL =NONE         NUMGRD=       F
 ISPHER=       1     NOSYM =       0     MAXIT =     200     UNITS =ANGS    
 PLTORB=       F     MOLPLT=       F     AIMPAC=       F     FRIEND=        
 NPRINT=      -5     IREST =       0     GEOM  =INPUT   
 NORMF =       0     NORMP =       0     ITOL  =      24     ICUT  =      12
 INTTYP=BEST         GRDTYP=BEST         QMTTOL= 1.0E-06

     $SYSTEM OPTIONS
     ---------------
  REPLICATED MEMORY=    63000000 WORDS (ON EVERY NODE).
 DISTRIBUTED MEMDDI=          63 MILLION WORDS IN AGGREGATE,
 MEMDDI DISTRIBUTED OVER  16 PROCESSORS IS     3937500 WORDS/PROCESSOR.
 TOTAL MEMORY REQUESTED ON EACH PROCESSOR=    66937500 WORDS.
 TIMLIM=      525600.00 MINUTES, OR     365.0 DAYS.
 PARALL= T  BALTYP=  DLB     KDIAG=    0  COREFL= F
 MXSEQ2=     300 MXSEQ3=     150  mem10=         0

 ** LOOKING UP INTERNALLY STORED DATA FOR SOLVENT=WATER    **
 OPTICAL AND PHYSICAL CONSTANTS:
 EPS= 78.390; EPSINF=  1.776; RSOLV=  1.385 A; VMOL=  18.070 ML/MOL;
 TCE= .25700E-03 1/K; STEN= 71.810 DYN/CM;  DSTEN=  0.6500; CMF=  1.2770


     -----------------------------------
     INPUT FOR PCM SOLVATION CALCULATION 
     -----------------------------------
     IEF   =     -10
     ICOMP =       2     IFIELD=       0     ICAV  =       1
     IDISP =       1     IREP  =       0     IDP   =       0

     SOLVNT=WATER        EPS   = 78.3900     EPSINF=  1.7760
     VMOL  = 18.0700     TCE   =  0.00025700 STEN  = 71.8100
     DSTEN =  0.6500     CMF   =  1.2770     RSOLV =  1.3850

     NESFP =       0
     OMEGA = 40.0000     RET   =100.0000     FRO   =  0.7000

     TABS  =298.0000     IPRINT=       0

     --------------------------------
     INPUT FOR ITERATIVE C-PCM METHOD 
     --------------------------------
     IPCMIT  =         1     MXDIIS  =        50
     MXITR1  =       200     MXITR2  =       200
     THRES   = 0.100E-09     IMUL    =         3
     RCUT(1) =   20.0000     RCUT(2) =   50.0000

     IDIRCT  =         1
     IMGABI  =         0     RABI    =    4.0000
     IMGASC  =         0     RASC    =   20.0000
     THRSLS  = 0.500E-03     DENSLS  =    0.0100
     IEFPOL  =         1     REFPOL  =    0.0000

     INPUT FOR ISOTROPIC DIELECTRICS
     -------------------------------
     EPS=    78.39

          ----------------
          PROPERTIES INPUT
          ----------------

     MOMENTS            FIELD           POTENTIAL          DENSITY
 IEMOM =       1   IEFLD =       0   IEPOT =       0   IEDEN =       0
 WHERE =COMASS     WHERE =NUCLEI     WHERE =NUCLEI     WHERE =NUCLEI  
 OUTPUT=BOTH       OUTPUT=BOTH       OUTPUT=NONE       OUTPUT=BOTH    
 IEMINT=       0   IEFINT=       0                     IEDINT=       0
                                                       MORB  =       0
          EXTRAPOLATION IN EFFECT
          SOSCF IN EFFECT
 ORBITAL PRINTING OPTION: NPREO=     1 32767     2     1

     -------------------------------
     INTEGRAL TRANSFORMATION OPTIONS
     -------------------------------
     NWORD  =            0
     CUTOFF = 1.0E-10     MPTRAN =       0
     DIRTRF =       T     AOINTS =DUP     

          ----------------------
          INTEGRAL INPUT OPTIONS
          ----------------------
 NOPK  =       1 NORDER=       0 SCHWRZ=       T

 ..... DONE SETTING UP THE RUN .....
 CPU     0: STEP CPU TIME=     0.04 TOTAL CPU TIME=          0.0 (      0.0 MIN)
 TOTAL WALL CLOCK TIME=          0.1 SECONDS, CPU UTILIZATION IS    66.67%
 CPU     0: STEP CPU TIME=     0.00 TOTAL CPU TIME=          0.0 (      0.0 MIN)
 TOTAL WALL CLOCK TIME=          0.1 SECONDS, CPU UTILIZATION IS    66.67%

                    ----------------------
                    AO INTEGRAL TECHNOLOGY
                    ----------------------
     S,P,L SHELL ROTATED AXIS INTEGRALS, REPROGRAMMED BY
        KAZUYA ISHIMURA (IMS) AND JOSE SIERRA (SYNSTAR).
     S,P,D,L SHELL ROTATED AXIS INTEGRALS PROGRAMMED BY
        KAZUYA ISHIMURA (INSTITUTE FOR MOLECULAR SCIENCE).
     S,P,D,F,G SHELL TO TOTAL QUARTET ANGULAR MOMENTUM SUM 5,
        ERIC PROGRAM BY GRAHAM FLETCHER (ELORET AND NASA ADVANCED
        SUPERCOMPUTING DIVISION, AMES RESEARCH CENTER).
     S,P,D,F,G,L SHELL GENERAL RYS QUADRATURE PROGRAMMED BY
        MICHEL DUPUIS (PACIFIC NORTHWEST NATIONAL LABORATORY).
 Setting modorb=1 flag...
 Setting modorb=1 flag...

          -----------------------
          MP2 CONTROL INFORMATION
          -----------------------
          NACORE =        8  NBCORE =        8
          LMOMP2 =        F  AOINTS = DUP     
          METHOD =        2  NWORD  =               0
          MP2PRP =        F  OSPT   = NONE    
          CUTOFF = 1.00E-12  CPHFBS = BASISAO 
          CODE   = IMS     

          NUMBER OF CORE -A-  ORBITALS =     8
          NUMBER OF CORE -B-  ORBITALS =     8
          NUMBER OF OCC. -A-  ORBITALS =    18
          NUMBER OF OCC. -B-  ORBITALS =    18
          NUMBER OF MOLECULAR ORBITALS =    66
          NUMBER OF   BASIS  FUNCTIONS =    66

 CPU     0: STEP CPU TIME=     0.02 TOTAL CPU TIME=          0.1 (      0.0 MIN)
 TOTAL WALL CLOCK TIME=          0.1 SECONDS, CPU UTILIZATION IS    60.00%
 CPU     0: STEP CPU TIME=     0.00 TOTAL CPU TIME=          0.1 (      0.0 MIN)
 TOTAL WALL CLOCK TIME=          0.1 SECONDS, CPU UTILIZATION IS    60.00%

     INPUT FOR CAVITY DEFINITION 
     ---------------------------
   ATOM               COORDINATES                RADIUS       EPS
      1      1.4680      4.2310     14.7320      0.0100     78.3900
      2      1.5820      4.6670     13.8660      1.5900     78.3900
      3      2.9120      5.2060     13.8480      1.7700     78.3900
      4      3.6420      4.3760     13.9900      0.0100     78.3900
      5      3.0330      5.9180     14.6950      0.0100     78.3900
      6      3.2480      5.9390     12.5450      1.7700     78.3900
      7      4.2780      6.3550     12.5760      0.0100     78.3900
      8      3.1880      5.0080     11.4240      1.5900     78.3900
      9      2.6350      5.6690     10.2960      1.7700     78.3900
     10      3.3720      5.5620      9.4670      0.0100     78.3900
     11      1.3630      5.0580      9.8820      1.6800     78.3900
     12      0.7530      5.2140      8.6670      1.7700     78.3900
     13      0.6900      6.5980      5.4980      1.6800     78.3900
     14      1.5080      7.1730      5.4860      0.0100     78.3900
     15      0.1010      6.5710      4.6860      0.0100     78.3900
     16      1.2110      5.9610      7.6480      1.6800     78.3900
     17      0.4260      5.8900      6.5770      1.7700     78.3900
     18     -0.6910      5.0970      6.5170      1.6800     78.3900
     19     -1.2300      5.1030      5.6650      0.0100     78.3900
     20     -1.1700      4.2890      7.5380      1.7700     78.3900
     21     -2.1840      3.5980      7.3880      1.5900     78.3900
     22     -0.3750      4.4150      8.7110      1.7700     78.3900
     23     -0.4970      3.8010      9.9520      1.6800     78.3900
     24      0.5650      4.2050     10.6120      1.7700     78.3900
     25      0.8260      3.9180     11.6340      0.0100     78.3900
     26      2.4880      7.1320     10.6530      1.7700     78.3900
     27      1.6300      7.6110     10.1400      0.0100     78.3900
     28      3.6800      7.8220     10.3320      1.5900     78.3900
     29      3.5780      8.7230     10.6620      0.0100     78.3900
     30      2.2760      7.0660     12.1630      1.7700     78.3900
     31      1.2490      6.6910     12.3900      0.0100     78.3900
     32      2.6180      8.2790     12.8830      1.5900     78.3900
     33      1.4560      9.3100     13.1820      2.1000     78.3900
     34      0.2980      8.5920     13.7520      1.5900     78.3900
     35      2.0250     10.4070     14.0000      1.5900     78.3900
     36      1.0770      9.8490     11.7480      1.5900     78.3900
     37      2.0040     10.7200     11.0570      1.7700     78.3900
     38      2.9970     10.2370     10.9400      0.0100     78.3900
     39      2.1530     11.6640     11.6320      0.0100     78.3900
     40      1.5010     11.1010      9.6580      1.7700     78.3900
     41      2.2320     11.7720      9.1540      0.0100     78.3900
     42      1.3640      9.9150      8.8210      1.5900     78.3900
     43      0.2190     10.0650      7.9870      1.7700     78.3900
     44      0.5950      9.9570      6.9440      0.0100     78.3900
     45     -0.8240      9.0270      8.2250      1.6800     78.3900
     46     -0.8530      8.3360      9.4120      1.7700     78.3900
     47     -0.0950      8.6210     10.1430      0.0100     78.3900
     48     -1.7510      7.3660      9.6340      1.7700     78.3900
     49     -1.7700      6.7880     10.5550      0.0100     78.3900
     50     -1.7800      8.7580      7.2480      1.7700     78.3900
     51     -1.7510      9.3940      6.1840      1.5900     78.3900
     52     -2.7060      7.7960      7.4620      1.6800     78.3900
     53     -2.7020      7.0960      8.6070      1.7700     78.3900
     54     -3.6060      6.1330      8.7710      1.6800     78.3900
     55     -4.2820      5.9650      8.0480      0.0100     78.3900
     56     -3.6240      5.5550      9.5890      0.0100     78.3900
     57     -0.3010     11.4780      8.1760      1.7700     78.3900
     58     -1.4040     11.5420      8.0660      0.0100     78.3900
     59      0.3370     12.3500      7.2550      1.5900     78.3900
     60      0.1550     13.2570      7.5420      0.0100     78.3900
     61      0.1260     11.7750      9.6090      1.7700     78.3900
     62     -0.5220     11.2300     10.3330      0.0100     78.3900
     63      0.2600     13.1800      9.9150      1.5900     78.3900
     64     -0.9340     13.9700     10.5610      2.1000     78.3900
     65     -1.1050     13.4950     11.9490      1.5900     78.3900
     66     -0.6810     15.4150     10.3960      1.5900     78.3900
     67     -2.1920     13.5670      9.7170      1.5900     78.3900
     68     -2.4710     14.2010      8.4450      1.7700     78.3900
     69     -1.6990     13.9380      7.6900      0.0100     78.3900
     70     -2.4950     15.3100      8.5440      0.0100     78.3900
     71     -3.8230     13.7540      7.8820      1.7700     78.3900
     72     -4.0580     14.2930      6.9380      0.0100     78.3900
     73     -3.7770     12.3320      7.5700      1.5900     78.3900
     74     -5.0300     11.7470      7.8680      1.7700     78.3900
     75     -5.3650     11.3080      6.9040      0.0100     78.3900
     76     -4.9130     10.6800      8.8970      1.6800     78.3900
     77     -3.9240     10.7380      9.8510      1.7700     78.3900
     78     -3.2630     11.5980      9.7810      0.0100     78.3900
     79     -5.7890      9.6220      8.8580      1.7700     78.3900
     80     -6.6750      9.5320      8.0070      1.5900     78.3900
     81     -5.6000      8.6720      9.8260      1.6800     78.3900
     82     -6.2390      7.8930      9.8130      0.0100     78.3900
     83     -4.6200      8.6520     10.7970      1.7700     78.3900
     84     -4.5400      7.7070     11.5790      1.5900     78.3900
     85     -3.7430      9.7820     10.7720      1.7700     78.3900
     86     -2.9290      9.8290     11.4920      0.0100     78.3900
     87     -5.9800     12.8740      8.2630      1.7700     78.3900
     88     -6.7370     12.5690      9.0160      0.0100     78.3900
     89     -6.6070     13.3590      7.0940      1.5900     78.3900
     90     -7.5410     13.0710      7.0730      0.0100     78.3900
     91     -5.0160     13.9070      8.8310      1.7700     78.3900
     92     -4.6610     13.5800      9.8320      0.0100     78.3900
     93     -5.4920     15.2730      8.8100      1.5900     78.3900
     94     -6.0430     15.9400     10.1250      2.1000     78.3900
     95     -5.1660     15.5890     11.2620      1.5900     78.3900
     96     -6.2020     17.3880      9.8600      1.5900     78.3900
     97     -7.4770     15.3140     10.3510      1.5900     78.3900
     98     -8.3070     15.8240     11.4320      1.7700     78.3900
     99     -7.9200     16.7720     11.8820      0.0100     78.3900
    100     -8.3420     15.0700     12.2510      0.0100     78.3900
    101     -9.7500     16.0980     10.9740      1.7700     78.3900
    102    -10.3830     16.4030     11.8390      0.0100     78.3900
    103     -9.7410     17.2140     10.0350      1.5900     78.3900
    104    -10.6830     16.9780      9.0010      1.7700     78.3900
    105    -11.3800     17.8480      9.0050      0.0100     78.3900
    106    -10.0300     16.9020      7.6880      1.6800     78.3900
    107     -9.6420     16.9340      5.5260      1.7700     78.3900
    108     -8.4010     16.8270      6.1370      1.6800     78.3900
    109     -8.6860     16.8000      7.4160      1.7700     78.3900
    110     -7.9540     16.7180      8.2200      0.0100     78.3900
    111    -11.3490     17.1310      3.9000      1.6800     78.3900
    112    -12.2170     17.0800      4.9150      1.7700     78.3900
    113    -13.2740     17.1580      4.6340      0.0100     78.3900
    114    -11.9750     17.0410      6.2310      1.6800     78.3900
    115    -10.6540     16.9650      6.4680      1.7700     78.3900
    116    -10.0230     17.0480      4.1750      1.7700     78.3900
    117     -9.1380     17.1030      3.1660      1.6800     78.3900
    118     -8.1730     16.8880      3.3230      0.0100     78.3900
    119     -9.4740     17.0300      2.2250      0.0100     78.3900
    120    -11.4490     15.7220      9.3430      1.7700     78.3900
    121    -11.7160     15.1320      8.4440      0.0100     78.3900
    122    -12.6230     16.0520     10.0600      1.5900     78.3900
    123    -12.9670     15.2300     10.4370      0.0100     78.3900
    124    -10.4540     14.9650     10.2090      1.7700     78.3900
    125     -9.6760     14.4930      9.5640      0.0100     78.3900
    126    -11.0790     14.0430     11.1250      1.5900     78.3900
    127    -10.9300     12.4890     10.9470      2.1000     78.3900
    128     -9.5310     12.1700     10.6030      1.5900     78.3900
    129    -11.4940     11.8310     12.1480      1.5900     78.3900
    130    -11.8420     12.1290      9.7100      1.5900     78.3900
    131    -13.2640     12.3730      9.6720      1.7700     78.3900
    132    -13.5240     13.3570     10.1230      0.0100     78.3900
    133    -13.7990     11.5830     10.2510      0.0100     78.3900
    134    -13.8060     12.3550      8.2290      1.7700     78.3900
    135    -14.9090     12.4650      8.2150      0.0100     78.3900
    136    -13.2590     13.4950      7.5090      1.5900     78.3900
    137    -12.9060     13.1130      6.1920      1.7700     78.3900
    138    -13.4170     13.8240      5.5020      0.0100     78.3900
    139    -11.4590     13.2030      5.9990      1.6800     78.3900
    140     -9.4470     13.4560      5.1560      1.7700     78.3900
    141     -9.2830     13.2190      6.5080      1.6800     78.3900
    142    -10.4910     13.0830      6.9590      1.7700     78.3900
    143    -10.7280     12.9170      8.0020      0.0100     78.3900
    144     -9.0340     13.9430      2.8820      1.6800     78.3900
    145    -10.3590     13.8600      2.7110      1.7700     78.3900
    146    -10.7140     14.0270      1.6880      0.0100     78.3900
    147    -11.3240     13.6260      3.6100      1.6800     78.3900
    148    -10.7910     13.4390      4.8250      1.7700     78.3900
    149     -8.5270     13.7340      4.1230      1.7700     78.3900
    150     -7.1930     13.8000      4.3090      1.6800     78.3900
    151     -6.8010     13.7850      5.2370      0.0100     78.3900
    152     -6.5980     14.0500      3.5460      0.0100     78.3900
    153    -13.4300     11.7110      5.9610      1.7700     78.3900
    154    -12.7710     11.1210      5.2880      0.0100     78.3900
    155    -14.7420     11.7540      5.4290      1.5900     78.3900
    156    -15.0450     10.8350      5.3560      0.0100     78.3900
    157    -13.4160     11.1310      7.3740      1.7700     78.3900
    158    -12.3730     10.8730      7.6600      0.0100     78.3900
    159    -14.3370     10.0300      7.6060      1.5900     78.3900
    160    -13.9290      8.6020      7.0600      2.1000     78.3900
    161    -12.4670      8.4460      7.2080      1.5900     78.3900
    162    -14.7790      7.5730      7.6970      1.5900     78.3900
    163    -14.2940      8.6450      5.5260      1.5900     78.3900
    164    -13.7440      7.6410      4.6260      1.7700     78.3900
    165    -14.4700      6.8060      4.5150      0.0100     78.3900
    166    -12.7960      7.1930      5.0150      0.0100     78.3900
    167    -13.4250      8.2090      3.2260      1.7700     78.3900
    168    -14.3470      8.3350      2.6230      0.0100     78.3900
    169    -12.8330      9.5360      3.3800      1.5900     78.3900
    170    -11.7200      9.6690      2.5240      1.7700     78.3900
    171    -11.8860     10.6190      1.9650      0.0100     78.3900
    172    -10.4280      9.7590      3.2640      1.6800     78.3900
    173    -10.3120      9.2450      4.5400      1.7700     78.3900
    174    -11.2150      8.8080      4.9740      0.0100     78.3900
    175     -9.1590      9.3300      5.2170      1.7700     78.3900
    176     -9.0420      8.9520      6.2300      0.0100     78.3900
    177     -9.3280     10.3680      2.6590      1.7700     78.3900
    178     -9.4550     10.8290      1.5130      1.5900     78.3900
    179     -8.1560     10.4560      3.3310      1.6800     78.3900
    180     -8.0600      9.9650      4.5770      1.7700     78.3900
    181     -6.9150     10.1240      5.2290      1.6800     78.3900
    182     -6.1910     10.6290      4.7610      0.0100     78.3900
    183     -6.8180      9.8870      6.1980      0.0100     78.3900
    184    -11.7730      8.5210      1.5430      1.7700     78.3900
    185    -10.7730      8.2610      1.1710      0.0100     78.3900
    186    -12.6040      8.8450      0.4420      1.5900     78.3900
    187    -12.7010      8.0390     -0.0900      0.0100     78.3900
    188    -12.3770      7.4150      2.4030      1.7700     78.3900
    189    -11.6170      7.0370      3.1260      0.0100     78.3900
    190    -13.0130      6.3490      1.6580      1.5900     78.3900
    191    -12.1560      5.1090      1.1780      2.1000     78.3900
    192    -11.2680      4.6960      2.2850      1.5900     78.3900
    193    -13.0710      4.0740      0.6380      1.5900     78.3900
    194    -11.2970      5.6330     -0.0430      1.5900     78.3900
    195     -9.9770      5.0650     -0.2950      1.7700     78.3900
    196     -9.9760      4.5320     -1.2700      0.0100     78.3900
    197     -9.6600      4.3190      0.4730      0.0100     78.3900
    198     -8.8810      6.1400     -0.3420      1.7700     78.3900
    199     -9.0310      6.8120     -1.2130      0.0100     78.3900
    200     -8.9650      6.9550      0.8480      1.5900     78.3900
    201     -7.6790      7.3300      1.2800      1.7700     78.3900
    202     -7.6700      8.4410      1.3420      0.0100     78.3900
    203     -7.4040      6.7670      2.6050      1.6800     78.3900
    204     -6.3620      7.0990      3.4230      1.7700     78.3900
    205     -3.5190      8.9590      4.0610      1.6800     78.3900
    206     -3.4050      9.4880      3.2230      0.0100     78.3900
    207     -2.8650      9.0840      4.8140      0.0100     78.3900
    208     -5.3960      7.9920      3.1480      1.6800     78.3900
    209     -4.5390      8.1300      4.1530      1.7700     78.3900
    210     -4.6350      7.4290      5.3260      1.6800     78.3900
    211     -3.9410      7.5960      6.0380      0.0100     78.3900
    212     -5.6160      6.4980      5.6370      1.7700     78.3900
    213     -5.6260      5.9050      6.7190      1.5900     78.3900
    214     -6.5340      6.3390      4.5660      1.7700     78.3900
    215     -7.6600      5.5320      4.4610      1.6800     78.3900
    216     -8.1520      5.8240      3.2800      1.7700     78.3900
    217     -9.0610      5.3980      2.8440      0.0100     78.3900
    218     -6.7040      6.8620      0.2250      1.7700     78.3900
    219     -5.7130      6.6050      0.6460      0.0100     78.3900
    220     -6.5550      7.8670     -0.7610      1.5900     78.3900
    221     -5.9810      7.5120     -1.4500      0.0100     78.3900
    222     -7.4310      5.6350     -0.3260      1.7700     78.3900
    223     -7.3960      4.8050      0.4180      0.0100     78.3900
    224     -7.0360      5.2280     -1.6560      1.5900     78.3900
    225     -5.9680      4.0780     -1.8070      2.1000     78.3900
    226     -6.3000      2.9710     -0.8790      1.5900     78.3900
    227     -5.8320      3.6890     -3.2300      1.5900     78.3900
    228     -4.6300      4.7670     -1.3400      1.5900     78.3900
    229     -4.0730      5.8460     -2.1270      1.7700     78.3900
    230     -4.8030      6.6750     -2.2660      0.0100     78.3900
    231     -3.7860      5.4820     -3.1410      0.0100     78.3900
    232     -2.8160      6.4250     -1.4680      1.7700     78.3900
    233     -2.3670      7.2180     -2.1060      0.0100     78.3900
    234     -3.1570      7.0410     -0.1910      1.5900     78.3900
    235     -2.1280      6.7590      0.7530      1.7700     78.3900
    236     -1.7880      7.7500      1.1340      0.0100     78.3900
    237     -2.6070      5.9350      1.9000      1.6800     78.3900
    238     -3.7480      5.1760      1.7770      1.7700     78.3900
    239     -4.2650      5.2440      0.8240      0.0100     78.3900
    240     -4.2120      4.4320      2.7880      1.7700     78.3900
    241     -5.1300      3.8530      2.7100      0.0100     78.3900
    242     -1.8820      5.8930      3.0870      1.7700     78.3900
    243     -0.8270      6.5410      3.1770      1.5900     78.3900
    244     -2.3370      5.1500      4.1230      1.6800     78.3900
    245     -3.4700      4.4350      4.0010      1.7700     78.3900
    246     -3.9040      3.7290      5.0450      1.6800     78.3900
    247     -3.3650      3.7180      5.8900      0.0100     78.3900
    248     -4.7290      3.1570      4.9990      0.0100     78.3900
    249     -0.9800      6.0980      0.0010      1.7700     78.3900
    250     -0.4430      5.3590      0.6320      0.0100     78.3900
    251     -0.0720      7.0830     -0.4710      1.5900     78.3900
    252      0.5570      6.6650     -1.0820      0.0100     78.3900
    253     -1.7260      5.3990     -1.1310      1.7700     78.3900
    254     -2.2200      4.4770     -0.7530      0.0100     78.3900
    255     -0.9260      5.1160     -2.2910      1.5900     78.3900
    256     -0.2340      4.4660     -2.0670      0.0100     78.3900

     ----------------------------
     INPUT FOR TESSERA DEFINITION
     ----------------------------
     NTSALL  =        60     MTHALL  =         4
     MTHAUT  =         0     AUTFRE  =    2.0000
     NTSFRZ  =        60     KEEPSM  =         0
     AREAKP  =   10.0000     BONDRY  =    1.0000
     AREATL  =    0.0100

     SPHERE     INITS       METHOD
          1        60       FIXPVA
          2        60       FIXPVA
          3        60       FIXPVA
          4        60       FIXPVA
          5        60       FIXPVA
          6        60       FIXPVA
          7        60       FIXPVA
          8        60       FIXPVA
          9        60       FIXPVA
         10        60       FIXPVA
         11        60       FIXPVA
         12        60       FIXPVA
         13        60       FIXPVA
         14        60       FIXPVA
         15        60       FIXPVA
         16        60       FIXPVA
         17        60       FIXPVA
         18        60       FIXPVA
         19        60       FIXPVA
         20        60       FIXPVA
         21        60       FIXPVA
         22        60       FIXPVA
         23        60       FIXPVA
         24        60       FIXPVA
         25        60       FIXPVA
         26        60       FIXPVA
         27        60       FIXPVA
         28        60       FIXPVA
         29        60       FIXPVA
         30        60       FIXPVA
         31        60       FIXPVA
         32        60       FIXPVA
         33        60       FIXPVA
         34        60       FIXPVA
         35        60       FIXPVA
         36        60       FIXPVA
         37        60       FIXPVA
         38        60       FIXPVA
         39        60       FIXPVA
         40        60       FIXPVA
         41        60       FIXPVA
         42        60       FIXPVA
         43        60       FIXPVA
         44        60       FIXPVA
         45        60       FIXPVA
         46        60       FIXPVA
         47        60       FIXPVA
         48        60       FIXPVA
         49        60       FIXPVA
         50        60       FIXPVA
         51        60       FIXPVA
         52        60       FIXPVA
         53        60       FIXPVA
         54        60       FIXPVA
         55        60       FIXPVA
         56        60       FIXPVA
         57        60       FIXPVA
         58        60       FIXPVA
         59        60       FIXPVA
         60        60       FIXPVA
         61        60       FIXPVA
         62        60       FIXPVA
         63        60       FIXPVA
         64        60       FIXPVA
         65        60       FIXPVA
         66        60       FIXPVA
         67        60       FIXPVA
         68        60       FIXPVA
         69        60       FIXPVA
         70        60       FIXPVA
         71        60       FIXPVA
         72        60       FIXPVA
         73        60       FIXPVA
         74        60       FIXPVA
         75        60       FIXPVA
         76        60       FIXPVA
         77        60       FIXPVA
         78        60       FIXPVA
         79        60       FIXPVA
         80        60       FIXPVA
         81        60       FIXPVA
         82        60       FIXPVA
         83        60       FIXPVA
         84        60       FIXPVA
         85        60       FIXPVA
         86        60       FIXPVA
         87        60       FIXPVA
         88        60       FIXPVA
         89        60       FIXPVA
         90        60       FIXPVA
         91        60       FIXPVA
         92        60       FIXPVA
         93        60       FIXPVA
         94        60       FIXPVA
         95        60       FIXPVA
         96        60       FIXPVA
         97        60       FIXPVA
         98        60       FIXPVA
         99        60       FIXPVA
        100        60       FIXPVA
        101        60       FIXPVA
        102        60       FIXPVA
        103        60       FIXPVA
        104        60       FIXPVA
        105        60       FIXPVA
        106        60       FIXPVA
        107        60       FIXPVA
        108        60       FIXPVA
        109        60       FIXPVA
        110        60       FIXPVA
        111        60       FIXPVA
        112        60       FIXPVA
        113        60       FIXPVA
        114        60       FIXPVA
        115        60       FIXPVA
        116        60       FIXPVA
        117        60       FIXPVA
        118        60       FIXPVA
        119        60       FIXPVA
        120        60       FIXPVA
        121        60       FIXPVA
        122        60       FIXPVA
        123        60       FIXPVA
        124        60       FIXPVA
        125        60       FIXPVA
        126        60       FIXPVA
        127        60       FIXPVA
        128        60       FIXPVA
        129        60       FIXPVA
        130        60       FIXPVA
        131        60       FIXPVA
        132        60       FIXPVA
        133        60       FIXPVA
        134        60       FIXPVA
        135        60       FIXPVA
        136        60       FIXPVA
        137        60       FIXPVA
        138        60       FIXPVA
        139        60       FIXPVA
        140        60       FIXPVA
        141        60       FIXPVA
        142        60       FIXPVA
        143        60       FIXPVA
        144        60       FIXPVA
        145        60       FIXPVA
        146        60       FIXPVA
        147        60       FIXPVA
        148        60       FIXPVA
        149        60       FIXPVA
        150        60       FIXPVA
        151        60       FIXPVA
        152        60       FIXPVA
        153        60       FIXPVA
        154        60       FIXPVA
        155        60       FIXPVA
        156        60       FIXPVA
        157        60       FIXPVA
        158        60       FIXPVA
        159        60       FIXPVA
        160        60       FIXPVA
        161        60       FIXPVA
        162        60       FIXPVA
        163        60       FIXPVA
        164        60       FIXPVA
        165        60       FIXPVA
        166        60       FIXPVA
        167        60       FIXPVA
        168        60       FIXPVA
        169        60       FIXPVA
        170        60       FIXPVA
        171        60       FIXPVA
        172        60       FIXPVA
        173        60       FIXPVA
        174        60       FIXPVA
        175        60       FIXPVA
        176        60       FIXPVA
        177        60       FIXPVA
        178        60       FIXPVA
        179        60       FIXPVA
        180        60       FIXPVA
        181        60       FIXPVA
        182        60       FIXPVA
        183        60       FIXPVA
        184        60       FIXPVA
        185        60       FIXPVA
        186        60       FIXPVA
        187        60       FIXPVA
        188        60       FIXPVA
        189        60       FIXPVA
        190        60       FIXPVA
        191        60       FIXPVA
        192        60       FIXPVA
        193        60       FIXPVA
        194        60       FIXPVA
        195        60       FIXPVA
        196        60       FIXPVA
        197        60       FIXPVA
        198        60       FIXPVA
        199        60       FIXPVA
        200        60       FIXPVA
        201        60       FIXPVA
        202        60       FIXPVA
        203        60       FIXPVA
        204        60       FIXPVA
        205        60       FIXPVA
        206        60       FIXPVA
        207        60       FIXPVA
        208        60       FIXPVA
        209        60       FIXPVA
        210        60       FIXPVA
        211        60       FIXPVA
        212        60       FIXPVA
        213        60       FIXPVA
        214        60       FIXPVA
        215        60       FIXPVA
        216        60       FIXPVA
        217        60       FIXPVA
        218        60       FIXPVA
        219        60       FIXPVA
        220        60       FIXPVA
        221        60       FIXPVA
        222        60       FIXPVA
        223        60       FIXPVA
        224        60       FIXPVA
        225        60       FIXPVA
        226        60       FIXPVA
        227        60       FIXPVA
        228        60       FIXPVA
        229        60       FIXPVA
        230        60       FIXPVA
        231        60       FIXPVA
        232        60       FIXPVA
        233        60       FIXPVA
        234        60       FIXPVA
        235        60       FIXPVA
        236        60       FIXPVA
        237        60       FIXPVA
        238        60       FIXPVA
        239        60       FIXPVA
        240        60       FIXPVA
        241        60       FIXPVA
        242        60       FIXPVA
        243        60       FIXPVA
        244        60       FIXPVA
        245        60       FIXPVA
        246        60       FIXPVA
        247        60       FIXPVA
        248        60       FIXPVA
        249        60       FIXPVA
        250        60       FIXPVA
        251        60       FIXPVA
        252        60       FIXPVA
        253        60       FIXPVA
        254        60       FIXPVA
        255        60       FIXPVA
        256        60       FIXPVA

     ------------------------------
      FIXPVA TESSELLATION FOR PCM
         PEIFENG SU AND HUI LI
     UNIVERSITY OF NEBRASKA-LINCOLN
     ------------------------------


 PCM DIMENSIONS: MXSP=   256, MXTS=     10240, MEMORY=        105219

     INPUT FOR CAVITY DEFINITION 
     ---------------------------
   ATOM               COORDINATES                RADIUS       EPS
      1      1.4680      4.2310     14.7320      0.0100     78.3900
      2      1.5820      4.6670     13.8660      1.5900     78.3900
      3      2.9120      5.2060     13.8480      1.7700     78.3900
      4      3.6420      4.3760     13.9900      0.0100     78.3900
      5      3.0330      5.9180     14.6950      0.0100     78.3900
      6      3.2480      5.9390     12.5450      1.7700     78.3900
      7      4.2780      6.3550     12.5760      0.0100     78.3900
      8      3.1880      5.0080     11.4240      1.5900     78.3900
      9      2.6350      5.6690     10.2960      1.7700     78.3900
     10      3.3720      5.5620      9.4670      0.0100     78.3900
     11      1.3630      5.0580      9.8820      1.6800     78.3900
     12      0.7530      5.2140      8.6670      1.7700     78.3900
     13      0.6900      6.5980      5.4980      1.6800     78.3900
     14      1.5080      7.1730      5.4860      0.0100     78.3900
     15      0.1010      6.5710      4.6860      0.0100     78.3900
     16      1.2110      5.9610      7.6480      1.6800     78.3900
     17      0.4260      5.8900      6.5770      1.7700     78.3900
     18     -0.6910      5.0970      6.5170      1.6800     78.3900
     19     -1.2300      5.1030      5.6650      0.0100     78.3900
     20     -1.1700      4.2890      7.5380      1.7700     78.3900
     21     -2.1840      3.5980      7.3880      1.5900     78.3900
     22     -0.3750      4.4150      8.7110      1.7700     78.3900
     23     -0.4970      3.8010      9.9520      1.6800     78.3900
     24      0.5650      4.2050     10.6120      1.7700     78.3900
     25      0.8260      3.9180     11.6340      0.0100     78.3900
     26      2.4880      7.1320     10.6530      1.7700     78.3900
     27      1.6300      7.6110     10.1400      0.0100     78.3900
     28      3.6800      7.8220     10.3320      1.5900     78.3900
     29      3.5780      8.7230     10.6620      0.0100     78.3900
     30      2.2760      7.0660     12.1630      1.7700     78.3900
     31      1.2490      6.6910     12.3900      0.0100     78.3900
     32      2.6180      8.2790     12.8830      1.5900     78.3900
     33      1.4560      9.3100     13.1820      2.1000     78.3900
     34      0.2980      8.5920     13.7520      1.5900     78.3900
     35      2.0250     10.4070     14.0000      1.5900     78.3900
     36      1.0770      9.8490     11.7480      1.5900     78.3900
     37      2.0040     10.7200     11.0570      1.7700     78.3900
     38      2.9970     10.2370     10.9400      0.0100     78.3900
     39      2.1530     11.6640     11.6320      0.0100     78.3900
     40      1.5010     11.1010      9.6580      1.7700     78.3900
     41      2.2320     11.7720      9.1540      0.0100     78.3900
     42      1.3640      9.9150      8.8210      1.5900     78.3900
     43      0.2190     10.0650      7.9870      1.7700     78.3900
     44      0.5950      9.9570      6.9440      0.0100     78.3900
     45     -0.8240      9.0270      8.2250      1.6800     78.3900
     46     -0.8530      8.3360      9.4120      1.7700     78.3900
     47     -0.0950      8.6210     10.1430      0.0100     78.3900
     48     -1.7510      7.3660      9.6340      1.7700     78.3900
     49     -1.7700      6.7880     10.5550      0.0100     78.3900
     50     -1.7800      8.7580      7.2480      1.7700     78.3900
     51     -1.7510      9.3940      6.1840      1.5900     78.3900
     52     -2.7060      7.7960      7.4620      1.6800     78.3900
     53     -2.7020      7.0960      8.6070      1.7700     78.3900
     54     -3.6060      6.1330      8.7710      1.6800     78.3900
     55     -4.2820      5.9650      8.0480      0.0100     78.3900
     56     -3.6240      5.5550      9.5890      0.0100     78.3900
     57     -0.3010     11.4780      8.1760      1.7700     78.3900
     58     -1.4040     11.5420      8.0660      0.0100     78.3900
     59      0.3370     12.3500      7.2550      1.5900     78.3900
     60      0.1550     13.2570      7.5420      0.0100     78.3900
     61      0.1260     11.7750      9.6090      1.7700     78.3900
     62     -0.5220     11.2300     10.3330      0.0100     78.3900
     63      0.2600     13.1800      9.9150      1.5900     78.3900
     64     -0.9340     13.9700     10.5610      2.1000     78.3900
     65     -1.1050     13.4950     11.9490      1.5900     78.3900
     66     -0.6810     15.4150     10.3960      1.5900     78.3900
     67     -2.1920     13.5670      9.7170      1.5900     78.3900
     68     -2.4710     14.2010      8.4450      1.7700     78.3900
     69     -1.6990     13.9380      7.6900      0.0100     78.3900
     70     -2.4950     15.3100      8.5440      0.0100     78.3900
     71     -3.8230     13.7540      7.8820      1.7700     78.3900
     72     -4.0580     14.2930      6.9380      0.0100     78.3900
     73     -3.7770     12.3320      7.5700      1.5900     78.3900
     74     -5.0300     11.7470      7.8680      1.7700     78.3900
     75     -5.3650     11.3080      6.9040      0.0100     78.3900
     76     -4.9130     10.6800      8.8970      1.6800     78.3900
     77     -3.9240     10.7380      9.8510      1.7700     78.3900
     78     -3.2630     11.5980      9.7810      0.0100     78.3900
     79     -5.7890      9.6220      8.8580      1.7700     78.3900
     80     -6.6750      9.5320      8.0070      1.5900     78.3900
     81     -5.6000      8.6720      9.8260      1.6800     78.3900
     82     -6.2390      7.8930      9.8130      0.0100     78.3900
     83     -4.6200      8.6520     10.7970      1.7700     78.3900
     84     -4.5400      7.7070     11.5790      1.5900     78.3900
     85     -3.7430      9.7820     10.7720      1.7700     78.3900
     86     -2.9290      9.8290     11.4920      0.0100     78.3900
     87     -5.9800     12.8740      8.2630      1.7700     78.3900
     88     -6.7370     12.5690      9.0160      0.0100     78.3900
     89     -6.6070     13.3590      7.0940      1.5900     78.3900
     90     -7.5410     13.0710      7.0730      0.0100     78.3900
     91     -5.0160     13.9070      8.8310      1.7700     78.3900
     92     -4.6610     13.5800      9.8320      0.0100     78.3900
     93     -5.4920     15.2730      8.8100      1.5900     78.3900
     94     -6.0430     15.9400     10.1250      2.1000     78.3900
     95     -5.1660     15.5890     11.2620      1.5900     78.3900
     96     -6.2020     17.3880      9.8600      1.5900     78.3900
     97     -7.4770     15.3140     10.3510      1.5900     78.3900
     98     -8.3070     15.8240     11.4320      1.7700     78.3900
     99     -7.9200     16.7720     11.8820      0.0100     78.3900
    100     -8.3420     15.0700     12.2510      0.0100     78.3900
    101     -9.7500     16.0980     10.9740      1.7700     78.3900
    102    -10.3830     16.4030     11.8390      0.0100     78.3900
    103     -9.7410     17.2140     10.0350      1.5900     78.3900
    104    -10.6830     16.9780      9.0010      1.7700     78.3900
    105    -11.3800     17.8480      9.0050      0.0100     78.3900
    106    -10.0300     16.9020      7.6880      1.6800     78.3900
    107     -9.6420     16.9340      5.5260      1.7700     78.3900
    108     -8.4010     16.8270      6.1370      1.6800     78.3900
    109     -8.6860     16.8000      7.4160      1.7700     78.3900
    110     -7.9540     16.7180      8.2200      0.0100     78.3900
    111    -11.3490     17.1310      3.9000      1.6800     78.3900
    112    -12.2170     17.0800      4.9150      1.7700     78.3900
    113    -13.2740     17.1580      4.6340      0.0100     78.3900
    114    -11.9750     17.0410      6.2310      1.6800     78.3900
    115    -10.6540     16.9650      6.4680      1.7700     78.3900
    116    -10.0230     17.0480      4.1750      1.7700     78.3900
    117     -9.1380     17.1030      3.1660      1.6800     78.3900
    118     -8.1730     16.8880      3.3230      0.0100     78.3900
    119     -9.4740     17.0300      2.2250      0.0100     78.3900
    120    -11.4490     15.7220      9.3430      1.7700     78.3900
    121    -11.7160     15.1320      8.4440      0.0100     78.3900
    122    -12.6230     16.0520     10.0600      1.5900     78.3900
    123    -12.9670     15.2300     10.4370      0.0100     78.3900
    124    -10.4540     14.9650     10.2090      1.7700     78.3900
    125     -9.6760     14.4930      9.5640      0.0100     78.3900
    126    -11.0790     14.0430     11.1250      1.5900     78.3900
    127    -10.9300     12.4890     10.9470      2.1000     78.3900
    128     -9.5310     12.1700     10.6030      1.5900     78.3900
    129    -11.4940     11.8310     12.1480      1.5900     78.3900
    130    -11.8420     12.1290      9.7100      1.5900     78.3900
    131    -13.2640     12.3730      9.6720      1.7700     78.3900
    132    -13.5240     13.3570     10.1230      0.0100     78.3900
    133    -13.7990     11.5830     10.2510      0.0100     78.3900
    134    -13.8060     12.3550      8.2290      1.7700     78.3900
    135    -14.9090     12.4650      8.2150      0.0100     78.3900
    136    -13.2590     13.4950      7.5090      1.5900     78.3900
    137    -12.9060     13.1130      6.1920      1.7700     78.3900
    138    -13.4170     13.8240      5.5020      0.0100     78.3900
    139    -11.4590     13.2030      5.9990      1.6800     78.3900
    140     -9.4470     13.4560      5.1560      1.7700     78.3900
    141     -9.2830     13.2190      6.5080      1.6800     78.3900
    142    -10.4910     13.0830      6.9590      1.7700     78.3900
    143    -10.7280     12.9170      8.0020      0.0100     78.3900
    144     -9.0340     13.9430      2.8820      1.6800     78.3900
    145    -10.3590     13.8600      2.7110      1.7700     78.3900
    146    -10.7140     14.0270      1.6880      0.0100     78.3900
    147    -11.3240     13.6260      3.6100      1.6800     78.3900
    148    -10.7910     13.4390      4.8250      1.7700     78.3900
    149     -8.5270     13.7340      4.1230      1.7700     78.3900
    150     -7.1930     13.8000      4.3090      1.6800     78.3900
    151     -6.8010     13.7850      5.2370      0.0100     78.3900
    152     -6.5980     14.0500      3.5460      0.0100     78.3900
    153    -13.4300     11.7110      5.9610      1.7700     78.3900
    154    -12.7710     11.1210      5.2880      0.0100     78.3900
    155    -14.7420     11.7540      5.4290      1.5900     78.3900
    156    -15.0450     10.8350      5.3560      0.0100     78.3900
    157    -13.4160     11.1310      7.3740      1.7700     78.3900
    158    -12.3730     10.8730      7.6600      0.0100     78.3900
    159    -14.3370     10.0300      7.6060      1.5900     78.3900
    160    -13.9290      8.6020      7.0600      2.1000     78.3900
    161    -12.4670      8.4460      7.2080      1.5900     78.3900
    162    -14.7790      7.5730      7.6970      1.5900     78.3900
    163    -14.2940      8.6450      5.5260      1.5900     78.3900
    164    -13.7440      7.6410      4.6260      1.7700     78.3900
    165    -14.4700      6.8060      4.5150      0.0100     78.3900
    166    -12.7960      7.1930      5.0150      0.0100     78.3900
    167    -13.4250      8.2090      3.2260      1.7700     78.3900
    168    -14.3470      8.3350      2.6230      0.0100     78.3900
    169    -12.8330      9.5360      3.3800      1.5900     78.3900
    170    -11.7200      9.6690      2.5240      1.7700     78.3900
    171    -11.8860     10.6190      1.9650      0.0100     78.3900
    172    -10.4280      9.7590      3.2640      1.6800     78.3900
    173    -10.3120      9.2450      4.5400      1.7700     78.3900
    174    -11.2150      8.8080      4.9740      0.0100     78.3900
    175     -9.1590      9.3300      5.2170      1.7700     78.3900
    176     -9.0420      8.9520      6.2300      0.0100     78.3900
    177     -9.3280     10.3680      2.6590      1.7700     78.3900
    178     -9.4550     10.8290      1.5130      1.5900     78.3900
    179     -8.1560     10.4560      3.3310      1.6800     78.3900
    180     -8.0600      9.9650      4.5770      1.7700     78.3900
    181     -6.9150     10.1240      5.2290      1.6800     78.3900
    182     -6.1910     10.6290      4.7610      0.0100     78.3900
    183     -6.8180      9.8870      6.1980      0.0100     78.3900
    184    -11.7730      8.5210      1.5430      1.7700     78.3900
    185    -10.7730      8.2610      1.1710      0.0100     78.3900
    186    -12.6040      8.8450      0.4420      1.5900     78.3900
    187    -12.7010      8.0390     -0.0900      0.0100     78.3900
    188    -12.3770      7.4150      2.4030      1.7700     78.3900
    189    -11.6170      7.0370      3.1260      0.0100     78.3900
    190    -13.0130      6.3490      1.6580      1.5900     78.3900
    191    -12.1560      5.1090      1.1780      2.1000     78.3900
    192    -11.2680      4.6960      2.2850      1.5900     78.3900
    193    -13.0710      4.0740      0.6380      1.5900     78.3900
    194    -11.2970      5.6330     -0.0430      1.5900     78.3900
    195     -9.9770      5.0650     -0.2950      1.7700     78.3900
    196     -9.9760      4.5320     -1.2700      0.0100     78.3900
    197     -9.6600      4.3190      0.4730      0.0100     78.3900
    198     -8.8810      6.1400     -0.3420      1.7700     78.3900
    199     -9.0310      6.8120     -1.2130      0.0100     78.3900
    200     -8.9650      6.9550      0.8480      1.5900     78.3900
    201     -7.6790      7.3300      1.2800      1.7700     78.3900
    202     -7.6700      8.4410      1.3420      0.0100     78.3900
    203     -7.4040      6.7670      2.6050      1.6800     78.3900
    204     -6.3620      7.0990      3.4230      1.7700     78.3900
    205     -3.5190      8.9590      4.0610      1.6800     78.3900
    206     -3.4050      9.4880      3.2230      0.0100     78.3900
    207     -2.8650      9.0840      4.8140      0.0100     78.3900
    208     -5.3960      7.9920      3.1480      1.6800     78.3900
    209     -4.5390      8.1300      4.1530      1.7700     78.3900
    210     -4.6350      7.4290      5.3260      1.6800     78.3900
    211     -3.9410      7.5960      6.0380      0.0100     78.3900
    212     -5.6160      6.4980      5.6370      1.7700     78.3900
    213     -5.6260      5.9050      6.7190      1.5900     78.3900
    214     -6.5340      6.3390      4.5660      1.7700     78.3900
    215     -7.6600      5.5320      4.4610      1.6800     78.3900
    216     -8.1520      5.8240      3.2800      1.7700     78.3900
    217     -9.0610      5.3980      2.8440      0.0100     78.3900
    218     -6.7040      6.8620      0.2250      1.7700     78.3900
    219     -5.7130      6.6050      0.6460      0.0100     78.3900
    220     -6.5550      7.8670     -0.7610      1.5900     78.3900
    221     -5.9810      7.5120     -1.4500      0.0100     78.3900
    222     -7.4310      5.6350     -0.3260      1.7700     78.3900
    223     -7.3960      4.8050      0.4180      0.0100     78.3900
    224     -7.0360      5.2280     -1.6560      1.5900     78.3900
    225     -5.9680      4.0780     -1.8070      2.1000     78.3900
    226     -6.3000      2.9710     -0.8790      1.5900     78.3900
    227     -5.8320      3.6890     -3.2300      1.5900     78.3900
    228     -4.6300      4.7670     -1.3400      1.5900     78.3900
    229     -4.0730      5.8460     -2.1270      1.7700     78.3900
    230     -4.8030      6.6750     -2.2660      0.0100     78.3900
    231     -3.7860      5.4820     -3.1410      0.0100     78.3900
    232     -2.8160      6.4250     -1.4680      1.7700     78.3900
    233     -2.3670      7.2180     -2.1060      0.0100     78.3900
    234     -3.1570      7.0410     -0.1910      1.5900     78.3900
    235     -2.1280      6.7590      0.7530      1.7700     78.3900
    236     -1.7880      7.7500      1.1340      0.0100     78.3900
    237     -2.6070      5.9350      1.9000      1.6800     78.3900
    238     -3.7480      5.1760      1.7770      1.7700     78.3900
    239     -4.2650      5.2440      0.8240      0.0100     78.3900
    240     -4.2120      4.4320      2.7880      1.7700     78.3900
    241     -5.1300      3.8530      2.7100      0.0100     78.3900
    242     -1.8820      5.8930      3.0870      1.7700     78.3900
    243     -0.8270      6.5410      3.1770      1.5900     78.3900
    244     -2.3370      5.1500      4.1230      1.6800     78.3900
    245     -3.4700      4.4350      4.0010      1.7700     78.3900
    246     -3.9040      3.7290      5.0450      1.6800     78.3900
    247     -3.3650      3.7180      5.8900      0.0100     78.3900
    248     -4.7290      3.1570      4.9990      0.0100     78.3900
    249     -0.9800      6.0980      0.0010      1.7700     78.3900
    250     -0.4430      5.3590      0.6320      0.0100     78.3900
    251     -0.0720      7.0830     -0.4710      1.5900     78.3900
    252      0.5570      6.6650     -1.0820      0.0100     78.3900
    253     -1.7260      5.3990     -1.1310      1.7700     78.3900
    254     -2.2200      4.4770     -0.7530      0.0100     78.3900
    255     -0.9260      5.1160     -2.2910      1.5900     78.3900
    256     -0.2340      4.4660     -2.0670      0.0100     78.3900

 CREATION OF A NEW CAVITY WITH THE ORIGINAL SPHERE
 SIZES FOR THE COMPUTATION OF THE CAVITATION ENERGY.

     INPUT FOR CAVITY DEFINITION 
     ---------------------------
   ATOM               COORDINATES                RADIUS       EPS
      1      1.4680      4.2310     14.7320      0.0100     78.3900
      2      1.5820      4.6670     13.8660      1.5900     78.3900
      3      2.9120      5.2060     13.8480      1.7700     78.3900
      4      3.6420      4.3760     13.9900      0.0100     78.3900
      5      3.0330      5.9180     14.6950      0.0100     78.3900
      6      3.2480      5.9390     12.5450      1.7700     78.3900
      7      4.2780      6.3550     12.5760      0.0100     78.3900
      8      3.1880      5.0080     11.4240      1.5900     78.3900
      9      2.6350      5.6690     10.2960      1.7700     78.3900
     10      3.3720      5.5620      9.4670      0.0100     78.3900
     11      1.3630      5.0580      9.8820      1.6800     78.3900
     12      0.7530      5.2140      8.6670      1.7700     78.3900
     13      0.6900      6.5980      5.4980      1.6800     78.3900
     14      1.5080      7.1730      5.4860      0.0100     78.3900
     15      0.1010      6.5710      4.6860      0.0100     78.3900
     16      1.2110      5.9610      7.6480      1.6800     78.3900
     17      0.4260      5.8900      6.5770      1.7700     78.3900
     18     -0.6910      5.0970      6.5170      1.6800     78.3900
     19     -1.2300      5.1030      5.6650      0.0100     78.3900
     20     -1.1700      4.2890      7.5380      1.7700     78.3900
     21     -2.1840      3.5980      7.3880      1.5900     78.3900
     22     -0.3750      4.4150      8.7110      1.7700     78.3900
     23     -0.4970      3.8010      9.9520      1.6800     78.3900
     24      0.5650      4.2050     10.6120      1.7700     78.3900
     25      0.8260      3.9180     11.6340      0.0100     78.3900
     26      2.4880      7.1320     10.6530      1.7700     78.3900
     27      1.6300      7.6110     10.1400      0.0100     78.3900
     28      3.6800      7.8220     10.3320      1.5900     78.3900
     29      3.5780      8.7230     10.6620      0.0100     78.3900
     30      2.2760      7.0660     12.1630      1.7700     78.3900
     31      1.2490      6.6910     12.3900      0.0100     78.3900
     32      2.6180      8.2790     12.8830      1.5900     78.3900
     33      1.4560      9.3100     13.1820      2.1000     78.3900
     34      0.2980      8.5920     13.7520      1.5900     78.3900
     35      2.0250     10.4070     14.0000      1.5900     78.3900
     36      1.0770      9.8490     11.7480      1.5900     78.3900
     37      2.0040     10.7200     11.0570      1.7700     78.3900
     38      2.9970     10.2370     10.9400      0.0100     78.3900
     39      2.1530     11.6640     11.6320      0.0100     78.3900
     40      1.5010     11.1010      9.6580      1.7700     78.3900
     41      2.2320     11.7720      9.1540      0.0100     78.3900
     42      1.3640      9.9150      8.8210      1.5900     78.3900
     43      0.2190     10.0650      7.9870      1.7700     78.3900
     44      0.5950      9.9570      6.9440      0.0100     78.3900
     45     -0.8240      9.0270      8.2250      1.6800     78.3900
     46     -0.8530      8.3360      9.4120      1.7700     78.3900
     47     -0.0950      8.6210     10.1430      0.0100     78.3900
     48     -1.7510      7.3660      9.6340      1.7700     78.3900
     49     -1.7700      6.7880     10.5550      0.0100     78.3900
     50     -1.7800      8.7580      7.2480      1.7700     78.3900
     51     -1.7510      9.3940      6.1840      1.5900     78.3900
     52     -2.7060      7.7960      7.4620      1.6800     78.3900
     53     -2.7020      7.0960      8.6070      1.7700     78.3900
     54     -3.6060      6.1330      8.7710      1.6800     78.3900
     55     -4.2820      5.9650      8.0480      0.0100     78.3900
     56     -3.6240      5.5550      9.5890      0.0100     78.3900
     57     -0.3010     11.4780      8.1760      1.7700     78.3900
     58     -1.4040     11.5420      8.0660      0.0100     78.3900
     59      0.3370     12.3500      7.2550      1.5900     78.3900
     60      0.1550     13.2570      7.5420      0.0100     78.3900
     61      0.1260     11.7750      9.6090      1.7700     78.3900
     62     -0.5220     11.2300     10.3330      0.0100     78.3900
     63      0.2600     13.1800      9.9150      1.5900     78.3900
     64     -0.9340     13.9700     10.5610      2.1000     78.3900
     65     -1.1050     13.4950     11.9490      1.5900     78.3900
     66     -0.6810     15.4150     10.3960      1.5900     78.3900
     67     -2.1920     13.5670      9.7170      1.5900     78.3900
     68     -2.4710     14.2010      8.4450      1.7700     78.3900
     69     -1.6990     13.9380      7.6900      0.0100     78.3900
     70     -2.4950     15.3100      8.5440      0.0100     78.3900
     71     -3.8230     13.7540      7.8820      1.7700     78.3900
     72     -4.0580     14.2930      6.9380      0.0100     78.3900
     73     -3.7770     12.3320      7.5700      1.5900     78.3900
     74     -5.0300     11.7470      7.8680      1.7700     78.3900
     75     -5.3650     11.3080      6.9040      0.0100     78.3900
     76     -4.9130     10.6800      8.8970      1.6800     78.3900
     77     -3.9240     10.7380      9.8510      1.7700     78.3900
     78     -3.2630     11.5980      9.7810      0.0100     78.3900
     79     -5.7890      9.6220      8.8580      1.7700     78.3900
     80     -6.6750      9.5320      8.0070      1.5900     78.3900
     81     -5.6000      8.6720      9.8260      1.6800     78.3900
     82     -6.2390      7.8930      9.8130      0.0100     78.3900
     83     -4.6200      8.6520     10.7970      1.7700     78.3900
     84     -4.5400      7.7070     11.5790      1.5900     78.3900
     85     -3.7430      9.7820     10.7720      1.7700     78.3900
     86     -2.9290      9.8290     11.4920      0.0100     78.3900
     87     -5.9800     12.8740      8.2630      1.7700     78.3900
     88     -6.7370     12.5690      9.0160      0.0100     78.3900
     89     -6.6070     13.3590      7.0940      1.5900     78.3900
     90     -7.5410     13.0710      7.0730      0.0100     78.3900
     91     -5.0160     13.9070      8.8310      1.7700     78.3900
     92     -4.6610     13.5800      9.8320      0.0100     78.3900
     93     -5.4920     15.2730      8.8100      1.5900     78.3900
     94     -6.0430     15.9400     10.1250      2.1000     78.3900
     95     -5.1660     15.5890     11.2620      1.5900     78.3900
     96     -6.2020     17.3880      9.8600      1.5900     78.3900
     97     -7.4770     15.3140     10.3510      1.5900     78.3900
     98     -8.3070     15.8240     11.4320      1.7700     78.3900
     99     -7.9200     16.7720     11.8820      0.0100     78.3900
    100     -8.3420     15.0700     12.2510      0.0100     78.3900
    101     -9.7500     16.0980     10.9740      1.7700     78.3900
    102    -10.3830     16.4030     11.8390      0.0100     78.3900
    103     -9.7410     17.2140     10.0350      1.5900     78.3900
    104    -10.6830     16.9780      9.0010      1.7700     78.3900
    105    -11.3800     17.8480      9.0050      0.0100     78.3900
    106    -10.0300     16.9020      7.6880      1.6800     78.3900
    107     -9.6420     16.9340      5.5260      1.7700     78.3900
    108     -8.4010     16.8270      6.1370      1.6800     78.3900
    109     -8.6860     16.8000      7.4160      1.7700     78.3900
    110     -7.9540     16.7180      8.2200      0.0100     78.3900
    111    -11.3490     17.1310      3.9000      1.6800     78.3900
    112    -12.2170     17.0800      4.9150      1.7700     78.3900
    113    -13.2740     17.1580      4.6340      0.0100     78.3900
    114    -11.9750     17.0410      6.2310      1.6800     78.3900
    115    -10.6540     16.9650      6.4680      1.7700     78.3900
    116    -10.0230     17.0480      4.1750      1.7700     78.3900
    117     -9.1380     17.1030      3.1660      1.6800     78.3900
    118     -8.1730     16.8880      3.3230      0.0100     78.3900
    119     -9.4740     17.0300      2.2250      0.0100     78.3900
    120    -11.4490     15.7220      9.3430      1.7700     78.3900
    121    -11.7160     15.1320      8.4440      0.0100     78.3900
    122    -12.6230     16.0520     10.0600      1.5900     78.3900
    123    -12.9670     15.2300     10.4370      0.0100     78.3900
    124    -10.4540     14.9650     10.2090      1.7700     78.3900
    125     -9.6760     14.4930      9.5640      0.0100     78.3900
    126    -11.0790     14.0430     11.1250      1.5900     78.3900
    127    -10.9300     12.4890     10.9470      2.1000     78.3900
    128     -9.5310     12.1700     10.6030      1.5900     78.3900
    129    -11.4940     11.8310     12.1480      1.5900     78.3900
    130    -11.8420     12.1290      9.7100      1.5900     78.3900
    131    -13.2640     12.3730      9.6720      1.7700     78.3900
    132    -13.5240     13.3570     10.1230      0.0100     78.3900
    133    -13.7990     11.5830     10.2510      0.0100     78.3900
    134    -13.8060     12.3550      8.2290      1.7700     78.3900
    135    -14.9090     12.4650      8.2150      0.0100     78.3900
    136    -13.2590     13.4950      7.5090      1.5900     78.3900
    137    -12.9060     13.1130      6.1920      1.7700     78.3900
    138    -13.4170     13.8240      5.5020      0.0100     78.3900
    139    -11.4590     13.2030      5.9990      1.6800     78.3900
    140     -9.4470     13.4560      5.1560      1.7700     78.3900
    141     -9.2830     13.2190      6.5080      1.6800     78.3900
    142    -10.4910     13.0830      6.9590      1.7700     78.3900
    143    -10.7280     12.9170      8.0020      0.0100     78.3900
    144     -9.0340     13.9430      2.8820      1.6800     78.3900
    145    -10.3590     13.8600      2.7110      1.7700     78.3900
    146    -10.7140     14.0270      1.6880      0.0100     78.3900
    147    -11.3240     13.6260      3.6100      1.6800     78.3900
    148    -10.7910     13.4390      4.8250      1.7700     78.3900
    149     -8.5270     13.7340      4.1230      1.7700     78.3900
    150     -7.1930     13.8000      4.3090      1.6800     78.3900
    151     -6.8010     13.7850      5.2370      0.0100     78.3900
    152     -6.5980     14.0500      3.5460      0.0100     78.3900
    153    -13.4300     11.7110      5.9610      1.7700     78.3900
    154    -12.7710     11.1210      5.2880      0.0100     78.3900
    155    -14.7420     11.7540      5.4290      1.5900     78.3900
    156    -15.0450     10.8350      5.3560      0.0100     78.3900
    157    -13.4160     11.1310      7.3740      1.7700     78.3900
    158    -12.3730     10.8730      7.6600      0.0100     78.3900
    159    -14.3370     10.0300      7.6060      1.5900     78.3900
    160    -13.9290      8.6020      7.0600      2.1000     78.3900
    161    -12.4670      8.4460      7.2080      1.5900     78.3900
    162    -14.7790      7.5730      7.6970      1.5900     78.3900
    163    -14.2940      8.6450      5.5260      1.5900     78.3900
    164    -13.7440      7.6410      4.6260      1.7700     78.3900
    165    -14.4700      6.8060      4.5150      0.0100     78.3900
    166    -12.7960      7.1930      5.0150      0.0100     78.3900
    167    -13.4250      8.2090      3.2260      1.7700     78.3900
    168    -14.3470      8.3350      2.6230      0.0100     78.3900
    169    -12.8330      9.5360      3.3800      1.5900     78.3900
    170    -11.7200      9.6690      2.5240      1.7700     78.3900
    171    -11.8860     10.6190      1.9650      0.0100     78.3900
    172    -10.4280      9.7590      3.2640      1.6800     78.3900
    173    -10.3120      9.2450      4.5400      1.7700     78.3900
    174    -11.2150      8.8080      4.9740      0.0100     78.3900
    175     -9.1590      9.3300      5.2170      1.7700     78.3900
    176     -9.0420      8.9520      6.2300      0.0100     78.3900
    177     -9.3280     10.3680      2.6590      1.7700     78.3900
    178     -9.4550     10.8290      1.5130      1.5900     78.3900
    179     -8.1560     10.4560      3.3310      1.6800     78.3900
    180     -8.0600      9.9650      4.5770      1.7700     78.3900
    181     -6.9150     10.1240      5.2290      1.6800     78.3900
    182     -6.1910     10.6290      4.7610      0.0100     78.3900
    183     -6.8180      9.8870      6.1980      0.0100     78.3900
    184    -11.7730      8.5210      1.5430      1.7700     78.3900
    185    -10.7730      8.2610      1.1710      0.0100     78.3900
    186    -12.6040      8.8450      0.4420      1.5900     78.3900
    187    -12.7010      8.0390     -0.0900      0.0100     78.3900
    188    -12.3770      7.4150      2.4030      1.7700     78.3900
    189    -11.6170      7.0370      3.1260      0.0100     78.3900
    190    -13.0130      6.3490      1.6580      1.5900     78.3900
    191    -12.1560      5.1090      1.1780      2.1000     78.3900
    192    -11.2680      4.6960      2.2850      1.5900     78.3900
    193    -13.0710      4.0740      0.6380      1.5900     78.3900
    194    -11.2970      5.6330     -0.0430      1.5900     78.3900
    195     -9.9770      5.0650     -0.2950      1.7700     78.3900
    196     -9.9760      4.5320     -1.2700      0.0100     78.3900
    197     -9.6600      4.3190      0.4730      0.0100     78.3900
    198     -8.8810      6.1400     -0.3420      1.7700     78.3900
    199     -9.0310      6.8120     -1.2130      0.0100     78.3900
    200     -8.9650      6.9550      0.8480      1.5900     78.3900
    201     -7.6790      7.3300      1.2800      1.7700     78.3900
    202     -7.6700      8.4410      1.3420      0.0100     78.3900
    203     -7.4040      6.7670      2.6050      1.6800     78.3900
    204     -6.3620      7.0990      3.4230      1.7700     78.3900
    205     -3.5190      8.9590      4.0610      1.6800     78.3900
    206     -3.4050      9.4880      3.2230      0.0100     78.3900
    207     -2.8650      9.0840      4.8140      0.0100     78.3900
    208     -5.3960      7.9920      3.1480      1.6800     78.3900
    209     -4.5390      8.1300      4.1530      1.7700     78.3900
    210     -4.6350      7.4290      5.3260      1.6800     78.3900
[...]
   204    7   6.0   0.00    0.0    0.000000    0.712336    0.715948
   205    7   7.0  12.07   23.6   -0.104116   -0.969848   -1.051657
   206    7   1.0   0.00    0.0    0.000000    0.443677    0.439458
   207    7   1.0   0.00    0.0    0.000000    0.476480    0.524618
   208    7   7.0   4.00    7.8    0.070706   -0.743355   -0.748527
   209    7   6.0   0.00    0.0    0.000000    0.969651    0.977948
   210    7   7.0   0.00    0.0    0.000008   -0.931690   -1.021692
   211    7   1.0   0.00    0.0    0.000000    0.484189    0.545754
   212    7   6.0   0.42    0.7    0.005476    0.880485    0.883411
   213    7   8.0   9.68   21.1    0.158044   -0.765201   -0.752195
   214    7   6.0   0.31    0.5    0.004659   -0.058554   -0.051582
   215    7   7.0  12.48   24.4    0.195801   -0.611634   -0.617735
   216    7   6.0   6.14   10.8    0.011269    0.252144    0.240982
   217    7   1.0   0.00    0.0    0.000000    0.313764    0.314433
   218    7   6.0   0.00    0.0    0.000000    0.127772    0.094943
   219    7   1.0   0.00    0.0    0.000000    0.193693    0.230309
   220    7   8.0  16.26   35.5    0.086922   -0.825847   -0.843426
   221    7   1.0   0.00    0.0    0.000000    0.498859    0.526585
   222    7   6.0   1.89    3.3   -0.031182    0.144417    0.101669
   223    7   1.0   0.00    0.0    0.000000    0.240808    0.239814
   224    7   8.0   5.66   12.4    0.065260   -0.797283   -0.799478
   225    7  15.0   7.13    8.9    0.089736    1.609359    1.661138
   226    7   8.0  15.25   33.3    0.343166   -0.897624   -0.895179
   227    7   8.0  18.29   40.0    0.365960   -0.893606   -0.888334
   228    7   8.0   1.56    3.4    0.028458   -0.974787   -0.789289
   229    8   6.0  12.17   21.5   -0.100584    0.204877   -0.030264
   230    8   1.0   0.00    0.0    0.000000    0.143229    0.169750
   231    8   1.0   0.00    0.0    0.000000    0.249257    0.230064
   232    8   6.0   7.33   12.9   -0.046406    0.091786    0.150311
   233    8   1.0   0.00    0.0    0.000000    0.255771    0.226878
   234    8   8.0   3.52    7.7    0.048343   -0.728360   -0.735781
   235    8   6.0   2.83    5.0   -0.034423    0.421588    0.419123
   236    8   1.0   0.00    0.0    0.000000    0.251451    0.248290
   237    8   7.0   0.00    0.0   -0.000065   -0.824419   -0.833851
   238    8   6.0   2.83    5.0    0.000753    0.202541    0.181599
   239    8   1.0   0.00    0.0    0.000000    0.302594    0.331141
   240    8   6.0   8.19   14.4   -0.034124   -0.393951   -0.404599
   241    8   1.0   0.00    0.0    0.000000    0.269182    0.276398
   242    8   6.0   1.89    3.3   -0.003890    1.069074    1.079239
   243    8   8.0   9.18   20.1    0.139565   -0.800748   -0.769362
   244    8   7.0   2.32    4.5    0.018913   -0.869605   -0.865446
   245    8   6.0   1.84    3.2   -0.002853    0.718711    0.730733
   246    8   7.0  12.92   25.3   -0.100589   -0.946422   -1.000346
   247    8   1.0   0.00    0.0    0.000000    0.462879    0.499761
   248    8   1.0   0.00    0.0    0.000000    0.449907    0.449228
   249    8   6.0   6.89   12.1   -0.058972    0.119683    0.120979
   250    8   1.0   0.00    0.0    0.000000    0.228201    0.226533
   251    8   8.0  20.13   44.0    0.031439   -0.839632   -0.841137
   252    8   1.0   0.00    0.0    0.000000    0.504831    0.504959
   253    8   6.0   5.66   10.0   -0.052716    0.163344    0.147201
   254    8   1.0   0.00    0.0    0.000000    0.218156    0.221167
   255    8   8.0  22.85   50.0   -0.010081   -0.848752   -0.852570
   256    8   1.0   0.00    0.0    0.000000    0.508582    0.507932

 Done with FMO properties.
 CPU     0: STEP CPU TIME=     0.00 TOTAL CPU TIME=      11326.0 (    188.8 MIN)
 TOTAL WALL CLOCK TIME=      26151.2 SECONDS, CPU UTILIZATION IS    43.31%
 CPU     0: STEP CPU TIME=     0.00 TOTAL CPU TIME=      11326.0 (    188.8 MIN)
 TOTAL WALL CLOCK TIME=      26151.2 SECONDS, CPU UTILIZATION IS    43.31%

 Total timing statistics in pairs (CPU,wall) for each rank, sec

    Rank   total     SCF    corr     DFT    CPHF     EFP    solv     ESP    geom
 -------------------------------------------------------------------------------
       1   11326.0   3492.9   4289.4      0.0    0.0   0.0   86.5  3274.9    0.0
       1   26151.3   7560.8  11397.7      0.0    0.0   0.0  275.6  6466.2    0.0
       2   11273.5   3483.7   4310.7      0.0    0.0   0.0   87.2  3213.0    0.0
       2   26151.3   7556.8  11401.5      0.0    0.0   0.0  275.5  6465.6    0.0
       3   11558.8   3498.8   4582.0      0.0    0.0   0.0   87.5  3209.9    0.0
       3   26151.3   7557.0  11401.5      0.0    0.0   0.0  275.3  6465.8    0.0
       4   11053.3   3454.4   4172.3      0.0    0.0   0.0   86.7  3168.5    0.0
       4   26151.3   7557.3  11401.5      0.0    0.0   0.0  274.7  6465.6    0.0
       5   11595.9   3512.0   4558.5      0.0    0.0   0.0   86.8  3261.8    0.0
       5   26151.3   7557.1  11401.5      0.0    0.0   0.0  275.4  6465.7    0.0
       6   11261.9   3468.2   4368.8      0.0    0.0   0.0   87.7  3171.3    0.0
       6   26151.3   7557.6  11402.0      0.0    0.0   0.0  274.7  6465.6    0.0
       7   11511.6   3496.8   4456.9      0.0    0.0   0.0   87.3  3290.6    0.0
       7   26151.3   7557.5  11401.5      0.0    0.0   0.0  274.8  6465.6    0.0
       8   11207.9   3485.4   4256.6      0.0    0.0   0.0   86.9  3209.6    0.0
       8   26151.3   7557.9  11401.4      0.0    0.0   0.0  274.2  6465.5    0.0
       9   11626.1   3521.9   4675.2      0.0    0.0   0.0   85.7  3168.7    0.0
       9   26151.3   7558.4  11401.4      0.0    0.0   0.0  274.3  6465.5    0.0
      10   11509.6   3472.5   4615.6      0.0    0.0   0.0   86.6  3172.2    0.0
      10   26151.3   7558.0  11401.5      0.0    0.0   0.0  274.5  6465.4    0.0
      11   10982.5   3464.0   4172.8      0.0    0.0   0.0   85.7  3085.7    0.0
      11   26151.3   7558.4  11401.4      0.0    0.0   0.0  274.3  6465.2    0.0
      12   11557.3   3502.0   4657.2      0.0    0.0   0.0   86.1  3139.3    0.0
      12   26151.3   7558.7  11401.4      0.0    0.0   0.0  273.7  6465.1    0.0
      13   11396.0   3507.4   4441.7      0.0    0.0   0.0   85.5  3191.1    0.0
      13   26151.3   7558.9  11401.4      0.0    0.0   0.0  273.8  6465.3    0.0
      14   11700.6   3516.5   4730.5      0.0    0.0   0.0   85.4  3193.3    0.0
      14   26151.3   7559.0  11401.4      0.0    0.0   0.0  273.3  6465.3    0.0
      15   11818.7   3543.6   4853.1      0.0    0.0   0.0   85.1  3161.6    0.0
      15   26151.3   7558.6  11401.4      0.0    0.0   0.0  273.6  6465.2    0.0
      16   11487.5   3493.5   4579.5      0.0    0.0   0.0   85.0  3156.2    0.0
      16   26151.3   7559.0  11401.4      0.0    0.0   0.0  272.8  6465.2    0.0
averaged   11429.2   3494.6   4482.5      0.0    0.0   0.0   86.4  3191.7    0.0
averaged   26151.3   7558.2  11401.2      0.0    0.0   0.0  274.4  6465.5    0.0

  FMO  timing statistics in pairs (CPU,wall) for each rank, sec

    Rank  FMOini FMOscf1  FMOdm1 FMOsyn1 FMOscf2  FMOes2 FMOsyn2 FMOscf3 FMOsyn3
 -------------------------------------------------------------------------------
       1    1.6    4595.6    0.2    0.0    6602.8     125.7    0.0    0.0    0.0
       1    4.0    9469.2    0.4    0.0   16427.8     249.6    0.0    0.0    0.0
       2    1.2    4521.1    0.1    0.0    6625.9     125.2    0.0    0.0    0.0
       2    4.0    9469.2    0.4    0.0   16429.2     248.3    0.0    0.0    0.0
       3    1.3    4440.5    0.1    0.0    6990.8     126.1    0.0    0.0    0.0
       3    4.0    9469.2    0.4    0.0   16430.6     246.9    0.0    0.0    0.0
       4    1.2    4428.4    0.1    0.0    6504.9     118.8    0.0    0.0    0.0
       4    4.0    9469.2    0.4    0.0   16429.2     248.2    0.0    0.0    0.0
       5    1.4    4561.1    0.2    0.0    6911.3     122.0    0.0    0.0    0.0
       5    4.0    9469.2    0.4    0.0   16428.8     248.6    0.0    0.0    0.0
       6    1.2    4429.4    0.1    0.0    6718.7     112.6    0.0    0.0    0.0
       6    4.0    9469.2    0.4    0.0   16429.5     247.9    0.0    0.0    0.0
       7    1.3    4540.5    0.1    0.0    6843.2     126.5    0.0    0.0    0.0
       7    4.0    9469.2    0.4    0.0   16430.4     247.1    0.0    0.0    0.0
       8    1.1    4481.3    0.1    0.0    6608.6     116.8    0.0    0.0    0.0
       8    4.0    9469.2    0.4    0.0   16429.3     248.1    0.0    0.0    0.0
       9    1.4    4443.0    0.2    0.0    7060.3     121.2    0.0    0.0    0.0
       9    4.0    9469.2    0.4    0.0   16429.2     248.2    0.0    0.0    0.0
      10    1.1    4441.5    0.1    0.0    6956.3     110.6    0.0    0.0    0.0
      10    4.0    9469.2    0.4    0.0   16429.5     247.9    0.0    0.0    0.0
      11    1.2    4368.8    0.1    0.0    6490.7     121.7    0.0    0.0    0.0
      11    4.0    9469.2    0.4    0.0   16429.1     248.4    0.0    0.0    0.0
      12    1.1    4442.5    0.1    0.0    6992.6     121.0    0.0    0.0    0.0
      12    4.0    9469.2    0.4    0.0   16429.1     248.4    0.0    0.0    0.0
      13    1.3    4478.7    0.2    0.0    6797.8     118.0    0.0    0.0    0.0
      13    4.0    9469.2    0.4    0.0   16430.8     246.6    0.0    0.0    0.0
      14    1.1    4479.6    0.0    0.0    7095.9     123.9    0.0    0.0    0.0
      14    4.0    9469.2    0.4    0.0   16429.6     247.9    0.0    0.0    0.0
      15    1.2    4469.9    0.1    0.0    7223.4     124.0    0.0    0.0    0.0
      15    4.0    9469.2    0.4    0.0   16429.2     248.2    0.0    0.0    0.0
      16    1.1    4462.7    0.1    0.0    6901.2     122.5    0.0    0.0    0.0
      16    4.0    9469.2    0.4    0.0   16429.3     248.1    0.0    0.0    0.0
averaged    1.2    4474.0    0.1    0.0    6832.8     121.0    0.0    0.0    0.0
averaged    4.0    9469.2    0.4    0.0   16429.4     248.0    0.0    0.0    0.0
             62779328  WORDS OF DYNAMIC MEMORY USED
 EXECUTION OF GAMESS TERMINATED NORMALLY Fri Dec  6 19:13:13 2019
 DDI: 263640 bytes (0.3 MB / 0 MWords) used by master data server.

 ----------------------------------------
 CPU timing information for all processes
 ========================================
 0: 11049.514 + 276.529 = 11326.43
 1: 11021.903 + 251.625 = 11273.529
 2: 11287.926 + 270.958 = 11558.884
 3: 10811.852 + 241.530 = 11053.383
 4: 11320.26 + 275.963 = 11595.990
 5: 11011.561 + 250.370 = 11261.931
 6: 11252.992 + 258.666 = 11511.659
 7: 10967.129 + 240.839 = 11207.969
 8: 11341.155 + 284.989 = 11626.145
 9: 11251.357 + 258.324 = 11509.682
 10: 10741.927 + 240.667 = 10982.594
 11: 11298.946 + 258.407 = 11557.354
 12: 11134.971 + 261.80 = 11396.52
 13: 11435.463 + 265.159 = 11700.622
 14: 11537.838 + 280.881 = 11818.719
 15: 11219.12 + 268.583 = 11487.596
 ----------------------------------------
 ddikick.x: exited gracefully.
unset echo
----- accounting info -----
Files used on the master node gollum083.lsa.umich.edu were:
-rw-r--r-- 1 hazwong frank    13393 Dec  6 11:57 /scratch/hazwong/822158/4A4R_1/usrc/4A4R_1_fmo_input.F05
-rw-r--r-- 1 hazwong frank      634 Dec  6 19:13 /scratch/hazwong/822158/4A4R_1/usrc/4A4R_1_fmo_input.F06.001
-rw-r--r-- 1 hazwong frank      634 Dec  6 19:13 /scratch/hazwong/822158/4A4R_1/usrc/4A4R_1_fmo_input.F06.002
-rw-r--r-- 1 hazwong frank      634 Dec  6 19:13 /scratch/hazwong/822158/4A4R_1/usrc/4A4R_1_fmo_input.F06.003
-rw-r--r-- 1 hazwong frank      634 Dec  6 19:13 /scratch/hazwong/822158/4A4R_1/usrc/4A4R_1_fmo_input.F06.004
-rw-r--r-- 1 hazwong frank      634 Dec  6 19:13 /scratch/hazwong/822158/4A4R_1/usrc/4A4R_1_fmo_input.F06.005
-rw-r--r-- 1 hazwong frank      634 Dec  6 19:13 /scratch/hazwong/822158/4A4R_1/usrc/4A4R_1_fmo_input.F06.006
-rw-r--r-- 1 hazwong frank      634 Dec  6 19:13 /scratch/hazwong/822158/4A4R_1/usrc/4A4R_1_fmo_input.F06.007
-rw-r--r-- 1 hazwong frank      634 Dec  6 19:13 /scratch/hazwong/822158/4A4R_1/usrc/4A4R_1_fmo_input.F06.008
-rw-r--r-- 1 hazwong frank      634 Dec  6 19:13 /scratch/hazwong/822158/4A4R_1/usrc/4A4R_1_fmo_input.F06.009
-rw-r--r-- 1 hazwong frank      634 Dec  6 19:13 /scratch/hazwong/822158/4A4R_1/usrc/4A4R_1_fmo_input.F06.010
-rw-r--r-- 1 hazwong frank      634 Dec  6 19:13 /scratch/hazwong/822158/4A4R_1/usrc/4A4R_1_fmo_input.F06.011
-rw-r--r-- 1 hazwong frank      634 Dec  6 19:13 /scratch/hazwong/822158/4A4R_1/usrc/4A4R_1_fmo_input.F06.012
-rw-r--r-- 1 hazwong frank      634 Dec  6 19:13 /scratch/hazwong/822158/4A4R_1/usrc/4A4R_1_fmo_input.F06.013
-rw-r--r-- 1 hazwong frank      634 Dec  6 19:13 /scratch/hazwong/822158/4A4R_1/usrc/4A4R_1_fmo_input.F06.014
-rw-r--r-- 1 hazwong frank      634 Dec  6 19:13 /scratch/hazwong/822158/4A4R_1/usrc/4A4R_1_fmo_input.F06.015
-rw-r--r-- 1 hazwong frank     6172 Dec  6 19:13 /scratch/hazwong/822158/4A4R_1/usrc/4A4R_1_fmo_input.F07
-rw-r--r-- 1 hazwong frank        0 Dec  6 11:57 /scratch/hazwong/822158/4A4R_1/usrc/4A4R_1_fmo_input.F07.001
-rw-r--r-- 1 hazwong frank        0 Dec  6 11:57 /scratch/hazwong/822158/4A4R_1/usrc/4A4R_1_fmo_input.F07.002
-rw-r--r-- 1 hazwong frank        0 Dec  6 11:57 /scratch/hazwong/822158/4A4R_1/usrc/4A4R_1_fmo_input.F07.003
-rw-r--r-- 1 hazwong frank        0 Dec  6 11:57 /scratch/hazwong/822158/4A4R_1/usrc/4A4R_1_fmo_input.F07.004
-rw-r--r-- 1 hazwong frank        0 Dec  6 11:57 /scratch/hazwong/822158/4A4R_1/usrc/4A4R_1_fmo_input.F07.005
-rw-r--r-- 1 hazwong frank        0 Dec  6 11:57 /scratch/hazwong/822158/4A4R_1/usrc/4A4R_1_fmo_input.F07.006
-rw-r--r-- 1 hazwong frank        0 Dec  6 11:57 /scratch/hazwong/822158/4A4R_1/usrc/4A4R_1_fmo_input.F07.007
-rw-r--r-- 1 hazwong frank        0 Dec  6 11:57 /scratch/hazwong/822158/4A4R_1/usrc/4A4R_1_fmo_input.F07.008
-rw-r--r-- 1 hazwong frank        0 Dec  6 11:57 /scratch/hazwong/822158/4A4R_1/usrc/4A4R_1_fmo_input.F07.009
-rw-r--r-- 1 hazwong frank        0 Dec  6 11:57 /scratch/hazwong/822158/4A4R_1/usrc/4A4R_1_fmo_input.F07.010
-rw-r--r-- 1 hazwong frank        0 Dec  6 11:57 /scratch/hazwong/822158/4A4R_1/usrc/4A4R_1_fmo_input.F07.011
-rw-r--r-- 1 hazwong frank        0 Dec  6 11:57 /scratch/hazwong/822158/4A4R_1/usrc/4A4R_1_fmo_input.F07.012
-rw-r--r-- 1 hazwong frank        0 Dec  6 11:57 /scratch/hazwong/822158/4A4R_1/usrc/4A4R_1_fmo_input.F07.013
-rw-r--r-- 1 hazwong frank        0 Dec  6 11:57 /scratch/hazwong/822158/4A4R_1/usrc/4A4R_1_fmo_input.F07.014
-rw-r--r-- 1 hazwong frank        0 Dec  6 11:57 /scratch/hazwong/822158/4A4R_1/usrc/4A4R_1_fmo_input.F07.015
-rw-r--r-- 1 hazwong frank    65440 Dec  6 19:13 /scratch/hazwong/822158/4A4R_1/usrc/4A4R_1_fmo_input.F10.000
-rw-r--r-- 1 hazwong frank        0 Dec  6 11:57 /scratch/hazwong/822158/4A4R_1/usrc/4A4R_1_fmo_input.F26.000
-rw-r--r-- 1 hazwong frank        0 Dec  6 11:57 /scratch/hazwong/822158/4A4R_1/usrc/4A4R_1_fmo_input.F26.001
-rw-r--r-- 1 hazwong frank        0 Dec  6 11:57 /scratch/hazwong/822158/4A4R_1/usrc/4A4R_1_fmo_input.F26.002
-rw-r--r-- 1 hazwong frank        0 Dec  6 11:57 /scratch/hazwong/822158/4A4R_1/usrc/4A4R_1_fmo_input.F26.003
-rw-r--r-- 1 hazwong frank        0 Dec  6 11:57 /scratch/hazwong/822158/4A4R_1/usrc/4A4R_1_fmo_input.F26.004
-rw-r--r-- 1 hazwong frank        0 Dec  6 11:57 /scratch/hazwong/822158/4A4R_1/usrc/4A4R_1_fmo_input.F26.005
-rw-r--r-- 1 hazwong frank        0 Dec  6 11:57 /scratch/hazwong/822158/4A4R_1/usrc/4A4R_1_fmo_input.F26.006
-rw-r--r-- 1 hazwong frank        0 Dec  6 11:57 /scratch/hazwong/822158/4A4R_1/usrc/4A4R_1_fmo_input.F26.007
-rw-r--r-- 1 hazwong frank        0 Dec  6 11:57 /scratch/hazwong/822158/4A4R_1/usrc/4A4R_1_fmo_input.F26.008
-rw-r--r-- 1 hazwong frank        0 Dec  6 11:57 /scratch/hazwong/822158/4A4R_1/usrc/4A4R_1_fmo_input.F26.009
-rw-r--r-- 1 hazwong frank        0 Dec  6 11:57 /scratch/hazwong/822158/4A4R_1/usrc/4A4R_1_fmo_input.F26.010
-rw-r--r-- 1 hazwong frank        0 Dec  6 11:57 /scratch/hazwong/822158/4A4R_1/usrc/4A4R_1_fmo_input.F26.011
-rw-r--r-- 1 hazwong frank        0 Dec  6 11:57 /scratch/hazwong/822158/4A4R_1/usrc/4A4R_1_fmo_input.F26.012
-rw-r--r-- 1 hazwong frank        0 Dec  6 11:57 /scratch/hazwong/822158/4A4R_1/usrc/4A4R_1_fmo_input.F26.013
-rw-r--r-- 1 hazwong frank        0 Dec  6 11:57 /scratch/hazwong/822158/4A4R_1/usrc/4A4R_1_fmo_input.F26.014
-rw-r--r-- 1 hazwong frank        0 Dec  6 11:57 /scratch/hazwong/822158/4A4R_1/usrc/4A4R_1_fmo_input.F26.015
-rw-r--r-- 1 hazwong frank        0 Dec  6 11:57 /scratch/hazwong/822158/4A4R_1/usrc/4A4R_1_fmo_input.F27.000
-rw-r--r-- 1 hazwong frank        0 Dec  6 11:57 /scratch/hazwong/822158/4A4R_1/usrc/4A4R_1_fmo_input.F27.001
-rw-r--r-- 1 hazwong frank        0 Dec  6 11:57 /scratch/hazwong/822158/4A4R_1/usrc/4A4R_1_fmo_input.F27.002
-rw-r--r-- 1 hazwong frank        0 Dec  6 11:57 /scratch/hazwong/822158/4A4R_1/usrc/4A4R_1_fmo_input.F27.003
-rw-r--r-- 1 hazwong frank        0 Dec  6 11:57 /scratch/hazwong/822158/4A4R_1/usrc/4A4R_1_fmo_input.F27.004
-rw-r--r-- 1 hazwong frank        0 Dec  6 11:57 /scratch/hazwong/822158/4A4R_1/usrc/4A4R_1_fmo_input.F27.005
-rw-r--r-- 1 hazwong frank        0 Dec  6 11:57 /scratch/hazwong/822158/4A4R_1/usrc/4A4R_1_fmo_input.F27.006
-rw-r--r-- 1 hazwong frank        0 Dec  6 11:57 /scratch/hazwong/822158/4A4R_1/usrc/4A4R_1_fmo_input.F27.007
-rw-r--r-- 1 hazwong frank        0 Dec  6 11:57 /scratch/hazwong/822158/4A4R_1/usrc/4A4R_1_fmo_input.F27.008
-rw-r--r-- 1 hazwong frank        0 Dec  6 11:57 /scratch/hazwong/822158/4A4R_1/usrc/4A4R_1_fmo_input.F27.009
-rw-r--r-- 1 hazwong frank        0 Dec  6 11:57 /scratch/hazwong/822158/4A4R_1/usrc/4A4R_1_fmo_input.F27.010
-rw-r--r-- 1 hazwong frank        0 Dec  6 11:57 /scratch/hazwong/822158/4A4R_1/usrc/4A4R_1_fmo_input.F27.011
-rw-r--r-- 1 hazwong frank        0 Dec  6 11:57 /scratch/hazwong/822158/4A4R_1/usrc/4A4R_1_fmo_input.F27.012
-rw-r--r-- 1 hazwong frank        0 Dec  6 11:57 /scratch/hazwong/822158/4A4R_1/usrc/4A4R_1_fmo_input.F27.013
-rw-r--r-- 1 hazwong frank        0 Dec  6 11:57 /scratch/hazwong/822158/4A4R_1/usrc/4A4R_1_fmo_input.F27.014
-rw-r--r-- 1 hazwong frank        0 Dec  6 11:57 /scratch/hazwong/822158/4A4R_1/usrc/4A4R_1_fmo_input.F27.015
-rw-r--r-- 1 hazwong frank 16236544 Dec  6 14:35 /scratch/hazwong/822158/4A4R_1/usrc/4A4R_1_fmo_input.F40.000
-rw-r--r-- 1 hazwong frank 16236544 Dec  6 14:35 /scratch/hazwong/822158/4A4R_1/usrc/4A4R_1_fmo_input.F40.001
-rw-r--r-- 1 hazwong frank 16236544 Dec  6 14:35 /scratch/hazwong/822158/4A4R_1/usrc/4A4R_1_fmo_input.F40.002
-rw-r--r-- 1 hazwong frank 16236544 Dec  6 14:35 /scratch/hazwong/822158/4A4R_1/usrc/4A4R_1_fmo_input.F40.003
-rw-r--r-- 1 hazwong frank 16236544 Dec  6 14:35 /scratch/hazwong/822158/4A4R_1/usrc/4A4R_1_fmo_input.F40.004
-rw-r--r-- 1 hazwong frank 16236544 Dec  6 14:35 /scratch/hazwong/822158/4A4R_1/usrc/4A4R_1_fmo_input.F40.005
-rw-r--r-- 1 hazwong frank 16236544 Dec  6 14:35 /scratch/hazwong/822158/4A4R_1/usrc/4A4R_1_fmo_input.F40.006
-rw-r--r-- 1 hazwong frank 16236544 Dec  6 14:35 /scratch/hazwong/822158/4A4R_1/usrc/4A4R_1_fmo_input.F40.007
-rw-r--r-- 1 hazwong frank 16236544 Dec  6 14:35 /scratch/hazwong/822158/4A4R_1/usrc/4A4R_1_fmo_input.F40.008
-rw-r--r-- 1 hazwong frank 16236544 Dec  6 14:35 /scratch/hazwong/822158/4A4R_1/usrc/4A4R_1_fmo_input.F40.009
-rw-r--r-- 1 hazwong frank 16236544 Dec  6 14:35 /scratch/hazwong/822158/4A4R_1/usrc/4A4R_1_fmo_input.F40.010
-rw-r--r-- 1 hazwong frank 16236544 Dec  6 14:35 /scratch/hazwong/822158/4A4R_1/usrc/4A4R_1_fmo_input.F40.011
-rw-r--r-- 1 hazwong frank 16236544 Dec  6 14:35 /scratch/hazwong/822158/4A4R_1/usrc/4A4R_1_fmo_input.F40.012
-rw-r--r-- 1 hazwong frank 16236544 Dec  6 14:35 /scratch/hazwong/822158/4A4R_1/usrc/4A4R_1_fmo_input.F40.013
-rw-r--r-- 1 hazwong frank 16236544 Dec  6 14:35 /scratch/hazwong/822158/4A4R_1/usrc/4A4R_1_fmo_input.F40.014
-rw-r--r-- 1 hazwong frank 16236544 Dec  6 14:35 /scratch/hazwong/822158/4A4R_1/usrc/4A4R_1_fmo_input.F40.015
ls: No match.
ls: No match.
ls: No match.
Fri Dec  6 19:13:23 EST 2019
0.209u 0.085s 7:16:01.83 0.0%	0+0k 1656+120io 26pf+0w
