‘1F7Y_1_fmo_input.inp’ -> ‘/scratch/hazwong/824381/./1F7Y_1_fmo_input.inp’
‘rungms’ -> ‘/scratch/hazwong/824381/./rungms’
‘gms-files.csh’ -> ‘/scratch/hazwong/824381/./gms-files.csh’
----- GAMESS execution script 'rungms' -----
This job is running on host gollum051.lsa.umich.edu
under operating system Linux at Sat Dec 7 01:26:32 EST 2019
Available scratch disk space (Kbyte units) at beginning of the job is
Filesystem     1K-blocks   Used Available Use% Mounted on
/dev/sda4      426933580 297596 426635984   1% /scratch
GAMESS temporary binary files will be written to /scratch/hazwong/824381/1F7Y_1/usrc
GAMESS supplementary output files will be written to /scratch/hazwong/824381/1F7Y_1/src
Copying input file 1F7Y_1_fmo_input.inp to your run's scratch directory...
cp 1F7Y_1_fmo_input.inp /scratch/hazwong/824381/1F7Y_1/usrc/1F7Y_1_fmo_input.F05
unset echo
This is a GDDI run, keeping various output files on local disks
setenv OUTPUT /scratch/hazwong/824381/1F7Y_1/usrc/1F7Y_1_fmo_input.F06
setenv PUNCH /scratch/hazwong/824381/1F7Y_1/usrc/1F7Y_1_fmo_input.F07
unset echo
 
Assuming a single but multicore node.
 
/export/apps/CentOS7/gamess/src/build//ddikick.x /export/apps/CentOS7/gamess/src/build//gamess.R3.x 1F7Y_1_fmo_input -ddi 1 16 gollum051.lsa.umich.edu:cpus=16 -scr /scratch/hazwong/824381/1F7Y_1/usrc

 Distributed Data Interface kickoff program.
 Initiating 16 compute processes on 1 nodes to run the following command:
 /export/apps/CentOS7/gamess/src/build//gamess.R3.x 1F7Y_1_fmo_input 

          ******************************************************
          *         GAMESS VERSION = 30 SEP 2018 (R3)         *
          *             FROM IOWA STATE UNIVERSITY             *
          * M.W.SCHMIDT, K.K.BALDRIDGE, J.A.BOATZ, S.T.ELBERT, *
          *   M.S.GORDON, J.H.JENSEN, S.KOSEKI, N.MATSUNAGA,   *
          *          K.A.NGUYEN, S.J.SU, T.L.WINDUS,           *
          *       TOGETHER WITH M.DUPUIS, J.A.MONTGOMERY       *
          *         J.COMPUT.CHEM.  14, 1347-1363(1993)        *
          **************** 64 BIT LINUX VERSION ****************

  SINCE 1993, STUDENTS AND POSTDOCS WORKING AT IOWA STATE UNIVERSITY
  AND ALSO IN THEIR VARIOUS JOBS AFTER LEAVING ISU HAVE MADE IMPORTANT
  CONTRIBUTIONS TO THE CODE:
     IVANA ADAMOVIC, CHRISTINE AIKENS, YURI ALEXEEV, POOJA ARORA,
     ANDREY ASADCHEV, ROB BELL, PRADIPTA BANDYOPADHYAY, JONATHAN BENTZ,
     BRETT BODE, KURT BRORSEN, CALEB CARLIN, GALINA CHABAN, WEI CHEN,
     CHEOL HO CHOI, PAUL DAY, ALBERT DEFUSCO, NUWAN DESILVA, TIM DUDLEY,
     DMITRI FEDOROV, ALEX FINDLATER, GRAHAM FLETCHER, MARK FREITAG,
     KURT GLAESEMANN, ANASTASIA GUNINA,
     DAN KEMP, GRANT MERRILL, NORIYUKI MINEZAWA, JONATHAN MULLIN,
     TAKESHI NAGATA, SEAN NEDD, HEATHER NETZLOFF, BOSILJKA NJEGIC, RYAN OLSON,
     MIKE PAK, BUU PHAM,
     SPENCER PRUITT, LUKE ROSKOP, JIM SHOEMAKER, LYUDMILA SLIPCHENKO,
     TONY SMITH, SAROM SOK LEANG, JIE SONG, TETSUYA TAKETSUGU, SIMON WEBB,
     PENG XU, SOOHAENG YOO, FEDERICO ZAHARIEV

  ADDITIONAL CODE HAS BEEN PROVIDED BY COLLABORATORS IN OTHER GROUPS:
     IOWA STATE UNIVERSITY:
          JOE IVANIC, AARON WEST, LAIMUTIS BYTAUTAS, KLAUS RUEDENBERG
     UNIVERSITY OF TOKYO: KIMIHIKO HIRAO, TAKAHITO NAKAJIMA,
          TAKAO TSUNEDA, MUNEAKI KAMIYA, SUSUMU YANAGISAWA,
          KIYOSHI YAGI, MAHITO CHIBA, SEIKEN TOKURA, NAOAKI KAWAKAMI
     UNIVERSITY OF AARHUS: FRANK JENSEN
     UNIVERSITY OF IOWA: VISVALDAS KAIRYS, HUI LI
     NATIONAL INST. OF STANDARDS AND TECHNOLOGY: WALT STEVENS, DAVID GARMER
     UNIVERSITY OF PISA: BENEDETTA MENNUCCI, JACOPO TOMASI
     UNIVERSITY OF MEMPHIS: HENRY KURTZ, PRAKASHAN KORAMBATH
     UNIVERSITY OF ALBERTA: TOBY ZENG, MARIUSZ KLOBUKOWSKI
     UNIVERSITY OF NEW ENGLAND: MARK SPACKMAN
     MIE UNIVERSITY: HIROAKI UMEDA
     NAT. INST. OF ADVANCED INDUSTRIAL SCIENCE AND TECHNOLOGY: KAZUO KITAURA
     MICHIGAN STATE UNIVERSITY:
          KAROL KOWALSKI, MARTA WLOCH, JEFFREY GOUR, JESSE LUTZ,
          WEI LI, JUN SHEN, J. EMILIANO DEUSTUA, PIOTR PIECUCH
     UNIVERSITY OF MINNESOTA:
          YINAN SHU
     UNIVERSITY OF SILESIA: MONIKA MUSIAL, STANISLAW KUCHARSKI
     FACULTES UNIVERSITAIRES NOTRE-DAME DE LA PAIX:
          OLIVIER QUINET, BENOIT CHAMPAGNE
     UNIVERSITY OF CALIFORNIA - SANTA BARBARA: BERNARD KIRTMAN
     INSTITUTE FOR MOLECULAR SCIENCE:
          KAZUYA ISHIMURA, MICHIO KATOUDA, AND SHIGERU NAGASE
     UNIVERSITY OF NOTRE DAME: ANNA POMOGAEVA, DAN CHIPMAN
     KYUSHU UNIVERSITY:
          HARUYUKI NAKANO,
          FENG LONG GU, JACEK KORCHOWIEC, MARCIN MAKOWSKI, AND YURIKO AOKI,
          HIROTOSHI MORI AND EISAKU MIYOSHI
     PENNSYLVANIA STATE UNIVERSITY:
          TZVETELIN IORDANOV, CHET SWALINA, JONATHAN SKONE,
          SHARON HAMMES-SCHIFFER
     WASEDA UNIVERSITY:
          MASATO KOBAYASHI, TOMOKO AKAMA, TSUGUKI TOUMA,
          TAKESHI YOSHIKAWA, YASUHIRO IKABATA, JUNJI SEINO,
          YUYA NAKAJIMA, HIROMI NAKAI
     NANJING UNIVERSITY: SHUHUA LI
     UNIVERSITY OF NEBRASKA:
          PEIFENG SU, DEJUN SI, NANDUN THELLAMUREGE, YALI WANG, HUI LI
     UNIVERSITY OF ZURICH: ROBERTO PEVERATI, KIM BALDRIDGE
     N. COPERNICUS UNIVERSITY AND JACKSON STATE UNIVERSITY:
          MARIA BARYSZ
     UNIVERSITY OF COPENHAGEN: Jimmy Kromann, CASPER STEINMANN
     TOKYO INSTITUTE OF TECHNOLOGY: HIROYA NAKATA
     NAGOYA UNIVERSITY: YOSHIO NISHIMOTO, STEPHAN IRLE
     MOSCOW STATE UNIVERSITY: VLADIMIR MIRONOV


 PARALLEL VERSION RUNNING ON       16 PROCESSORS IN        1 NODES.

 EXECUTION OF GAMESS BEGUN Sat Dec  7 01:26:33 2019

            ECHO OF THE FIRST FEW INPUT CARDS -
 INPUT CARD>!*** FMO 5.3 (Gamess) INPUT generated by Facio 22.1.1.32 ***                    
 INPUT CARD> $CONTRL RUNTYP=ENERGY NPRINT=-5 ISPHER=1 MAXIT=200 $END                        
 INPUT CARD> $SYSTEM MWORDS=63 MEMDDI=63 $END                                               
 INPUT CARD> $GDDI NGROUP=1 $END                                                            
 INPUT CARD> $SCF DIRSCF=.TRUE. NPUNCH=0 $END                                               
 INPUT CARD>!*** NumCPU : 2  MemPerNode : 512MB                                             
 INPUT CARD> $PCM SOLVNT=WATER IEF=-10 ICOMP=2 ICAV=1 IDISP=1 IFMO=-1 $END                  
 INPUT CARD> $PCMCAV RADII=SUAHF $END                                                       
 INPUT CARD> $TESCAV NTSALL=60 $END                                                         
 INPUT CARD> $FMOPRP                                                                        
 INPUT CARD>    NAODIR=200                                                                  
 INPUT CARD>    NGRFMO(1)=1, 1, 0, 0, 0,   0, 0, 0, 0, 0                                    
 INPUT CARD>    IPIEDA=1                                                                    
 INPUT CARD>    NPRINT=9                                                                    
 INPUT CARD> $END                                                                           
 INPUT CARD> $FMO                                                                           
 INPUT CARD>      SCFTYP(1)=RHF                                                             
 INPUT CARD>      MODGRD=10                                                                 
 INPUT CARD>      MODMUL=0                                                                  
 INPUT CARD>      MAXCAO=5                                                                  
 INPUT CARD>      MAXBND=10                                                                 
 INPUT CARD>      NLAYER=1                                                                  
 INPUT CARD>      MPLEVL(1)=2                                                               
 INPUT CARD>      NFRAG=8                                                                   
 INPUT CARD>      ICHARG(1)=-1, -1, -1, -1, -1, -1, -1, 0                                   
 INPUT CARD>      FRGNAM(1)=F1, F2, F3, F4, F5, F6, F7, F8                                  
 INPUT CARD>      indat(1)=0                                                                
 INPUT CARD>               1   -35   0                                                      
 INPUT CARD>               36   -66   0                                                     
 INPUT CARD>               67   -96   0                                                     
 INPUT CARD>               97   -126   0                                                    
 INPUT CARD>               127   -157   0                                                   
 INPUT CARD>               158   -191   0                                                   
 INPUT CARD>               192   -225   0                                                   
 INPUT CARD>               226   -252   0                                                   
 INPUT CARD> $END                                                                           
 INPUT CARD>                                                                                
 INPUT CARD> $FMOBND                                                                        
 INPUT CARD>   -36   35       6-31G*    MINI                                                
 INPUT CARD>   -67   66       6-31G*    MINI                                                
 INPUT CARD>   -97   96       6-31G*    MINI                                                
 INPUT CARD>   -127   126       6-31G*    MINI                                              
 INPUT CARD>   -158   157       6-31G*    MINI                                              
 INPUT CARD>   -192   191       6-31G*    MINI                                              
 INPUT CARD>   -226   225       6-31G*    MINI                                              
 INPUT CARD> $END                                                                           
 INPUT CARD> $FMOHYB                                                                        
 INPUT CARD> 6-31G*      15   5                                                             
 INPUT CARD>   1 0  -0.065034   0.288264   0.000000   0.000000   0.604412                   
 INPUT CARD>         0.290129   0.000000   0.000000   0.319045  -0.017106                   


 -------------------------------------------------------------
 GROUP DDI, PROGRAMMED BY: RYAN M. OLSON AND DMITRI G. FEDOROV
        FEDOROV ET AL., J. COMPUT. CHEM., 25 (2004) 872.
 -------------------------------------------------------------

 -------------------------------------------------------
 GDDI: INITIALIZATION COMPLETED FOR GROUP     1 OF     1
 WITH    16 PROCESSES BALTYP=DLB   global rank=        0
 -------------------------------------------------------

   63000000 WORDS OF MEMORY AVAILABLE


     RUN TITLE
     ---------
  FMO calculation                                                                

 THE POINT GROUP OF THE MOLECULE IS C1      
 THE ORDER OF THE PRINCIPAL AXIS IS     0

 ATOM   ATOMIC CHARGE
 H.1-1       1.0
 O.1-1       8.0
 C.1-1       6.0
 N.1-1       7.0
 P.1-1      15.0

     ATOMIC BASIS SET LIBRARY
     ----------------
 THE CONTRACTED PRIMITIVE FUNCTIONS HAVE BEEN UNNORMALIZED
 THE CONTRACTED BASIS FUNCTIONS ARE NOW NORMALIZED TO UNITY

  SHELL TYPE  PRIMITIVE        EXPONENT          CONTRACTION COEFFICIENT(S)

 H.1-1     

      1   S       1            18.7311370    0.033494604338
      1   S       2             2.8253944    0.234726953484
      1   S       3             0.6401217    0.813757326146

      2   S       4             0.1612778    1.000000000000

 O.1-1     

      3   S       5          5484.6716600    0.001831074430
      3   S       6           825.2349460    0.013950172200
      3   S       7           188.0469580    0.068445078098
      3   S       8            52.9645000    0.232714335992
      3   S       9            16.8975704    0.470192897984
      3   S      10             5.7996353    0.358520852987

      4   L      11            15.5396162   -0.110777549525    0.070874268231
      4   L      12             3.5999336   -0.148026262701    0.339752839147
      4   L      13             1.0137618    1.130767015354    0.727158577316

      5   L      14             0.2700058    1.000000000000    1.000000000000

      6   D      15             0.8000000    1.000000000000

 C.1-1     

      7   S      16          3047.5248800    0.001834737132
      7   S      17           457.3695180    0.014037322813
      7   S      18           103.9486850    0.068842622264
      7   S      19            29.2101553    0.232184443216
      7   S      20             9.2866630    0.467941348435
      7   S      21             3.1639270    0.362311985337

      8   L      22             7.8682723   -0.119332419775    0.068999066591
      8   L      23             1.8812885   -0.160854151696    0.316423960957
      8   L      24             0.5442493    1.143456437840    0.744308290898

      9   L      25             0.1687145    1.000000000000    1.000000000000

     10   D      26             0.8000000    1.000000000000

 N.1-1     

     11   S      27          4173.5114600    0.001834772160
     11   S      28           627.4579110    0.013994627002
     11   S      29           142.9020930    0.068586551812
     11   S      30            40.2343293    0.232240873040
     11   S      31            12.8202129    0.469069948082
     11   S      32             4.3904370    0.360455199063

     12   L      33            11.6263619   -0.114961181702    0.067579743878
     12   L      34             2.7162798   -0.169117478561    0.323907295893
     12   L      35             0.7722184    1.145851947027    0.740895139755

     13   L      36             0.2120315    1.000000000000    1.000000000000

     14   D      37             0.8000000    1.000000000000

 P.1-1     

     15   S      38         19413.3000000    0.001851598923
     15   S      39          2909.4200000    0.014206191735
     15   S      40           661.3640000    0.069999459277
     15   S      41           185.7590000    0.240078860331
     15   S      42            59.1943000    0.484761717984
     15   S      43            20.0310000    0.335199804993

     16   L      44           339.4780000   -0.002782170105    0.004564616191
     16   L      45            81.0101000   -0.036049901354    0.033693571881
     16   L      46            25.8780000   -0.116631004382    0.139754883368
     16   L      47             9.4522100    0.096832803638    0.339361716786
     16   L      48             3.6656600    0.614418023082    0.450920623685
     16   L      49             1.4674600    0.403798015170    0.238585800889

     17   L      50             2.1562300   -0.252924113863   -0.017765312733
     17   L      51             0.7489970    0.032851844678    0.274058196433
     17   L      52             0.2831450    1.081254761783    0.785421562957

     18   L      53             0.0998317    1.000000000000    1.000000000000

     19   D      54             0.5500000    1.000000000000

 TOTAL NUMBER OF BASIS SET SHELLS             =   19
 NUMBER OF CARTESIAN GAUSSIAN BASIS FUNCTIONS =   66

     $CONTRL OPTIONS
     ---------------
 SCFTYP=RHF          RUNTYP=ENERGY       EXETYP=RUN     
 MPLEVL=       0     CITYP =NONE         CCTYP =NONE         VBTYP =NONE    
 DFTTYP=NONE         TDDFT =NONE    
 MULT  =       1     ICHARG=       0     NZVAR =       0     COORD =UNIQUE  
 PP    =NONE         RELWFN=NONE         LOCAL =NONE         NUMGRD=       F
 ISPHER=       1     NOSYM =       0     MAXIT =     200     UNITS =ANGS    
 PLTORB=       F     MOLPLT=       F     AIMPAC=       F     FRIEND=        
 NPRINT=      -5     IREST =       0     GEOM  =INPUT   
 NORMF =       0     NORMP =       0     ITOL  =      24     ICUT  =      12
 INTTYP=BEST         GRDTYP=BEST         QMTTOL= 1.0E-06

     $SYSTEM OPTIONS
     ---------------
  REPLICATED MEMORY=    63000000 WORDS (ON EVERY NODE).
 DISTRIBUTED MEMDDI=          63 MILLION WORDS IN AGGREGATE,
 MEMDDI DISTRIBUTED OVER  16 PROCESSORS IS     3937500 WORDS/PROCESSOR.
 TOTAL MEMORY REQUESTED ON EACH PROCESSOR=    66937500 WORDS.
 TIMLIM=      525600.00 MINUTES, OR     365.0 DAYS.
 PARALL= T  BALTYP=  DLB     KDIAG=    0  COREFL= F
 MXSEQ2=     300 MXSEQ3=     150  mem10=         0

 ** LOOKING UP INTERNALLY STORED DATA FOR SOLVENT=WATER    **
 OPTICAL AND PHYSICAL CONSTANTS:
 EPS= 78.390; EPSINF=  1.776; RSOLV=  1.385 A; VMOL=  18.070 ML/MOL;
 TCE= .25700E-03 1/K; STEN= 71.810 DYN/CM;  DSTEN=  0.6500; CMF=  1.2770


     -----------------------------------
     INPUT FOR PCM SOLVATION CALCULATION 
     -----------------------------------
     IEF   =     -10
     ICOMP =       2     IFIELD=       0     ICAV  =       1
     IDISP =       1     IREP  =       0     IDP   =       0

     SOLVNT=WATER        EPS   = 78.3900     EPSINF=  1.7760
     VMOL  = 18.0700     TCE   =  0.00025700 STEN  = 71.8100
     DSTEN =  0.6500     CMF   =  1.2770     RSOLV =  1.3850

     NESFP =       0
     OMEGA = 40.0000     RET   =100.0000     FRO   =  0.7000

     TABS  =298.0000     IPRINT=       0

     --------------------------------
     INPUT FOR ITERATIVE C-PCM METHOD 
     --------------------------------
     IPCMIT  =         1     MXDIIS  =        50
     MXITR1  =       200     MXITR2  =       200
     THRES   = 0.100E-09     IMUL    =         3
     RCUT(1) =   20.0000     RCUT(2) =   50.0000

     IDIRCT  =         1
     IMGABI  =         0     RABI    =    4.0000
     IMGASC  =         0     RASC    =   20.0000
     THRSLS  = 0.500E-03     DENSLS  =    0.0100
     IEFPOL  =         1     REFPOL  =    0.0000

     INPUT FOR ISOTROPIC DIELECTRICS
     -------------------------------
     EPS=    78.39

          ----------------
          PROPERTIES INPUT
          ----------------

     MOMENTS            FIELD           POTENTIAL          DENSITY
 IEMOM =       1   IEFLD =       0   IEPOT =       0   IEDEN =       0
 WHERE =COMASS     WHERE =NUCLEI     WHERE =NUCLEI     WHERE =NUCLEI  
 OUTPUT=BOTH       OUTPUT=BOTH       OUTPUT=NONE       OUTPUT=BOTH    
 IEMINT=       0   IEFINT=       0                     IEDINT=       0
                                                       MORB  =       0
          EXTRAPOLATION IN EFFECT
          SOSCF IN EFFECT
 ORBITAL PRINTING OPTION: NPREO=     1 32767     2     1

     -------------------------------
     INTEGRAL TRANSFORMATION OPTIONS
     -------------------------------
     NWORD  =            0
     CUTOFF = 1.0E-10     MPTRAN =       0
     DIRTRF =       T     AOINTS =DUP     

          ----------------------
          INTEGRAL INPUT OPTIONS
          ----------------------
 NOPK  =       1 NORDER=       0 SCHWRZ=       T

 ..... DONE SETTING UP THE RUN .....
 CPU     0: STEP CPU TIME=     0.03 TOTAL CPU TIME=          0.0 (      0.0 MIN)
 TOTAL WALL CLOCK TIME=          0.1 SECONDS, CPU UTILIZATION IS    50.00%
 CPU     0: STEP CPU TIME=     0.01 TOTAL CPU TIME=          0.0 (      0.0 MIN)
 TOTAL WALL CLOCK TIME=          0.1 SECONDS, CPU UTILIZATION IS    66.67%

                    ----------------------
                    AO INTEGRAL TECHNOLOGY
                    ----------------------
     S,P,L SHELL ROTATED AXIS INTEGRALS, REPROGRAMMED BY
        KAZUYA ISHIMURA (IMS) AND JOSE SIERRA (SYNSTAR).
     S,P,D,L SHELL ROTATED AXIS INTEGRALS PROGRAMMED BY
        KAZUYA ISHIMURA (INSTITUTE FOR MOLECULAR SCIENCE).
     S,P,D,F,G SHELL TO TOTAL QUARTET ANGULAR MOMENTUM SUM 5,
        ERIC PROGRAM BY GRAHAM FLETCHER (ELORET AND NASA ADVANCED
        SUPERCOMPUTING DIVISION, AMES RESEARCH CENTER).
     S,P,D,F,G,L SHELL GENERAL RYS QUADRATURE PROGRAMMED BY
        MICHEL DUPUIS (PACIFIC NORTHWEST NATIONAL LABORATORY).
 Setting modorb=1 flag...
 Setting modorb=1 flag...

          -----------------------
          MP2 CONTROL INFORMATION
          -----------------------
          NACORE =        8  NBCORE =        8
          LMOMP2 =        F  AOINTS = DUP     
          METHOD =        2  NWORD  =               0
          MP2PRP =        F  OSPT   = NONE    
          CUTOFF = 1.00E-12  CPHFBS = BASISAO 
          CODE   = IMS     

          NUMBER OF CORE -A-  ORBITALS =     8
          NUMBER OF CORE -B-  ORBITALS =     8
          NUMBER OF OCC. -A-  ORBITALS =    18
          NUMBER OF OCC. -B-  ORBITALS =    18
          NUMBER OF MOLECULAR ORBITALS =    66
          NUMBER OF   BASIS  FUNCTIONS =    66

 CPU     0: STEP CPU TIME=     0.02 TOTAL CPU TIME=          0.1 (      0.0 MIN)
 TOTAL WALL CLOCK TIME=          0.1 SECONDS, CPU UTILIZATION IS    66.67%
 CPU     0: STEP CPU TIME=     0.00 TOTAL CPU TIME=          0.1 (      0.0 MIN)
 TOTAL WALL CLOCK TIME=          0.1 SECONDS, CPU UTILIZATION IS    66.67%

     INPUT FOR CAVITY DEFINITION 
     ---------------------------
   ATOM               COORDINATES                RADIUS       EPS
      1     -1.8490     -6.9700     -6.7300      0.0100     78.3900
      2     -1.4650     -6.0740     -6.6650      1.5900     78.3900
      3     -1.7370     -5.4110     -7.9090      1.7700     78.3900
      4     -2.8390     -5.4060     -8.0840      0.0100     78.3900
      5     -1.2550     -5.9790     -8.7340      0.0100     78.3900
      6     -1.2320     -3.9650     -7.9470      1.7700     78.3900
      7     -1.4340     -3.5000     -8.9350      0.0100     78.3900
      8     -1.9290     -3.1690     -6.9440      1.5900     78.3900
      9     -1.0250     -2.2390     -6.3750      1.7700     78.3900
     10     -1.4690     -1.2270     -6.5170      0.0100     78.3900
     11     -0.8430     -2.4860     -4.9400      1.6800     78.3900
     12     -0.4030     -2.2460     -2.7970      1.7700     78.3900
     13     -0.9050     -3.5320     -2.9480      1.6800     78.3900
     14     -1.1570     -3.6240     -4.2340      1.7700     78.3900
     15     -1.5840     -4.5000     -4.7310      0.0100     78.3900
     16      0.4820     -0.2570     -1.8640      1.6800     78.3900
     17      0.5030      0.2240     -3.1120      1.7700     78.3900
     18      0.8780      1.2490     -3.2190      0.0100     78.3900
     19      0.0990     -0.3530     -4.2490      1.6800     78.3900
     20     -0.3490     -1.5960     -4.0190      1.7700     78.3900
     21      0.0240     -1.5190     -1.6640      1.7700     78.3900
     22     -0.0050     -2.0110     -0.4100      1.6800     78.3900
     23     -0.3750     -2.9230     -0.2030      0.0100     78.3900
     24      0.3400     -1.4630      0.3550      0.0100     78.3900
     25      0.2710     -2.3330     -7.1490      1.7700     78.3900
     26      1.1580     -2.1230     -6.5200      0.0100     78.3900
     27      0.2340     -1.4420     -8.2460      1.5900     78.3900
     28      1.0750     -1.5410     -8.7060      0.0100     78.3900
     29      0.2560     -3.7860     -7.6150      1.7700     78.3900
     30      0.4760     -4.4660     -6.7590      0.0100     78.3900
     31      1.0620     -4.0700     -8.7860      1.5900     78.3900
     32      2.5550     -4.5400     -8.5850      2.1000     78.3900
     33      2.5780     -5.6340     -7.5910      1.5900     78.3900
     34      3.1640     -4.8230     -9.9040      1.5900     78.3900
     35      3.2560     -3.2760     -7.9650      1.5900     78.3900
     36      3.4940     -2.0940     -8.7700      1.7700     78.3900
     37      2.5610     -1.7350     -9.2570      0.0100     78.3900
     38      4.2200     -2.3090     -9.5840      0.0100     78.3900
     39      4.0590     -0.9470     -7.9180      1.7700     78.3900
     40      4.1590     -0.0220     -8.5260      0.0100     78.3900
     41      3.1520     -0.6440     -6.8240      1.5900     78.3900
     42      3.9080     -0.2730     -5.6810      1.7700     78.3900
     43      3.5660      0.7560     -5.4280      0.0100     78.3900
     44      3.6700     -1.1580     -4.5100      1.6800     78.3900
     45      3.1730     -2.4290     -4.6860      1.7700     78.3900
     46      2.9800     -2.7290     -5.7160      0.0100     78.3900
     47      2.9250     -3.2310     -3.6410      1.7700     78.3900
     48      2.5000     -4.2260     -3.7580      0.0100     78.3900
     49      3.9790     -0.7070     -3.2300      1.7700     78.3900
     50      4.4520      0.4310     -3.0830      1.5900     78.3900
     51      3.7520     -1.5080     -2.1660      1.6800     78.3900
     52      3.2230     -2.7310     -2.3400      1.7700     78.3900
     53      2.9730     -3.4820     -1.2730      1.6800     78.3900
     54      3.1480     -3.1010     -0.3620      0.0100     78.3900
     55      2.5520     -4.3880     -1.3490      0.0100     78.3900
     56      5.3700     -0.2220     -6.0890      1.7700     78.3900
     57      6.0520     -0.5270     -5.2660      0.0100     78.3900
     58      5.7080      1.0780     -6.5380      1.5900     78.3900
     59      6.6040      1.0280     -6.9080      0.0100     78.3900
     60      5.4110     -1.2230     -7.2380      1.7700     78.3900
     61      5.3710     -2.2680     -6.8540      0.0100     78.3900
     62      6.4880     -1.0170     -8.1790      1.5900     78.3900
     63      7.9220     -1.6030     -7.8730      2.1000     78.3900
     64      7.7730     -3.0590     -7.6520      1.5900     78.3900
     65      8.8410     -1.1850     -8.9560      1.5900     78.3900
     66      8.3760     -0.9070     -6.5300      1.5900     78.3900
     67      9.3840     -1.5250     -5.6940      1.7700     78.3900
     68     10.3910     -1.4210     -6.1510      0.0100     78.3900
     69      9.1910     -2.6170     -5.5590      0.0100     78.3900
     70      9.4410     -0.8900     -4.2940      1.7700     78.3900
     71      9.7760      0.1660     -4.3470      0.0100     78.3900
     72      8.1120     -0.8970     -3.7000      1.5900     78.3900
     73      8.1930     -1.2200     -2.3270      1.7700     78.3900
     74      7.6810     -0.3860     -1.7960      0.0100     78.3900
     75      7.4920     -2.5060     -2.0280      1.6800     78.3900
     76      7.1480     -3.3850     -3.0350      1.7700     78.3900
     77      7.4560     -3.0970     -4.0430      0.0100     78.3900
     78      7.1210     -2.7560     -0.7260      1.7700     78.3900
     79      7.3590     -1.9790      0.1900      1.5900     78.3900
     80      6.4470     -3.9310     -0.5240      1.6800     78.3900
     81      6.1670     -4.1330      0.4260      0.0100     78.3900
     82      6.0680     -4.8510     -1.4790      1.7700     78.3900
     83      5.4320     -5.8530     -1.1570      1.5900     78.3900
     84      6.4600     -4.5150     -2.8140      1.7700     78.3900
     85      6.1770     -5.1840     -3.6220      0.0100     78.3900
     86      9.6730     -1.2340     -1.9500      1.7700     78.3900
     87      9.8950     -1.9770     -1.1580      0.0100     78.3900
     88     10.0810      0.0570     -1.5210      1.5900     78.3900
     89      9.5870      0.2930     -0.7140      0.0100     78.3900
     90     10.3240     -1.6370     -3.2750      1.7700     78.3900
     91     10.1510     -2.7260     -3.4320      0.0100     78.3900
     92     11.7170     -1.2470     -3.4010      1.5900     78.3900
     93     12.7590     -2.1960     -4.1010      2.1000     78.3900
     94     12.0270     -3.1830     -4.9260      1.5900     78.3900
     95     13.7750     -1.3820     -4.7970      1.5900     78.3900
     96     13.4590     -2.9540     -2.9160      1.5900     78.3900
     97     14.3020     -2.2940     -1.9500      1.7700     78.3900
     98     13.7570     -1.4530     -1.4610      0.0100     78.3900
     99     15.2050     -1.8750     -2.4520      0.0100     78.3900
    100     14.7440     -3.2810     -0.8530      1.7700     78.3900
    101     13.8530     -3.6400     -0.2970      0.0100     78.3900
    102     15.4270     -4.4320     -1.4250      1.5900     78.3900
    103     16.8060     -4.3870     -1.1120      1.7700     78.3900
    104     16.9490     -5.1540     -0.3140      0.0100     78.3900
    105     17.6280     -4.6710     -2.3140      1.6800     78.3900
    106     17.3070     -4.0720     -3.5100      1.7700     78.3900
    107     16.4250     -3.4260     -3.4880      0.0100     78.3900
    108     18.6920     -5.5400     -2.2180      1.7700     78.3900
    109     18.9970     -6.1020     -1.1710      1.5900     78.3900
    110     19.3740     -5.7500     -3.3920      1.6800     78.3900
    111     20.1570     -6.3870     -3.3430      0.0100     78.3900
    112     19.0850     -5.2220     -4.6330      1.7700     78.3900
    113     19.7540     -5.5460     -5.6150      1.5900     78.3900
    114     17.9780     -4.3140     -4.6460      1.7700     78.3900
    115     17.6820     -3.8630     -5.5900      0.0100     78.3900
    116     17.0910     -3.0140     -0.5300      1.7700     78.3900
    117     17.3060     -2.2760     -1.3350      0.0100     78.3900
    118     18.1530     -3.0450      0.4030      1.5900     78.3900
    119     17.8430     -3.5630      1.1640      0.0100     78.3900
    120     15.7560     -2.6870      0.1380      1.7700     78.3900
    121     15.6320     -1.5760      0.1560      0.0100     78.3900
    122     15.6180     -3.2820      1.4420      1.5900     78.3900
    123     15.0150     -2.4930      2.6550      2.1000     78.3900
    124     15.3010     -3.2690      3.8790      1.5900     78.3900
    125     15.4900     -1.0940      2.6130      1.5900     78.3900
    126     13.4680     -2.5130      2.3760      1.5900     78.3900
    127     12.5490     -1.9490      3.3500      1.7700     78.3900
    128     12.0090     -1.0880      2.8930      0.0100     78.3900
    129     13.0560     -1.5470      4.2610      0.0100     78.3900
    130     11.4990     -2.9610      3.8350      1.7700     78.3900
    131     10.9240     -2.4960      4.6620      0.0100     78.3900
    132     10.5590     -3.2770      2.7720      1.5900     78.3900
    133     10.6160     -4.6610      2.4890      1.7700     78.3900
    134      9.8010     -5.1170      3.0960      0.0100     78.3900
    135     10.4200     -4.9040      1.0420      1.6800     78.3900
    136     11.2160     -4.2250      0.1580      1.7700     78.3900
    137     11.9460     -3.5410      0.6040      0.0100     78.3900
    138     11.0580     -4.3760     -1.1630      1.7700     78.3900
    139     11.6550     -3.8330     -1.8830      0.0100     78.3900
    140      9.4350     -5.7710      0.5740      1.7700     78.3900
    141      8.7350     -6.3890      1.3920      1.5900     78.3900
    142      9.2540     -5.9210     -0.7610      1.6800     78.3900
    143     10.0300     -5.2430     -1.6230      1.7700     78.3900
    144      9.8240     -5.3960     -2.9320      1.6800     78.3900
    145     10.4510     -5.0240     -3.6180      0.0100     78.3900
    146      9.1490     -6.0680     -3.2310      0.0100     78.3900
    147     11.9430     -5.1560      3.0260      1.7700     78.3900
    148     12.7690     -4.8920      2.3300      0.0100     78.3900
    149     11.9560     -6.5460      3.2880      1.5900     78.3900
    150     11.3750     -6.6900      4.0520      0.0100     78.3900
    151     12.0540     -4.3200      4.3070      1.7700     78.3900
    152     13.1350     -4.1980      4.5520      0.0100     78.3900
    153     11.2940     -4.8540      5.4220      1.5900     78.3900
    154     11.8170     -4.6580      6.9030      2.1000     78.3900
    155     10.9750     -5.4760      7.8070      1.5900     78.3900
    156     13.2670     -4.9430      6.9420      1.5900     78.3900
    157     11.5900     -3.1350      7.2340      1.5900     78.3900
    158     10.2770     -2.5400      7.3630      1.7700     78.3900
    159      9.6420     -3.0900      8.0900      0.0100     78.3900
    160      9.7500     -2.5610      6.3850      0.0100     78.3900
    161     10.3690     -1.0710      7.8230      1.7700     78.3900
    162     10.8000     -0.9970      8.8400      0.0100     78.3900
    163     11.2670     -0.3520      6.9200      1.5900     78.3900
    164     10.7560      0.9400      6.6590      1.7700     78.3900
    165     11.5610      1.6460      6.9710      0.0100     78.3900
    166     10.4620      1.1410      5.2210      1.6800     78.3900
    167      9.6710      0.3830      4.3780      1.7700     78.3900
    168      7.5720     -2.3220      3.9130      1.6800     78.3900
    169      7.0000     -2.7410      3.2170      0.0100     78.3900
    170      7.5580     -2.6910      4.8400      0.0100     78.3900
    171      8.9890     -0.7210      4.7050      1.6800     78.3900
    172      8.3170     -1.2470      3.7080      1.7700     78.3900
    173      8.3100     -0.7060      2.4530      1.6800     78.3900
    174      7.8290     -1.1930      1.7150      0.0100     78.3900
    175      9.0100      0.4290      2.0630      1.7700     78.3900
    176      8.9680      0.8540      0.9010      1.5900     78.3900
    177      9.7340      1.0010      3.1490      1.7700     78.3900
    178     10.5470      2.1280      3.2020      1.6800     78.3900
    179     10.9600      2.1690      4.4500      1.7700     78.3900
    180     11.6240      2.9310      4.8660      0.0100     78.3900
    181      9.5430      1.1520      7.5450      1.7700     78.3900
    182      8.7660      1.7610      7.0430      0.0100     78.3900
    183      9.9210      1.7720      8.7600      1.5900     78.3900
    184      9.1410      1.7460      9.3360      0.0100     78.3900
    185      9.0400     -0.2730      7.7840      1.7700     78.3900
    186      8.4690     -0.6490      6.9210      0.0100     78.3900
    187      8.2560     -0.4560      8.9820      1.5900     78.3900
    188      6.7180     -0.0510      8.9500      2.1000     78.3900
    189      6.0470     -0.7930      7.8590      1.5900     78.3900
    190      6.1890     -0.2450     10.3200      1.5900     78.3900
    191      6.6920      1.4970      8.6330      1.5900     78.3900
    192      5.5640      2.1100      7.9530      1.7700     78.3900
    193      5.0790      2.8470      8.6330      0.0100     78.3900
    194      4.7720      1.3710      7.6790      0.0100     78.3900
    195      5.9770      2.8360      6.6630      1.7700     78.3900
    196      6.6500      3.6920      6.8910      0.0100     78.3900
    197      6.7090      1.9260      5.7970      1.5900     78.3900
    198      6.3030      2.1040      4.4560      1.7700     78.3900
    199      7.2310      2.2520      3.8580      0.0100     78.3900
    200      5.5830      0.9270      3.9540      1.6800     78.3900
    201      5.2980      0.6570      2.6440      1.7700     78.3900
    202      5.5500      1.4470     -0.7180      1.6800     78.3900
    203      6.0330      2.3210     -0.7150      0.0100     78.3900
    204      5.2050      1.0760     -1.5850      0.0100     78.3900
    205      5.6300      1.4230      1.5910      1.6800     78.3900
    206      5.2770      0.8660      0.4330      1.7700     78.3900
    207      4.6200     -0.3320      0.3450      1.6800     78.3900
    208      4.3810     -0.6810     -0.5700      0.0100     78.3900
    209      4.2590     -1.1400      1.4120      1.7700     78.3900
    210      3.6800     -2.2160      1.2370      1.5900     78.3900
    211      4.6370     -0.5580      2.6500      1.7700     78.3900
    212      4.4910     -1.0340      3.9450      1.6800     78.3900
    213      5.0780     -0.1250      4.6890      1.7700     78.3900
    214      5.1920     -0.1640      5.7760      0.0100     78.3900
    215      5.4560      3.3510      4.4110      1.7700     78.3900
    216      4.7010      3.3250      3.6000      0.0100     78.3900
    217      6.2860      4.4840      4.2460      1.5900     78.3900
    218      5.7190      5.2570      4.3430      0.0100     78.3900
    219      4.8080      3.3240      5.7910      1.7700     78.3900
    220      4.0320      2.5240      5.8320      0.0100     78.3900
    221      4.3340      4.6040      6.2650      1.5900     78.3900
    222      2.8100      4.9780      6.1290      2.1000     78.3900
    223      1.9900      3.7940      6.4650      1.5900     78.3900
    224      2.5460      6.2130      6.9040      1.5900     78.3900
    225      2.6520      5.2600      4.5880      1.5900     78.3900
    226      3.3330      6.3520      3.9370      1.7700     78.3900
    227      4.4300      6.3210      4.1160      0.0100     78.3900
    228      2.9590      7.3250      4.3200      0.0100     78.3900
    229      3.0860      6.3460      2.4210      1.7700     78.3900
    230      3.5340      7.2470      1.9470      0.0100     78.3900
    231      3.7110      5.1770      1.8190      1.5900     78.3900
    232      2.8790      4.6810      0.7780      1.7700     78.3900
    233      3.5110      4.6590     -0.1400      0.0100     78.3900
    234      2.3770      3.3090      1.0810      1.6800     78.3900
    235      2.3520      2.8270      2.3710      1.7700     78.3900
    236      2.7330      3.5060      3.1300      0.0100     78.3900
    237      1.9230      2.5400      0.0350      1.7700     78.3900
    238      1.8980      2.9450     -1.1220      1.5900     78.3900
    239      1.4960      1.2820      0.3830      1.6800     78.3900
    240      1.1520      0.7160     -0.3850      0.0100     78.3900
    241      1.4430      0.7350      1.6490      1.7700     78.3900
    242      1.0070     -0.4020      1.8130      1.5900     78.3900
    243      1.9250      1.5970      2.6850      1.7700     78.3900
    244      1.9350      1.2310      3.7100      0.0100     78.3900
    245      1.7480      5.6840      0.5840      1.7700     78.3900
    246      0.8050      5.1880      0.2680      0.0100     78.3900
    247      2.1310      6.6640     -0.3720      1.5900     78.3900
    248      1.4760      7.3820     -0.3740      0.0100     78.3900
    249      1.6160      6.2570      1.9910      1.7700     78.3900
    250      1.1000      5.5300      2.6550      0.0100     78.3900
    251      0.9780      7.5470      2.0480      1.5900     78.3900
    252      0.0430      7.4770      1.7690      0.0100     78.3900

     ----------------------------
     INPUT FOR TESSERA DEFINITION
     ----------------------------
     NTSALL  =        60     MTHALL  =         4
     MTHAUT  =         0     AUTFRE  =    2.0000
     NTSFRZ  =        60     KEEPSM  =         0
     AREAKP  =   10.0000     BONDRY  =    1.0000
     AREATL  =    0.0100

     SPHERE     INITS       METHOD
          1        60       FIXPVA
          2        60       FIXPVA
          3        60       FIXPVA
          4        60       FIXPVA
          5        60       FIXPVA
          6        60       FIXPVA
          7        60       FIXPVA
          8        60       FIXPVA
          9        60       FIXPVA
         10        60       FIXPVA
         11        60       FIXPVA
         12        60       FIXPVA
         13        60       FIXPVA
         14        60       FIXPVA
         15        60       FIXPVA
         16        60       FIXPVA
         17        60       FIXPVA
         18        60       FIXPVA
         19        60       FIXPVA
         20        60       FIXPVA
         21        60       FIXPVA
         22        60       FIXPVA
         23        60       FIXPVA
         24        60       FIXPVA
         25        60       FIXPVA
         26        60       FIXPVA
         27        60       FIXPVA
         28        60       FIXPVA
         29        60       FIXPVA
         30        60       FIXPVA
         31        60       FIXPVA
         32        60       FIXPVA
         33        60       FIXPVA
         34        60       FIXPVA
         35        60       FIXPVA
         36        60       FIXPVA
         37        60       FIXPVA
         38        60       FIXPVA
         39        60       FIXPVA
         40        60       FIXPVA
         41        60       FIXPVA
         42        60       FIXPVA
         43        60       FIXPVA
         44        60       FIXPVA
         45        60       FIXPVA
         46        60       FIXPVA
         47        60       FIXPVA
         48        60       FIXPVA
         49        60       FIXPVA
         50        60       FIXPVA
         51        60       FIXPVA
         52        60       FIXPVA
         53        60       FIXPVA
         54        60       FIXPVA
         55        60       FIXPVA
         56        60       FIXPVA
         57        60       FIXPVA
         58        60       FIXPVA
         59        60       FIXPVA
         60        60       FIXPVA
         61        60       FIXPVA
         62        60       FIXPVA
         63        60       FIXPVA
         64        60       FIXPVA
         65        60       FIXPVA
         66        60       FIXPVA
         67        60       FIXPVA
         68        60       FIXPVA
         69        60       FIXPVA
         70        60       FIXPVA
         71        60       FIXPVA
         72        60       FIXPVA
         73        60       FIXPVA
         74        60       FIXPVA
         75        60       FIXPVA
         76        60       FIXPVA
         77        60       FIXPVA
         78        60       FIXPVA
         79        60       FIXPVA
         80        60       FIXPVA
         81        60       FIXPVA
         82        60       FIXPVA
         83        60       FIXPVA
         84        60       FIXPVA
         85        60       FIXPVA
         86        60       FIXPVA
         87        60       FIXPVA
         88        60       FIXPVA
         89        60       FIXPVA
         90        60       FIXPVA
         91        60       FIXPVA
         92        60       FIXPVA
         93        60       FIXPVA
         94        60       FIXPVA
         95        60       FIXPVA
         96        60       FIXPVA
         97        60       FIXPVA
         98        60       FIXPVA
         99        60       FIXPVA
        100        60       FIXPVA
        101        60       FIXPVA
        102        60       FIXPVA
        103        60       FIXPVA
        104        60       FIXPVA
        105        60       FIXPVA
        106        60       FIXPVA
        107        60       FIXPVA
        108        60       FIXPVA
        109        60       FIXPVA
        110        60       FIXPVA
        111        60       FIXPVA
        112        60       FIXPVA
        113        60       FIXPVA
        114        60       FIXPVA
        115        60       FIXPVA
        116        60       FIXPVA
        117        60       FIXPVA
        118        60       FIXPVA
        119        60       FIXPVA
        120        60       FIXPVA
        121        60       FIXPVA
        122        60       FIXPVA
        123        60       FIXPVA
        124        60       FIXPVA
        125        60       FIXPVA
        126        60       FIXPVA
        127        60       FIXPVA
        128        60       FIXPVA
        129        60       FIXPVA
        130        60       FIXPVA
        131        60       FIXPVA
        132        60       FIXPVA
        133        60       FIXPVA
        134        60       FIXPVA
        135        60       FIXPVA
        136        60       FIXPVA
        137        60       FIXPVA
        138        60       FIXPVA
        139        60       FIXPVA
        140        60       FIXPVA
        141        60       FIXPVA
        142        60       FIXPVA
        143        60       FIXPVA
        144        60       FIXPVA
        145        60       FIXPVA
        146        60       FIXPVA
        147        60       FIXPVA
        148        60       FIXPVA
        149        60       FIXPVA
        150        60       FIXPVA
        151        60       FIXPVA
        152        60       FIXPVA
        153        60       FIXPVA
        154        60       FIXPVA
        155        60       FIXPVA
        156        60       FIXPVA
        157        60       FIXPVA
        158        60       FIXPVA
        159        60       FIXPVA
        160        60       FIXPVA
        161        60       FIXPVA
        162        60       FIXPVA
        163        60       FIXPVA
        164        60       FIXPVA
        165        60       FIXPVA
        166        60       FIXPVA
        167        60       FIXPVA
        168        60       FIXPVA
        169        60       FIXPVA
        170        60       FIXPVA
        171        60       FIXPVA
        172        60       FIXPVA
        173        60       FIXPVA
        174        60       FIXPVA
        175        60       FIXPVA
        176        60       FIXPVA
        177        60       FIXPVA
        178        60       FIXPVA
        179        60       FIXPVA
        180        60       FIXPVA
        181        60       FIXPVA
        182        60       FIXPVA
        183        60       FIXPVA
        184        60       FIXPVA
        185        60       FIXPVA
        186        60       FIXPVA
        187        60       FIXPVA
        188        60       FIXPVA
        189        60       FIXPVA
        190        60       FIXPVA
        191        60       FIXPVA
        192        60       FIXPVA
        193        60       FIXPVA
        194        60       FIXPVA
        195        60       FIXPVA
        196        60       FIXPVA
        197        60       FIXPVA
        198        60       FIXPVA
        199        60       FIXPVA
        200        60       FIXPVA
        201        60       FIXPVA
        202        60       FIXPVA
        203        60       FIXPVA
        204        60       FIXPVA
        205        60       FIXPVA
        206        60       FIXPVA
        207        60       FIXPVA
        208        60       FIXPVA
        209        60       FIXPVA
        210        60       FIXPVA
        211        60       FIXPVA
        212        60       FIXPVA
        213        60       FIXPVA
        214        60       FIXPVA
        215        60       FIXPVA
        216        60       FIXPVA
        217        60       FIXPVA
        218        60       FIXPVA
        219        60       FIXPVA
        220        60       FIXPVA
        221        60       FIXPVA
        222        60       FIXPVA
        223        60       FIXPVA
        224        60       FIXPVA
        225        60       FIXPVA
        226        60       FIXPVA
        227        60       FIXPVA
        228        60       FIXPVA
        229        60       FIXPVA
        230        60       FIXPVA
        231        60       FIXPVA
        232        60       FIXPVA
        233        60       FIXPVA
        234        60       FIXPVA
        235        60       FIXPVA
        236        60       FIXPVA
        237        60       FIXPVA
        238        60       FIXPVA
        239        60       FIXPVA
        240        60       FIXPVA
        241        60       FIXPVA
        242        60       FIXPVA
        243        60       FIXPVA
        244        60       FIXPVA
        245        60       FIXPVA
        246        60       FIXPVA
        247        60       FIXPVA
        248        60       FIXPVA
        249        60       FIXPVA
        250        60       FIXPVA
        251        60       FIXPVA
        252        60       FIXPVA

     ------------------------------
      FIXPVA TESSELLATION FOR PCM
         PEIFENG SU AND HUI LI
     UNIVERSITY OF NEBRASKA-LINCOLN
     ------------------------------


 PCM DIMENSIONS: MXSP=   252, MXTS=     10080, MEMORY=        103575

     INPUT FOR CAVITY DEFINITION 
     ---------------------------
   ATOM               COORDINATES                RADIUS       EPS
      1     -1.8490     -6.9700     -6.7300      0.0100     78.3900
      2     -1.4650     -6.0740     -6.6650      1.5900     78.3900
      3     -1.7370     -5.4110     -7.9090      1.7700     78.3900
      4     -2.8390     -5.4060     -8.0840      0.0100     78.3900
      5     -1.2550     -5.9790     -8.7340      0.0100     78.3900
      6     -1.2320     -3.9650     -7.9470      1.7700     78.3900
      7     -1.4340     -3.5000     -8.9350      0.0100     78.3900
      8     -1.9290     -3.1690     -6.9440      1.5900     78.3900
      9     -1.0250     -2.2390     -6.3750      1.7700     78.3900
     10     -1.4690     -1.2270     -6.5170      0.0100     78.3900
     11     -0.8430     -2.4860     -4.9400      1.6800     78.3900
     12     -0.4030     -2.2460     -2.7970      1.7700     78.3900
     13     -0.9050     -3.5320     -2.9480      1.6800     78.3900
     14     -1.1570     -3.6240     -4.2340      1.7700     78.3900
     15     -1.5840     -4.5000     -4.7310      0.0100     78.3900
     16      0.4820     -0.2570     -1.8640      1.6800     78.3900
     17      0.5030      0.2240     -3.1120      1.7700     78.3900
     18      0.8780      1.2490     -3.2190      0.0100     78.3900
     19      0.0990     -0.3530     -4.2490      1.6800     78.3900
     20     -0.3490     -1.5960     -4.0190      1.7700     78.3900
     21      0.0240     -1.5190     -1.6640      1.7700     78.3900
     22     -0.0050     -2.0110     -0.4100      1.6800     78.3900
     23     -0.3750     -2.9230     -0.2030      0.0100     78.3900
     24      0.3400     -1.4630      0.3550      0.0100     78.3900
     25      0.2710     -2.3330     -7.1490      1.7700     78.3900
     26      1.1580     -2.1230     -6.5200      0.0100     78.3900
     27      0.2340     -1.4420     -8.2460      1.5900     78.3900
     28      1.0750     -1.5410     -8.7060      0.0100     78.3900
     29      0.2560     -3.7860     -7.6150      1.7700     78.3900
     30      0.4760     -4.4660     -6.7590      0.0100     78.3900
     31      1.0620     -4.0700     -8.7860      1.5900     78.3900
     32      2.5550     -4.5400     -8.5850      2.1000     78.3900
     33      2.5780     -5.6340     -7.5910      1.5900     78.3900
     34      3.1640     -4.8230     -9.9040      1.5900     78.3900
     35      3.2560     -3.2760     -7.9650      1.5900     78.3900
     36      3.4940     -2.0940     -8.7700      1.7700     78.3900
     37      2.5610     -1.7350     -9.2570      0.0100     78.3900
     38      4.2200     -2.3090     -9.5840      0.0100     78.3900
     39      4.0590     -0.9470     -7.9180      1.7700     78.3900
     40      4.1590     -0.0220     -8.5260      0.0100     78.3900
     41      3.1520     -0.6440     -6.8240      1.5900     78.3900
     42      3.9080     -0.2730     -5.6810      1.7700     78.3900
     43      3.5660      0.7560     -5.4280      0.0100     78.3900
     44      3.6700     -1.1580     -4.5100      1.6800     78.3900
     45      3.1730     -2.4290     -4.6860      1.7700     78.3900
     46      2.9800     -2.7290     -5.7160      0.0100     78.3900
     47      2.9250     -3.2310     -3.6410      1.7700     78.3900
     48      2.5000     -4.2260     -3.7580      0.0100     78.3900
     49      3.9790     -0.7070     -3.2300      1.7700     78.3900
     50      4.4520      0.4310     -3.0830      1.5900     78.3900
     51      3.7520     -1.5080     -2.1660      1.6800     78.3900
     52      3.2230     -2.7310     -2.3400      1.7700     78.3900
     53      2.9730     -3.4820     -1.2730      1.6800     78.3900
     54      3.1480     -3.1010     -0.3620      0.0100     78.3900
     55      2.5520     -4.3880     -1.3490      0.0100     78.3900
     56      5.3700     -0.2220     -6.0890      1.7700     78.3900
     57      6.0520     -0.5270     -5.2660      0.0100     78.3900
     58      5.7080      1.0780     -6.5380      1.5900     78.3900
     59      6.6040      1.0280     -6.9080      0.0100     78.3900
     60      5.4110     -1.2230     -7.2380      1.7700     78.3900
     61      5.3710     -2.2680     -6.8540      0.0100     78.3900
     62      6.4880     -1.0170     -8.1790      1.5900     78.3900
     63      7.9220     -1.6030     -7.8730      2.1000     78.3900
     64      7.7730     -3.0590     -7.6520      1.5900     78.3900
     65      8.8410     -1.1850     -8.9560      1.5900     78.3900
     66      8.3760     -0.9070     -6.5300      1.5900     78.3900
     67      9.3840     -1.5250     -5.6940      1.7700     78.3900
     68     10.3910     -1.4210     -6.1510      0.0100     78.3900
     69      9.1910     -2.6170     -5.5590      0.0100     78.3900
     70      9.4410     -0.8900     -4.2940      1.7700     78.3900
     71      9.7760      0.1660     -4.3470      0.0100     78.3900
     72      8.1120     -0.8970     -3.7000      1.5900     78.3900
     73      8.1930     -1.2200     -2.3270      1.7700     78.3900
     74      7.6810     -0.3860     -1.7960      0.0100     78.3900
     75      7.4920     -2.5060     -2.0280      1.6800     78.3900
     76      7.1480     -3.3850     -3.0350      1.7700     78.3900
     77      7.4560     -3.0970     -4.0430      0.0100     78.3900
     78      7.1210     -2.7560     -0.7260      1.7700     78.3900
     79      7.3590     -1.9790      0.1900      1.5900     78.3900
     80      6.4470     -3.9310     -0.5240      1.6800     78.3900
     81      6.1670     -4.1330      0.4260      0.0100     78.3900
     82      6.0680     -4.8510     -1.4790      1.7700     78.3900
     83      5.4320     -5.8530     -1.1570      1.5900     78.3900
     84      6.4600     -4.5150     -2.8140      1.7700     78.3900
     85      6.1770     -5.1840     -3.6220      0.0100     78.3900
     86      9.6730     -1.2340     -1.9500      1.7700     78.3900
     87      9.8950     -1.9770     -1.1580      0.0100     78.3900
     88     10.0810      0.0570     -1.5210      1.5900     78.3900
     89      9.5870      0.2930     -0.7140      0.0100     78.3900
     90     10.3240     -1.6370     -3.2750      1.7700     78.3900
     91     10.1510     -2.7260     -3.4320      0.0100     78.3900
     92     11.7170     -1.2470     -3.4010      1.5900     78.3900
     93     12.7590     -2.1960     -4.1010      2.1000     78.3900
     94     12.0270     -3.1830     -4.9260      1.5900     78.3900
     95     13.7750     -1.3820     -4.7970      1.5900     78.3900
     96     13.4590     -2.9540     -2.9160      1.5900     78.3900
     97     14.3020     -2.2940     -1.9500      1.7700     78.3900
     98     13.7570     -1.4530     -1.4610      0.0100     78.3900
     99     15.2050     -1.8750     -2.4520      0.0100     78.3900
    100     14.7440     -3.2810     -0.8530      1.7700     78.3900
    101     13.8530     -3.6400     -0.2970      0.0100     78.3900
    102     15.4270     -4.4320     -1.4250      1.5900     78.3900
    103     16.8060     -4.3870     -1.1120      1.7700     78.3900
    104     16.9490     -5.1540     -0.3140      0.0100     78.3900
    105     17.6280     -4.6710     -2.3140      1.6800     78.3900
    106     17.3070     -4.0720     -3.5100      1.7700     78.3900
    107     16.4250     -3.4260     -3.4880      0.0100     78.3900
    108     18.6920     -5.5400     -2.2180      1.7700     78.3900
    109     18.9970     -6.1020     -1.1710      1.5900     78.3900
    110     19.3740     -5.7500     -3.3920      1.6800     78.3900
    111     20.1570     -6.3870     -3.3430      0.0100     78.3900
    112     19.0850     -5.2220     -4.6330      1.7700     78.3900
    113     19.7540     -5.5460     -5.6150      1.5900     78.3900
    114     17.9780     -4.3140     -4.6460      1.7700     78.3900
    115     17.6820     -3.8630     -5.5900      0.0100     78.3900
    116     17.0910     -3.0140     -0.5300      1.7700     78.3900
    117     17.3060     -2.2760     -1.3350      0.0100     78.3900
    118     18.1530     -3.0450      0.4030      1.5900     78.3900
    119     17.8430     -3.5630      1.1640      0.0100     78.3900
    120     15.7560     -2.6870      0.1380      1.7700     78.3900
    121     15.6320     -1.5760      0.1560      0.0100     78.3900
    122     15.6180     -3.2820      1.4420      1.5900     78.3900
    123     15.0150     -2.4930      2.6550      2.1000     78.3900
    124     15.3010     -3.2690      3.8790      1.5900     78.3900
    125     15.4900     -1.0940      2.6130      1.5900     78.3900
    126     13.4680     -2.5130      2.3760      1.5900     78.3900
    127     12.5490     -1.9490      3.3500      1.7700     78.3900
    128     12.0090     -1.0880      2.8930      0.0100     78.3900
    129     13.0560     -1.5470      4.2610      0.0100     78.3900
    130     11.4990     -2.9610      3.8350      1.7700     78.3900
    131     10.9240     -2.4960      4.6620      0.0100     78.3900
    132     10.5590     -3.2770      2.7720      1.5900     78.3900
    133     10.6160     -4.6610      2.4890      1.7700     78.3900
    134      9.8010     -5.1170      3.0960      0.0100     78.3900
    135     10.4200     -4.9040      1.0420      1.6800     78.3900
    136     11.2160     -4.2250      0.1580      1.7700     78.3900
    137     11.9460     -3.5410      0.6040      0.0100     78.3900
    138     11.0580     -4.3760     -1.1630      1.7700     78.3900
    139     11.6550     -3.8330     -1.8830      0.0100     78.3900
    140      9.4350     -5.7710      0.5740      1.7700     78.3900
    141      8.7350     -6.3890      1.3920      1.5900     78.3900
    142      9.2540     -5.9210     -0.7610      1.6800     78.3900
    143     10.0300     -5.2430     -1.6230      1.7700     78.3900
    144      9.8240     -5.3960     -2.9320      1.6800     78.3900
    145     10.4510     -5.0240     -3.6180      0.0100     78.3900
    146      9.1490     -6.0680     -3.2310      0.0100     78.3900
    147     11.9430     -5.1560      3.0260      1.7700     78.3900
    148     12.7690     -4.8920      2.3300      0.0100     78.3900
    149     11.9560     -6.5460      3.2880      1.5900     78.3900
    150     11.3750     -6.6900      4.0520      0.0100     78.3900
    151     12.0540     -4.3200      4.3070      1.7700     78.3900
    152     13.1350     -4.1980      4.5520      0.0100     78.3900
    153     11.2940     -4.8540      5.4220      1.5900     78.3900
    154     11.8170     -4.6580      6.9030      2.1000     78.3900
    155     10.9750     -5.4760      7.8070      1.5900     78.3900
    156     13.2670     -4.9430      6.9420      1.5900     78.3900
    157     11.5900     -3.1350      7.2340      1.5900     78.3900
    158     10.2770     -2.5400      7.3630      1.7700     78.3900
    159      9.6420     -3.0900      8.0900      0.0100     78.3900
    160      9.7500     -2.5610      6.3850      0.0100     78.3900
    161     10.3690     -1.0710      7.8230      1.7700     78.3900
    162     10.8000     -0.9970      8.8400      0.0100     78.3900
    163     11.2670     -0.3520      6.9200      1.5900     78.3900
    164     10.7560      0.9400      6.6590      1.7700     78.3900
    165     11.5610      1.6460      6.9710      0.0100     78.3900
    166     10.4620      1.1410      5.2210      1.6800     78.3900
    167      9.6710      0.3830      4.3780      1.7700     78.3900
    168      7.5720     -2.3220      3.9130      1.6800     78.3900
    169      7.0000     -2.7410      3.2170      0.0100     78.3900
    170      7.5580     -2.6910      4.8400      0.0100     78.3900
    171      8.9890     -0.7210      4.7050      1.6800     78.3900
    172      8.3170     -1.2470      3.7080      1.7700     78.3900
    173      8.3100     -0.7060      2.4530      1.6800     78.3900
    174      7.8290     -1.1930      1.7150      0.0100     78.3900
    175      9.0100      0.4290      2.0630      1.7700     78.3900
    176      8.9680      0.8540      0.9010      1.5900     78.3900
    177      9.7340      1.0010      3.1490      1.7700     78.3900
    178     10.5470      2.1280      3.2020      1.6800     78.3900
    179     10.9600      2.1690      4.4500      1.7700     78.3900
    180     11.6240      2.9310      4.8660      0.0100     78.3900
    181      9.5430      1.1520      7.5450      1.7700     78.3900
    182      8.7660      1.7610      7.0430      0.0100     78.3900
    183      9.9210      1.7720      8.7600      1.5900     78.3900
    184      9.1410      1.7460      9.3360      0.0100     78.3900
    185      9.0400     -0.2730      7.7840      1.7700     78.3900
    186      8.4690     -0.6490      6.9210      0.0100     78.3900
    187      8.2560     -0.4560      8.9820      1.5900     78.3900
    188      6.7180     -0.0510      8.9500      2.1000     78.3900
    189      6.0470     -0.7930      7.8590      1.5900     78.3900
    190      6.1890     -0.2450     10.3200      1.5900     78.3900
    191      6.6920      1.4970      8.6330      1.5900     78.3900
    192      5.5640      2.1100      7.9530      1.7700     78.3900
    193      5.0790      2.8470      8.6330      0.0100     78.3900
    194      4.7720      1.3710      7.6790      0.0100     78.3900
    195      5.9770      2.8360      6.6630      1.7700     78.3900
    196      6.6500      3.6920      6.8910      0.0100     78.3900
    197      6.7090      1.9260      5.7970      1.5900     78.3900
    198      6.3030      2.1040      4.4560      1.7700     78.3900
    199      7.2310      2.2520      3.8580      0.0100     78.3900
    200      5.5830      0.9270      3.9540      1.6800     78.3900
    201      5.2980      0.6570      2.6440      1.7700     78.3900
    202      5.5500      1.4470     -0.7180      1.6800     78.3900
    203      6.0330      2.3210     -0.7150      0.0100     78.3900
    204      5.2050      1.0760     -1.5850      0.0100     78.3900
    205      5.6300      1.4230      1.5910      1.6800     78.3900
    206      5.2770      0.8660      0.4330      1.7700     78.3900
    207      4.6200     -0.3320      0.3450      1.6800     78.3900
    208      4.3810     -0.6810     -0.5700      0.0100     78.3900
    209      4.2590     -1.1400      1.4120      1.7700     78.3900
    210      3.6800     -2.2160      1.2370      1.5900     78.3900
    211      4.6370     -0.5580      2.6500      1.7700     78.3900
    212      4.4910     -1.0340      3.9450      1.6800     78.3900
    213      5.0780     -0.1250      4.6890      1.7700     78.3900
    214      5.1920     -0.1640      5.7760      0.0100     78.3900
    215      5.4560      3.3510      4.4110      1.7700     78.3900
    216      4.7010      3.3250      3.6000      0.0100     78.3900
    217      6.2860      4.4840      4.2460      1.5900     78.3900
    218      5.7190      5.2570      4.3430      0.0100     78.3900
    219      4.8080      3.3240      5.7910      1.7700     78.3900
    220      4.0320      2.5240      5.8320      0.0100     78.3900
    221      4.3340      4.6040      6.2650      1.5900     78.3900
    222      2.8100      4.9780      6.1290      2.1000     78.3900
    223      1.9900      3.7940      6.4650      1.5900     78.3900
    224      2.5460      6.2130      6.9040      1.5900     78.3900
    225      2.6520      5.2600      4.5880      1.5900     78.3900
    226      3.3330      6.3520      3.9370      1.7700     78.3900
    227      4.4300      6.3210      4.1160      0.0100     78.3900
    228      2.9590      7.3250      4.3200      0.0100     78.3900
    229      3.0860      6.3460      2.4210      1.7700     78.3900
    230      3.5340      7.2470      1.9470      0.0100     78.3900
    231      3.7110      5.1770      1.8190      1.5900     78.3900
    232      2.8790      4.6810      0.7780      1.7700     78.3900
    233      3.5110      4.6590     -0.1400      0.0100     78.3900
    234      2.3770      3.3090      1.0810      1.6800     78.3900
    235      2.3520      2.8270      2.3710      1.7700     78.3900
    236      2.7330      3.5060      3.1300      0.0100     78.3900
    237      1.9230      2.5400      0.0350      1.7700     78.3900
    238      1.8980      2.9450     -1.1220      1.5900     78.3900
    239      1.4960      1.2820      0.3830      1.6800     78.3900
    240      1.1520      0.7160     -0.3850      0.0100     78.3900
    241      1.4430      0.7350      1.6490      1.7700     78.3900
    242      1.0070     -0.4020      1.8130      1.5900     78.3900
    243      1.9250      1.5970      2.6850      1.7700     78.3900
    244      1.9350      1.2310      3.7100      0.0100     78.3900
    245      1.7480      5.6840      0.5840      1.7700     78.3900
    246      0.8050      5.1880      0.2680      0.0100     78.3900
    247      2.1310      6.6640     -0.3720      1.5900     78.3900
    248      1.4760      7.3820     -0.3740      0.0100     78.3900
    249      1.6160      6.2570      1.9910      1.7700     78.3900
    250      1.1000      5.5300      2.6550      0.0100     78.3900
    251      0.9780      7.5470      2.0480      1.5900     78.3900
    252      0.0430      7.4770      1.7690      0.0100     78.3900

 CREATION OF A NEW CAVITY WITH THE ORIGINAL SPHERE
 SIZES FOR THE COMPUTATION OF THE CAVITATION ENERGY.

     INPUT FOR CAVITY DEFINITION 
     ---------------------------
   ATOM               COORDINATES                RADIUS       EPS
      1     -1.8490     -6.9700     -6.7300      0.0100     78.3900
      2     -1.4650     -6.0740     -6.6650      1.5900     78.3900
      3     -1.7370     -5.4110     -7.9090      1.7700     78.3900
      4     -2.8390     -5.4060     -8.0840      0.0100     78.3900
      5     -1.2550     -5.9790     -8.7340      0.0100     78.3900
      6     -1.2320     -3.9650     -7.9470      1.7700     78.3900
      7     -1.4340     -3.5000     -8.9350      0.0100     78.3900
      8     -1.9290     -3.1690     -6.9440      1.5900     78.3900
      9     -1.0250     -2.2390     -6.3750      1.7700     78.3900
     10     -1.4690     -1.2270     -6.5170      0.0100     78.3900
     11     -0.8430     -2.4860     -4.9400      1.6800     78.3900
     12     -0.4030     -2.2460     -2.7970      1.7700     78.3900
     13     -0.9050     -3.5320     -2.9480      1.6800     78.3900
     14     -1.1570     -3.6240     -4.2340      1.7700     78.3900
     15     -1.5840     -4.5000     -4.7310      0.0100     78.3900
     16      0.4820     -0.2570     -1.8640      1.6800     78.3900
     17      0.5030      0.2240     -3.1120      1.7700     78.3900
     18      0.8780      1.2490     -3.2190      0.0100     78.3900
     19      0.0990     -0.3530     -4.2490      1.6800     78.3900
     20     -0.3490     -1.5960     -4.0190      1.7700     78.3900
     21      0.0240     -1.5190     -1.6640      1.7700     78.3900
     22     -0.0050     -2.0110     -0.4100      1.6800     78.3900
     23     -0.3750     -2.9230     -0.2030      0.0100     78.3900
     24      0.3400     -1.4630      0.3550      0.0100     78.3900
     25      0.2710     -2.3330     -7.1490      1.7700     78.3900
     26      1.1580     -2.1230     -6.5200      0.0100     78.3900
     27      0.2340     -1.4420     -8.2460      1.5900     78.3900
     28      1.0750     -1.5410     -8.7060      0.0100     78.3900
     29      0.2560     -3.7860     -7.6150      1.7700     78.3900
     30      0.4760     -4.4660     -6.7590      0.0100     78.3900
     31      1.0620     -4.0700     -8.7860      1.5900     78.3900
     32      2.5550     -4.5400     -8.5850      2.1000     78.3900
     33      2.5780     -5.6340     -7.5910      1.5900     78.3900
     34      3.1640     -4.8230     -9.9040      1.5900     78.3900
     35      3.2560     -3.2760     -7.9650      1.5900     78.3900
     36      3.4940     -2.0940     -8.7700      1.7700     78.3900
     37      2.5610     -1.7350     -9.2570      0.0100     78.3900
     38      4.2200     -2.3090     -9.5840      0.0100     78.3900
     39      4.0590     -0.9470     -7.9180      1.7700     78.3900
     40      4.1590     -0.0220     -8.5260      0.0100     78.3900
     41      3.1520     -0.6440     -6.8240      1.5900     78.3900
     42      3.9080     -0.2730     -5.6810      1.7700     78.3900
     43      3.5660      0.7560     -5.4280      0.0100     78.3900
     44      3.6700     -1.1580     -4.5100      1.6800     78.3900
     45      3.1730     -2.4290     -4.6860      1.7700     78.3900
     46      2.9800     -2.7290     -5.7160      0.0100     78.3900
     47      2.9250     -3.2310     -3.6410      1.7700     78.3900
     48      2.5000     -4.2260     -3.7580      0.0100     78.3900
     49      3.9790     -0.7070     -3.2300      1.7700     78.3900
     50      4.4520      0.4310     -3.0830      1.5900     78.3900
     51      3.7520     -1.5080     -2.1660      1.6800     78.3900
     52      3.2230     -2.7310     -2.3400      1.7700     78.3900
     53      2.9730     -3.4820     -1.2730      1.6800     78.3900
     54      3.1480     -3.1010     -0.3620      0.0100     78.3900
     55      2.5520     -4.3880     -1.3490      0.0100     78.3900
     56      5.3700     -0.2220     -6.0890      1.7700     78.3900
     57      6.0520     -0.5270     -5.2660      0.0100     78.3900
     58      5.7080      1.0780     -6.5380      1.5900     78.3900
     59      6.6040      1.0280     -6.9080      0.0100     78.3900
     60      5.4110     -1.2230     -7.2380      1.7700     78.3900
     61      5.3710     -2.2680     -6.8540      0.0100     78.3900
     62      6.4880     -1.0170     -8.1790      1.5900     78.3900
     63      7.9220     -1.6030     -7.8730      2.1000     78.3900
     64      7.7730     -3.0590     -7.6520      1.5900     78.3900
     65      8.8410     -1.1850     -8.9560      1.5900     78.3900
     66      8.3760     -0.9070     -6.5300      1.5900     78.3900
     67      9.3840     -1.5250     -5.6940      1.7700     78.3900
     68     10.3910     -1.4210     -6.1510      0.0100     78.3900
     69      9.1910     -2.6170     -5.5590      0.0100     78.3900
     70      9.4410     -0.8900     -4.2940      1.7700     78.3900
     71      9.7760      0.1660     -4.3470      0.0100     78.3900
     72      8.1120     -0.8970     -3.7000      1.5900     78.3900
     73      8.1930     -1.2200     -2.3270      1.7700     78.3900
     74      7.6810     -0.3860     -1.7960      0.0100     78.3900
     75      7.4920     -2.5060     -2.0280      1.6800     78.3900
     76      7.1480     -3.3850     -3.0350      1.7700     78.3900
     77      7.4560     -3.0970     -4.0430      0.0100     78.3900
     78      7.1210     -2.7560     -0.7260      1.7700     78.3900
     79      7.3590     -1.9790      0.1900      1.5900     78.3900
     80      6.4470     -3.9310     -0.5240      1.6800     78.3900
     81      6.1670     -4.1330      0.4260      0.0100     78.3900
     82      6.0680     -4.8510     -1.4790      1.7700     78.3900
     83      5.4320     -5.8530     -1.1570      1.5900     78.3900
     84      6.4600     -4.5150     -2.8140      1.7700     78.3900
     85      6.1770     -5.1840     -3.6220      0.0100     78.3900
     86      9.6730     -1.2340     -1.9500      1.7700     78.3900
     87      9.8950     -1.9770     -1.1580      0.0100     78.3900
     88     10.0810      0.0570     -1.5210      1.5900     78.3900
     89      9.5870      0.2930     -0.7140      0.0100     78.3900
     90     10.3240     -1.6370     -3.2750      1.7700     78.3900
     91     10.1510     -2.7260     -3.4320      0.0100     78.3900
     92     11.7170     -1.2470     -3.4010      1.5900     78.3900
     93     12.7590     -2.1960     -4.1010      2.1000     78.3900
     94     12.0270     -3.1830     -4.9260      1.5900     78.3900
     95     13.7750     -1.3820     -4.7970      1.5900     78.3900
     96     13.4590     -2.9540     -2.9160      1.5900     78.3900
     97     14.3020     -2.2940     -1.9500      1.7700     78.3900
     98     13.7570     -1.4530     -1.4610      0.0100     78.3900
     99     15.2050     -1.8750     -2.4520      0.0100     78.3900
    100     14.7440     -3.2810     -0.8530      1.7700     78.3900
    101     13.8530     -3.6400     -0.2970      0.0100     78.3900
    102     15.4270     -4.4320     -1.4250      1.5900     78.3900
    103     16.8060     -4.3870     -1.1120      1.7700     78.3900
    104     16.9490     -5.1540     -0.3140      0.0100     78.3900
    105     17.6280     -4.6710     -2.3140      1.6800     78.3900
    106     17.3070     -4.0720     -3.5100      1.7700     78.3900
    107     16.4250     -3.4260     -3.4880      0.0100     78.3900
    108     18.6920     -5.5400     -2.2180      1.7700     78.3900
    109     18.9970     -6.1020     -1.1710      1.5900     78.3900
    110     19.3740     -5.7500     -3.3920      1.6800     78.3900
    111     20.1570     -6.3870     -3.3430      0.0100     78.3900
    112     19.0850     -5.2220     -4.6330      1.7700     78.3900
    113     19.7540     -5.5460     -5.6150      1.5900     78.3900
    114     17.9780     -4.3140     -4.6460      1.7700     78.3900
    115     17.6820     -3.8630     -5.5900      0.0100     78.3900
    116     17.0910     -3.0140     -0.5300      1.7700     78.3900
    117     17.3060     -2.2760     -1.3350      0.0100     78.3900
    118     18.1530     -3.0450      0.4030      1.5900     78.3900
    119     17.8430     -3.5630      1.1640      0.0100     78.3900
    120     15.7560     -2.6870      0.1380      1.7700     78.3900
    121     15.6320     -1.5760      0.1560      0.0100     78.3900
    122     15.6180     -3.2820      1.4420      1.5900     78.3900
    123     15.0150     -2.4930      2.6550      2.1000     78.3900
    124     15.3010     -3.2690      3.8790      1.5900     78.3900
    125     15.4900     -1.0940      2.6130      1.5900     78.3900
    126     13.4680     -2.5130      2.3760      1.5900     78.3900
    127     12.5490     -1.9490      3.3500      1.7700     78.3900
    128     12.0090     -1.0880      2.8930      0.0100     78.3900
    129     13.0560     -1.5470      4.2610      0.0100     78.3900
    130     11.4990     -2.9610      3.8350      1.7700     78.3900
    131     10.9240     -2.4960      4.6620      0.0100     78.3900
    132     10.5590     -3.2770      2.7720      1.5900     78.3900
    133     10.6160     -4.6610      2.4890      1.7700     78.3900
    134      9.8010     -5.1170      3.0960      0.0100     78.3900
    135     10.4200     -4.9040      1.0420      1.6800     78.3900
    136     11.2160     -4.2250      0.1580      1.7700     78.3900
    137     11.9460     -3.5410      0.6040      0.0100     78.3900
    138     11.0580     -4.3760     -1.1630      1.7700     78.3900
    139     11.6550     -3.8330     -1.8830      0.0100     78.3900
    140      9.4350     -5.7710      0.5740      1.7700     78.3900
    141      8.7350     -6.3890      1.3920      1.5900     78.3900
    142      9.2540     -5.9210     -0.7610      1.6800     78.3900
    143     10.0300     -5.2430     -1.6230      1.7700     78.3900
    144      9.8240     -5.3960     -2.9320      1.6800     78.3900
    145     10.4510     -5.0240     -3.6180      0.0100     78.3900
    146      9.1490     -6.0680     -3.2310      0.0100     78.3900
    147     11.9430     -5.1560      3.0260      1.7700     78.3900
    148     12.7690     -4.8920      2.3300      0.0100     78.3900
    149     11.9560     -6.5460      3.2880      1.5900     78.3900
    150     11.3750     -6.6900      4.0520      0.0100     78.3900
    151     12.0540     -4.3200      4.3070      1.7700     78.3900
    152     13.1350     -4.1980      4.5520      0.0100     78.3900
    153     11.2940     -4.8540      5.4220      1.5900     78.3900
    154     11.8170     -4.6580      6.9030      2.1000     78.3900
    155     10.9750     -5.4760      7.8070      1.5900     78.3900
    156     13.2670     -4.9430      6.9420      1.5900     78.3900
    157     11.5900     -3.1350      7.2340      1.5900     78.3900
    158     10.2770     -2.5400      7.3630      1.7700     78.3900
    159      9.6420     -3.0900      8.0900      0.0100     78.3900
    160      9.7500     -2.5610      6.3850      0.0100     78.3900
    161     10.3690     -1.0710      7.8230      1.7700     78.3900
    162     10.8000     -0.9970      8.8400      0.0100     78.3900
    163     11.2670     -0.3520      6.9200      1.5900     78.3900
    164     10.7560      0.9400      6.6590      1.7700     78.3900
    165     11.5610      1.6460      6.9710      0.0100     78.3900
    166     10.4620      1.1410      5.2210      1.6800     78.3900
    167      9.6710      0.3830      4.3780      1.7700     78.3900
    168      7.5720     -2.3220      3.9130      1.6800     78.3900
    169      7.0000     -2.7410      3.2170      0.0100     78.3900
    170      7.5580     -2.6910      4.8400      0.0100     78.3900
    171      8.9890     -0.7210      4.7050      1.6800     78.3900
    172      8.3170     -1.2470      3.7080      1.7700     78.3900
    173      8.3100     -0.7060      2.4530      1.6800     78.3900
    174      7.8290     -1.1930      1.7150      0.0100     78.3900
    175      9.0100      0.4290      2.0630      1.7700     78.3900
    176      8.9680      0.8540      0.9010      1.5900     78.3900
    177      9.7340      1.0010      3.1490      1.7700     78.3900
    178     10.5470      2.1280      3.2020      1.6800     78.3900
    179     10.9600      2.1690      4.4500      1.7700     78.3900
    180     11.6240      2.9310      4.8660      0.0100     78.3900
    181      9.5430      1.1520      7.5450      1.7700     78.3900
    182      8.7660      1.7610      7.0430      0.0100     78.3900
    183      9.9210      1.7720      8.7600      1.5900     78.3900
    184      9.1410      1.7460      9.3360      0.0100     78.3900
    185      9.0400     -0.2730      7.7840      1.7700     78.3900
    186      8.4690     -0.6490      6.9210      0.0100     78.3900
    187      8.2560     -0.4560      8.9820      1.5900     78.3900
    188      6.7180     -0.0510      8.9500      2.1000     78.3900
    189      6.0470     -0.7930      7.8590      1.5900     78.3900
    190      6.1890     -0.2450     10.3200      1.5900     78.3900
    191      6.6920      1.4970      8.6330      1.5900     78.3900
    192      5.5640      2.1100      7.9530      1.7700     78.3900
    193      5.0790      2.8470      8.6330      0.0100     78.3900
    194      4.7720      1.3710      7.6790      0.0100     78.3900
    195      5.9770      2.8360      6.6630      1.7700     78.3900
    196      6.6500      3.6920      6.8910      0.0100     78.3900
    197      6.7090      1.9260      5.7970      1.5900     78.3900
    198      6.3030      2.1040      4.4560      1.7700     78.3900
    199      7.2310      2.2520      3.8580      0.0100     78.3900
    200      5.5830      0.9270      3.9540      1.6800     78.3900
    201      5.2980      0.6570      2.6440      1.7700     78.3900
    202      5.5500      1.4470     -0.7180      1.6800     78.3900
    203      6.0330      2.3210     -0.7150      0.0100     78.3900
    204      5.2050      1.0760     -1.5850      0.0100     78.3900
    205      5.6300      1.4230      1.5910      1.6800     78.3900
    206      5.2770      0.8660      0.4330      1.7700     78.3900
    207      4.6200     -0.3320      0.3450      1.6800     78.3900
    208      4.3810     -0.6810     -0.5700      0.0100     78.3900
    209      4.2590     -1.1400      1.4120      1.7700     78.3900
    210      3.6800     -2.2160      1.2370      1.5900     78.3900
    211      4.6370     -0.5580      2.6500      1.7700     78.3900
    212      4.4910     -1.0340      3.9450      1.6800     78.3900
    213      5.0780     -0.1250      4.6890      1.7700     78.3900
    214      5.1920     -0.1640      5.7760      0.0100     78.3900
    215      5.4560      3.3510      4.4110      1.7700     78.3900
    216      4.7010      3.3250      3.6000      0.0100     78.3900
    217      6.2860      4.4840      4.2460      1.5900     78.3900
    218      5.7190      5.2570      4.3430      0.0100     78.3900
    219      4.8080      3.3240      5.7910      1.7700     78.3900
    220      4.0320      2.5240      5.8320      0.0100     78.3900
[...]
   200    7   7.0   0.00    0.0   -0.000055   -0.805046   -0.813393
   201    7   6.0   0.00    0.0    0.000000    0.698031    0.707847
   202    7   7.0   9.80   19.2   -0.094889   -0.976693   -1.052399
   203    7   1.0   0.00    0.0    0.000000    0.443233    0.442673
   204    7   1.0   0.00    0.0    0.000000    0.474556    0.518926
   205    7   7.0   1.48    2.9    0.041539   -0.745405   -0.743018
   206    7   6.0   0.00    0.0    0.000004    0.984131    0.985981
   207    7   7.0   0.00    0.0    0.000001   -0.929261   -1.015528
   208    7   1.0   0.00    0.0    0.000000    0.485397    0.538872
   209    7   6.0   0.00    0.0    0.000000    0.882462    0.875470
   210    7   8.0   9.50   20.8    0.152893   -0.760188   -0.754880
   211    7   6.0   0.01    0.0   -0.000610   -0.062842   -0.059347
   212    7   7.0   9.90   19.4    0.164270   -0.602808   -0.618119
   213    7   6.0   5.60    9.9    0.015069    0.253847    0.247705
   214    7   1.0   0.00    0.0    0.000000    0.316954    0.322814
   215    7   6.0   0.00    0.0    0.000485    0.135530    0.104611
   216    7   1.0   0.00    0.0    0.000000    0.195672    0.225652
   217    7   8.0  17.05   37.3    0.106258   -0.824836   -0.838987
   218    7   1.0   0.00    0.0    0.000000    0.493450    0.520730
   219    7   6.0   0.95    1.7   -0.021501    0.140562    0.098654
   220    7   1.0   0.00    0.0    0.000000    0.244070    0.239764
   221    7   8.0   4.05    8.9    0.050192   -0.797121   -0.798858
   222    7  15.0   9.07   11.4    0.120680    1.604939    1.657670
   223    7   8.0  14.66   32.0    0.313710   -0.895983   -0.896332
   224    7   8.0  18.30   40.0    0.367865   -0.888341   -0.884523
   225    7   8.0   1.96    4.3    0.026443   -0.974796   -0.788202
   226    8   6.0  12.68   22.4   -0.090041    0.218636   -0.017523
   227    8   1.0   0.00    0.0    0.000000    0.136865    0.162894
   228    8   1.0   0.00    0.0    0.000000    0.245693    0.226828
   229    8   6.0   6.98   12.3   -0.048010    0.085684    0.147376
   230    8   1.0   0.00    0.0    0.000000    0.256020    0.227161
   231    8   8.0   4.05    8.9    0.052665   -0.729319   -0.736078
   232    8   6.0   4.15    7.3   -0.042711    0.420241    0.420034
   233    8   1.0   0.00    0.0    0.000000    0.256892    0.252185
   234    8   7.0   0.00    0.0    0.000000   -0.829559   -0.836755
   235    8   6.0   2.71    4.8    0.000917    0.196487    0.182200
   236    8   1.0   0.00    0.0    0.000000    0.302779    0.326788
   237    8   6.0   2.83    5.0   -0.018261    1.114113    1.116026
   238    8   8.0  12.46   27.2    0.168813   -0.683035   -0.690165
   239    8   7.0   2.60    5.1    0.001616   -0.935516   -1.016659
   240    8   1.0   0.00    0.0    0.000000    0.486540    0.544706
   241    8   6.0   2.83    5.0   -0.005752    0.878143    0.886474
   242    8   8.0  10.97   24.0    0.149364   -0.723073   -0.713913
   243    8   6.0   7.75   13.7   -0.025128   -0.449032   -0.450978
   244    8   1.0   0.00    0.0    0.000000    0.271747    0.272584
   245    8   6.0   5.97   10.5   -0.049859    0.119401    0.119949
   246    8   1.0   0.00    0.0    0.000000    0.226631    0.225179
   247    8   8.0  20.33   44.4    0.013920   -0.840301   -0.842765
   248    8   1.0   0.00    0.0    0.000000    0.508917    0.508810
   249    8   6.0   6.37   11.2   -0.059714    0.166654    0.149481
   250    8   1.0   0.00    0.0    0.000000    0.222871    0.225130
   251    8   8.0  22.21   48.6   -0.011926   -0.851866   -0.855324
   252    8   1.0   0.00    0.0    0.000000    0.511462    0.510557

 Done with FMO properties.
 CPU     0: STEP CPU TIME=     0.00 TOTAL CPU TIME=      11111.9 (    185.2 MIN)
 TOTAL WALL CLOCK TIME=      24418.0 SECONDS, CPU UTILIZATION IS    45.51%
 CPU     0: STEP CPU TIME=     0.00 TOTAL CPU TIME=      11111.9 (    185.2 MIN)
 TOTAL WALL CLOCK TIME=      24418.0 SECONDS, CPU UTILIZATION IS    45.51%

 Total timing statistics in pairs (CPU,wall) for each rank, sec

    Rank   total     SCF    corr     DFT    CPHF     EFP    solv     ESP    geom
 -------------------------------------------------------------------------------
       1   11111.9   3427.2   4278.3      0.0    0.0   0.0   86.9  3144.3    0.0
       1   24418.1   7051.4  10423.0      0.0    0.0   0.0  231.0  6316.9    0.0
       2   11132.4   3401.4   4339.0      0.0    0.0   0.0   87.5  3132.9    0.0
       2   24418.1   7039.6  10424.6      0.0    0.0   0.0  230.9  6316.2    0.0
       3   11147.0   3412.8   4337.0      0.0    0.0   0.0   87.4  3137.6    0.0
       3   24418.1   7039.4  10424.6      0.0    0.0   0.0  231.1  6316.4    0.0
       4   11043.4   3392.2   4259.3      0.0    0.0   0.0   86.9  3135.3    0.0
       4   24418.1   7039.7  10424.6      0.0    0.0   0.0  230.2  6316.2    0.0
       5   11047.2   3410.7   4227.3      0.0    0.0   0.0   87.4  3148.5    0.0
       5   24418.1   7039.8  10424.5      0.0    0.0   0.0  230.9  6316.6    0.0
       6   11139.8   3395.7   4353.8      0.0    0.0   0.0   86.3  3133.9    0.0
       6   24418.1   7040.1  10424.5      0.0    0.0   0.0  230.0  6316.6    0.0
       7   11104.9   3407.9   4305.2      0.0    0.0   0.0   86.7  3133.3    0.0
       7   24418.1   7040.1  10424.5      0.0    0.0   0.0  230.3  6316.6    0.0
       8   11037.1   3390.6   4263.7      0.0    0.0   0.0   86.5  3127.0    0.0
       8   24418.1   7039.9  10424.5      0.0    0.0   0.0  229.7  6316.6    0.0
       9   11101.8   3405.2   4297.3      0.0    0.0   0.0   86.1  3142.6    0.0
       9   24418.1   7039.8  10424.5      0.0    0.0   0.0  230.5  6316.8    0.0
      10   11056.4   3389.7   4275.8      0.0    0.0   0.0   86.7  3134.6    0.0
      10   24418.1   7040.0  10424.5      0.0    0.0   0.0  229.9  6316.8    0.0
      11   11148.8   3396.9   4364.3      0.0    0.0   0.0   86.6  3130.8    0.0
      11   24418.1   7040.1  10424.5      0.0    0.0   0.0  230.2  6316.8    0.0
      12   11057.6   3385.2   4289.4      0.0    0.0   0.0   86.0  3128.3    0.0
      12   24418.1   7039.8  10424.5      0.0    0.0   0.0  229.5  6316.8    0.0
      13   11129.3   3403.5   4341.8      0.0    0.0   0.0   85.8  3128.2    0.0
      13   24418.1   7040.1  10424.5      0.0    0.0   0.0  230.0  6316.8    0.0
      14   11086.1   3393.0   4310.1      0.0    0.0   0.0   85.9  3127.2    0.0
      14   24418.1   7039.6  10424.5      0.0    0.0   0.0  229.6  6316.8    0.0
      15   11014.5   3400.6   4232.5      0.0    0.0   0.0   85.7  3126.2    0.0
      15   24418.1   7039.9  10424.5      0.0    0.0   0.0  229.4  6316.8    0.0
      16   11117.4   3387.3   4353.6      0.0    0.0   0.0   85.5  3123.0    0.0
      16   24418.1   7039.9  10424.5      0.0    0.0   0.0  228.8  6316.8    0.0
averaged   11092.2   3400.0   4301.8      0.0    0.0   0.0   86.5  3133.3    0.0
averaged   24418.1   7040.6  10424.4      0.0    0.0   0.0  230.1  6316.7    0.0

  FMO  timing statistics in pairs (CPU,wall) for each rank, sec

    Rank  FMOini FMOscf1  FMOdm1 FMOsyn1 FMOscf2  FMOes2 FMOsyn2 FMOscf3 FMOsyn3
 -------------------------------------------------------------------------------
       1    1.5    4421.4    0.2    0.0    6570.0     118.7    0.0    0.0    0.0
       1    3.4    9018.2    0.4    0.0   15154.7     240.9    0.1    0.0    0.0
       2    1.1    4390.8    0.1    0.0    6621.6     118.8    0.0    0.0    0.0
       2    3.4    9018.2    0.4    0.0   15155.8     239.8    0.1    0.0    0.0
       3    1.3    4400.2    0.1    0.0    6626.6     118.7    0.0    0.0    0.0
       3    3.4    9018.2    0.4    0.0   15154.8     240.8    0.1    0.0    0.0
       4    1.1    4393.3    0.1    0.0    6531.4     117.4    0.0    0.0    0.0
       4    3.4    9018.2    0.4    0.0   15156.5     239.2    0.1    0.0    0.0
       5    1.3    4403.3    0.1    0.0    6523.5     118.9    0.0    0.0    0.0
       5    3.4    9018.2    0.4    0.0   15155.1     240.5    0.1    0.0    0.0
       6    1.1    4390.6    0.0    0.0    6629.7     118.3    0.0    0.0    0.0
       6    3.4    9018.2    0.4    0.0   15155.8     239.9    0.1    0.0    0.0
       7    1.2    4390.3    0.1    0.0    6594.8     118.4    0.0    0.0    0.0
       7    3.4    9018.2    0.4    0.0   15155.3     240.3    0.1    0.0    0.0
       8    1.1    4382.0    0.1    0.0    6536.0     117.8    0.0    0.0    0.0
       8    3.4    9018.2    0.4    0.0   15155.4     240.2    0.1    0.0    0.0
       9    1.3    4398.7    0.2    0.0    6584.3     117.3    0.0    0.0    0.0
       9    3.4    9018.2    0.4    0.0   15156.9     238.7    0.1    0.0    0.0
      10    1.1    4386.0    0.0    0.0    6551.4     117.8    0.0    0.0    0.0
      10    3.4    9018.2    0.4    0.0   15156.4     239.2    0.1    0.0    0.0
      11    1.2    4388.7    0.1    0.0    6641.5     117.4    0.0    0.0    0.0
      11    3.4    9018.2    0.4    0.0   15154.7     240.9    0.1    0.0    0.0
      12    1.0    4383.8    0.1    0.0    6555.4     117.2    0.0    0.0    0.0
      12    3.4    9018.2    0.4    0.0   15155.6     240.0    0.1    0.0    0.0
      13    1.2    4382.9    0.2    0.0    6627.4     117.6    0.0    0.0    0.0
      13    3.4    9018.2    0.4    0.0   15155.3     240.3    0.1    0.0    0.0
      14    1.0    4382.0    0.0    0.0    6585.0     118.0    0.0    0.0    0.0
      14    3.4    9018.2    0.4    0.0   15155.1     240.5    0.1    0.0    0.0
      15    1.1    4378.6    0.2    0.0    6516.6     118.1    0.0    0.0    0.0
      15    3.4    9018.2    0.4    0.0   15156.2     239.4    0.1    0.0    0.0
      16    1.1    4375.2    0.0    0.0    6624.0     117.1    0.0    0.0    0.0
      16    3.4    9018.2    0.4    0.0   15155.5     240.1    0.1    0.0    0.0
averaged    1.2    4390.5    0.1    0.0    6582.5     118.0    0.0    0.0    0.0
averaged    3.4    9018.2    0.4    0.0   15155.6     240.1    0.1    0.0    0.0
             62780087  WORDS OF DYNAMIC MEMORY USED
 EXECUTION OF GAMESS TERMINATED NORMALLY Sat Dec  7 08:13:31 2019
 DDI: 263640 bytes (0.3 MB / 0 MWords) used by master data server.

 ----------------------------------------
 CPU timing information for all processes
 ========================================
 0: 10852.682 + 259.265 = 11111.948
 1: 10891.234 + 241.196 = 11132.430
 2: 10893.711 + 253.313 = 11147.25
 3: 10802.277 + 241.133 = 11043.410
 4: 10794.816 + 252.394 = 11047.211
 5: 10893.360 + 246.431 = 11139.792
 6: 10850.630 + 254.299 = 11104.929
 7: 10799.30 + 238.47 = 11037.78
 8: 10839.826 + 262.32 = 11101.859
 9: 10819.792 + 236.648 = 11056.441
 10: 10910.58 + 238.740 = 11148.799
 11: 10836.946 + 220.735 = 11057.681
 12: 10871.567 + 257.818 = 11129.386
 13: 10837.837 + 248.264 = 11086.102
 14: 10777.94 + 237.411 = 11014.505
 15: 10882.644 + 234.761 = 11117.406
 ----------------------------------------
 ddikick.x: exited gracefully.
unset echo
----- accounting info -----
Files used on the master node gollum051.lsa.umich.edu were:
-rw-r--r-- 1 hazwong frank    13165 Dec  7 01:26 /scratch/hazwong/824381/1F7Y_1/usrc/1F7Y_1_fmo_input.F05
-rw-r--r-- 1 hazwong frank      634 Dec  7 08:13 /scratch/hazwong/824381/1F7Y_1/usrc/1F7Y_1_fmo_input.F06.001
-rw-r--r-- 1 hazwong frank      634 Dec  7 08:13 /scratch/hazwong/824381/1F7Y_1/usrc/1F7Y_1_fmo_input.F06.002
-rw-r--r-- 1 hazwong frank      634 Dec  7 08:13 /scratch/hazwong/824381/1F7Y_1/usrc/1F7Y_1_fmo_input.F06.003
-rw-r--r-- 1 hazwong frank      634 Dec  7 08:13 /scratch/hazwong/824381/1F7Y_1/usrc/1F7Y_1_fmo_input.F06.004
-rw-r--r-- 1 hazwong frank      634 Dec  7 08:13 /scratch/hazwong/824381/1F7Y_1/usrc/1F7Y_1_fmo_input.F06.005
-rw-r--r-- 1 hazwong frank      634 Dec  7 08:13 /scratch/hazwong/824381/1F7Y_1/usrc/1F7Y_1_fmo_input.F06.006
-rw-r--r-- 1 hazwong frank      634 Dec  7 08:13 /scratch/hazwong/824381/1F7Y_1/usrc/1F7Y_1_fmo_input.F06.007
-rw-r--r-- 1 hazwong frank      634 Dec  7 08:13 /scratch/hazwong/824381/1F7Y_1/usrc/1F7Y_1_fmo_input.F06.008
-rw-r--r-- 1 hazwong frank      634 Dec  7 08:13 /scratch/hazwong/824381/1F7Y_1/usrc/1F7Y_1_fmo_input.F06.009
-rw-r--r-- 1 hazwong frank      634 Dec  7 08:13 /scratch/hazwong/824381/1F7Y_1/usrc/1F7Y_1_fmo_input.F06.010
-rw-r--r-- 1 hazwong frank      634 Dec  7 08:13 /scratch/hazwong/824381/1F7Y_1/usrc/1F7Y_1_fmo_input.F06.011
-rw-r--r-- 1 hazwong frank      634 Dec  7 08:13 /scratch/hazwong/824381/1F7Y_1/usrc/1F7Y_1_fmo_input.F06.012
-rw-r--r-- 1 hazwong frank      634 Dec  7 08:13 /scratch/hazwong/824381/1F7Y_1/usrc/1F7Y_1_fmo_input.F06.013
-rw-r--r-- 1 hazwong frank      634 Dec  7 08:13 /scratch/hazwong/824381/1F7Y_1/usrc/1F7Y_1_fmo_input.F06.014
-rw-r--r-- 1 hazwong frank      634 Dec  7 08:13 /scratch/hazwong/824381/1F7Y_1/usrc/1F7Y_1_fmo_input.F06.015
-rw-r--r-- 1 hazwong frank     6172 Dec  7 08:13 /scratch/hazwong/824381/1F7Y_1/usrc/1F7Y_1_fmo_input.F07
-rw-r--r-- 1 hazwong frank        0 Dec  7 01:26 /scratch/hazwong/824381/1F7Y_1/usrc/1F7Y_1_fmo_input.F07.001
-rw-r--r-- 1 hazwong frank        0 Dec  7 01:26 /scratch/hazwong/824381/1F7Y_1/usrc/1F7Y_1_fmo_input.F07.002
-rw-r--r-- 1 hazwong frank        0 Dec  7 01:26 /scratch/hazwong/824381/1F7Y_1/usrc/1F7Y_1_fmo_input.F07.003
-rw-r--r-- 1 hazwong frank        0 Dec  7 01:26 /scratch/hazwong/824381/1F7Y_1/usrc/1F7Y_1_fmo_input.F07.004
-rw-r--r-- 1 hazwong frank        0 Dec  7 01:26 /scratch/hazwong/824381/1F7Y_1/usrc/1F7Y_1_fmo_input.F07.005
-rw-r--r-- 1 hazwong frank        0 Dec  7 01:26 /scratch/hazwong/824381/1F7Y_1/usrc/1F7Y_1_fmo_input.F07.006
-rw-r--r-- 1 hazwong frank        0 Dec  7 01:26 /scratch/hazwong/824381/1F7Y_1/usrc/1F7Y_1_fmo_input.F07.007
-rw-r--r-- 1 hazwong frank        0 Dec  7 01:26 /scratch/hazwong/824381/1F7Y_1/usrc/1F7Y_1_fmo_input.F07.008
-rw-r--r-- 1 hazwong frank        0 Dec  7 01:26 /scratch/hazwong/824381/1F7Y_1/usrc/1F7Y_1_fmo_input.F07.009
-rw-r--r-- 1 hazwong frank        0 Dec  7 01:26 /scratch/hazwong/824381/1F7Y_1/usrc/1F7Y_1_fmo_input.F07.010
-rw-r--r-- 1 hazwong frank        0 Dec  7 01:26 /scratch/hazwong/824381/1F7Y_1/usrc/1F7Y_1_fmo_input.F07.011
-rw-r--r-- 1 hazwong frank        0 Dec  7 01:26 /scratch/hazwong/824381/1F7Y_1/usrc/1F7Y_1_fmo_input.F07.012
-rw-r--r-- 1 hazwong frank        0 Dec  7 01:26 /scratch/hazwong/824381/1F7Y_1/usrc/1F7Y_1_fmo_input.F07.013
-rw-r--r-- 1 hazwong frank        0 Dec  7 01:26 /scratch/hazwong/824381/1F7Y_1/usrc/1F7Y_1_fmo_input.F07.014
-rw-r--r-- 1 hazwong frank        0 Dec  7 01:26 /scratch/hazwong/824381/1F7Y_1/usrc/1F7Y_1_fmo_input.F07.015
-rw-r--r-- 1 hazwong frank    65440 Dec  7 08:13 /scratch/hazwong/824381/1F7Y_1/usrc/1F7Y_1_fmo_input.F10.000
-rw-r--r-- 1 hazwong frank        0 Dec  7 01:26 /scratch/hazwong/824381/1F7Y_1/usrc/1F7Y_1_fmo_input.F26.000
-rw-r--r-- 1 hazwong frank        0 Dec  7 01:26 /scratch/hazwong/824381/1F7Y_1/usrc/1F7Y_1_fmo_input.F26.001
-rw-r--r-- 1 hazwong frank        0 Dec  7 01:26 /scratch/hazwong/824381/1F7Y_1/usrc/1F7Y_1_fmo_input.F26.002
-rw-r--r-- 1 hazwong frank        0 Dec  7 01:26 /scratch/hazwong/824381/1F7Y_1/usrc/1F7Y_1_fmo_input.F26.003
-rw-r--r-- 1 hazwong frank        0 Dec  7 01:26 /scratch/hazwong/824381/1F7Y_1/usrc/1F7Y_1_fmo_input.F26.004
-rw-r--r-- 1 hazwong frank        0 Dec  7 01:26 /scratch/hazwong/824381/1F7Y_1/usrc/1F7Y_1_fmo_input.F26.005
-rw-r--r-- 1 hazwong frank        0 Dec  7 01:26 /scratch/hazwong/824381/1F7Y_1/usrc/1F7Y_1_fmo_input.F26.006
-rw-r--r-- 1 hazwong frank        0 Dec  7 01:26 /scratch/hazwong/824381/1F7Y_1/usrc/1F7Y_1_fmo_input.F26.007
-rw-r--r-- 1 hazwong frank        0 Dec  7 01:26 /scratch/hazwong/824381/1F7Y_1/usrc/1F7Y_1_fmo_input.F26.008
-rw-r--r-- 1 hazwong frank        0 Dec  7 01:26 /scratch/hazwong/824381/1F7Y_1/usrc/1F7Y_1_fmo_input.F26.009
-rw-r--r-- 1 hazwong frank        0 Dec  7 01:26 /scratch/hazwong/824381/1F7Y_1/usrc/1F7Y_1_fmo_input.F26.010
-rw-r--r-- 1 hazwong frank        0 Dec  7 01:26 /scratch/hazwong/824381/1F7Y_1/usrc/1F7Y_1_fmo_input.F26.011
-rw-r--r-- 1 hazwong frank        0 Dec  7 01:26 /scratch/hazwong/824381/1F7Y_1/usrc/1F7Y_1_fmo_input.F26.012
-rw-r--r-- 1 hazwong frank        0 Dec  7 01:26 /scratch/hazwong/824381/1F7Y_1/usrc/1F7Y_1_fmo_input.F26.013
-rw-r--r-- 1 hazwong frank        0 Dec  7 01:26 /scratch/hazwong/824381/1F7Y_1/usrc/1F7Y_1_fmo_input.F26.014
-rw-r--r-- 1 hazwong frank        0 Dec  7 01:26 /scratch/hazwong/824381/1F7Y_1/usrc/1F7Y_1_fmo_input.F26.015
-rw-r--r-- 1 hazwong frank        0 Dec  7 01:26 /scratch/hazwong/824381/1F7Y_1/usrc/1F7Y_1_fmo_input.F27.000
-rw-r--r-- 1 hazwong frank        0 Dec  7 01:26 /scratch/hazwong/824381/1F7Y_1/usrc/1F7Y_1_fmo_input.F27.001
-rw-r--r-- 1 hazwong frank        0 Dec  7 01:26 /scratch/hazwong/824381/1F7Y_1/usrc/1F7Y_1_fmo_input.F27.002
-rw-r--r-- 1 hazwong frank        0 Dec  7 01:26 /scratch/hazwong/824381/1F7Y_1/usrc/1F7Y_1_fmo_input.F27.003
-rw-r--r-- 1 hazwong frank        0 Dec  7 01:26 /scratch/hazwong/824381/1F7Y_1/usrc/1F7Y_1_fmo_input.F27.004
-rw-r--r-- 1 hazwong frank        0 Dec  7 01:26 /scratch/hazwong/824381/1F7Y_1/usrc/1F7Y_1_fmo_input.F27.005
-rw-r--r-- 1 hazwong frank        0 Dec  7 01:26 /scratch/hazwong/824381/1F7Y_1/usrc/1F7Y_1_fmo_input.F27.006
-rw-r--r-- 1 hazwong frank        0 Dec  7 01:26 /scratch/hazwong/824381/1F7Y_1/usrc/1F7Y_1_fmo_input.F27.007
-rw-r--r-- 1 hazwong frank        0 Dec  7 01:26 /scratch/hazwong/824381/1F7Y_1/usrc/1F7Y_1_fmo_input.F27.008
-rw-r--r-- 1 hazwong frank        0 Dec  7 01:26 /scratch/hazwong/824381/1F7Y_1/usrc/1F7Y_1_fmo_input.F27.009
-rw-r--r-- 1 hazwong frank        0 Dec  7 01:26 /scratch/hazwong/824381/1F7Y_1/usrc/1F7Y_1_fmo_input.F27.010
-rw-r--r-- 1 hazwong frank        0 Dec  7 01:26 /scratch/hazwong/824381/1F7Y_1/usrc/1F7Y_1_fmo_input.F27.011
-rw-r--r-- 1 hazwong frank        0 Dec  7 01:26 /scratch/hazwong/824381/1F7Y_1/usrc/1F7Y_1_fmo_input.F27.012
-rw-r--r-- 1 hazwong frank        0 Dec  7 01:26 /scratch/hazwong/824381/1F7Y_1/usrc/1F7Y_1_fmo_input.F27.013
-rw-r--r-- 1 hazwong frank        0 Dec  7 01:26 /scratch/hazwong/824381/1F7Y_1/usrc/1F7Y_1_fmo_input.F27.014
-rw-r--r-- 1 hazwong frank        0 Dec  7 01:26 /scratch/hazwong/824381/1F7Y_1/usrc/1F7Y_1_fmo_input.F27.015
-rw-r--r-- 1 hazwong frank 15810560 Dec  7 03:56 /scratch/hazwong/824381/1F7Y_1/usrc/1F7Y_1_fmo_input.F40.000
-rw-r--r-- 1 hazwong frank 15810560 Dec  7 03:56 /scratch/hazwong/824381/1F7Y_1/usrc/1F7Y_1_fmo_input.F40.001
-rw-r--r-- 1 hazwong frank 15810560 Dec  7 03:56 /scratch/hazwong/824381/1F7Y_1/usrc/1F7Y_1_fmo_input.F40.002
-rw-r--r-- 1 hazwong frank 15810560 Dec  7 03:56 /scratch/hazwong/824381/1F7Y_1/usrc/1F7Y_1_fmo_input.F40.003
-rw-r--r-- 1 hazwong frank 15810560 Dec  7 03:56 /scratch/hazwong/824381/1F7Y_1/usrc/1F7Y_1_fmo_input.F40.004
-rw-r--r-- 1 hazwong frank 15810560 Dec  7 03:56 /scratch/hazwong/824381/1F7Y_1/usrc/1F7Y_1_fmo_input.F40.005
-rw-r--r-- 1 hazwong frank 15810560 Dec  7 03:56 /scratch/hazwong/824381/1F7Y_1/usrc/1F7Y_1_fmo_input.F40.006
-rw-r--r-- 1 hazwong frank 15810560 Dec  7 03:56 /scratch/hazwong/824381/1F7Y_1/usrc/1F7Y_1_fmo_input.F40.007
-rw-r--r-- 1 hazwong frank 15810560 Dec  7 03:56 /scratch/hazwong/824381/1F7Y_1/usrc/1F7Y_1_fmo_input.F40.008
-rw-r--r-- 1 hazwong frank 15810560 Dec  7 03:56 /scratch/hazwong/824381/1F7Y_1/usrc/1F7Y_1_fmo_input.F40.009
-rw-r--r-- 1 hazwong frank 15810560 Dec  7 03:56 /scratch/hazwong/824381/1F7Y_1/usrc/1F7Y_1_fmo_input.F40.010
-rw-r--r-- 1 hazwong frank 15810560 Dec  7 03:56 /scratch/hazwong/824381/1F7Y_1/usrc/1F7Y_1_fmo_input.F40.011
-rw-r--r-- 1 hazwong frank 15810560 Dec  7 03:56 /scratch/hazwong/824381/1F7Y_1/usrc/1F7Y_1_fmo_input.F40.012
-rw-r--r-- 1 hazwong frank 15810560 Dec  7 03:56 /scratch/hazwong/824381/1F7Y_1/usrc/1F7Y_1_fmo_input.F40.013
-rw-r--r-- 1 hazwong frank 15810560 Dec  7 03:56 /scratch/hazwong/824381/1F7Y_1/usrc/1F7Y_1_fmo_input.F40.014
-rw-r--r-- 1 hazwong frank 15810560 Dec  7 03:56 /scratch/hazwong/824381/1F7Y_1/usrc/1F7Y_1_fmo_input.F40.015
ls: No match.
ls: No match.
ls: No match.
Sat Dec  7 08:13:34 EST 2019
0.187u 0.067s 6:47:01.62 0.0%	0+0k 1464+120io 25pf+0w
