‘2LU0_5_fmo_input.inp’ -> ‘/scratch/hazwong/829272/./2LU0_5_fmo_input.inp’
‘rungms’ -> ‘/scratch/hazwong/829272/./rungms’
‘gms-files.csh’ -> ‘/scratch/hazwong/829272/./gms-files.csh’
----- GAMESS execution script 'rungms' -----
This job is running on host gollum060.lsa.umich.edu
under operating system Linux at Mon Dec 9 01:30:37 EST 2019
Available scratch disk space (Kbyte units) at beginning of the job is
Filesystem     1K-blocks  Used Available Use% Mounted on
/dev/sda4      426933580 33500 426900080   1% /scratch
GAMESS temporary binary files will be written to /scratch/hazwong/829272/2LU0_5/usrc
GAMESS supplementary output files will be written to /scratch/hazwong/829272/2LU0_5/src
Copying input file 2LU0_5_fmo_input.inp to your run's scratch directory...
cp 2LU0_5_fmo_input.inp /scratch/hazwong/829272/2LU0_5/usrc/2LU0_5_fmo_input.F05
unset echo
This is a GDDI run, keeping various output files on local disks
setenv OUTPUT /scratch/hazwong/829272/2LU0_5/usrc/2LU0_5_fmo_input.F06
setenv PUNCH /scratch/hazwong/829272/2LU0_5/usrc/2LU0_5_fmo_input.F07
unset echo
 
Assuming a single but multicore node.
 
/export/apps/CentOS7/gamess/src/build//ddikick.x /export/apps/CentOS7/gamess/src/build//gamess.R3.x 2LU0_5_fmo_input -ddi 1 16 gollum060.lsa.umich.edu:cpus=16 -scr /scratch/hazwong/829272/2LU0_5/usrc

 Distributed Data Interface kickoff program.
 Initiating 16 compute processes on 1 nodes to run the following command:
 /export/apps/CentOS7/gamess/src/build//gamess.R3.x 2LU0_5_fmo_input 

          ******************************************************
          *         GAMESS VERSION = 30 SEP 2018 (R3)         *
          *             FROM IOWA STATE UNIVERSITY             *
          * M.W.SCHMIDT, K.K.BALDRIDGE, J.A.BOATZ, S.T.ELBERT, *
          *   M.S.GORDON, J.H.JENSEN, S.KOSEKI, N.MATSUNAGA,   *
          *          K.A.NGUYEN, S.J.SU, T.L.WINDUS,           *
          *       TOGETHER WITH M.DUPUIS, J.A.MONTGOMERY       *
          *         J.COMPUT.CHEM.  14, 1347-1363(1993)        *
          **************** 64 BIT LINUX VERSION ****************

  SINCE 1993, STUDENTS AND POSTDOCS WORKING AT IOWA STATE UNIVERSITY
  AND ALSO IN THEIR VARIOUS JOBS AFTER LEAVING ISU HAVE MADE IMPORTANT
  CONTRIBUTIONS TO THE CODE:
     IVANA ADAMOVIC, CHRISTINE AIKENS, YURI ALEXEEV, POOJA ARORA,
     ANDREY ASADCHEV, ROB BELL, PRADIPTA BANDYOPADHYAY, JONATHAN BENTZ,
     BRETT BODE, KURT BRORSEN, CALEB CARLIN, GALINA CHABAN, WEI CHEN,
     CHEOL HO CHOI, PAUL DAY, ALBERT DEFUSCO, NUWAN DESILVA, TIM DUDLEY,
     DMITRI FEDOROV, ALEX FINDLATER, GRAHAM FLETCHER, MARK FREITAG,
     KURT GLAESEMANN, ANASTASIA GUNINA,
     DAN KEMP, GRANT MERRILL, NORIYUKI MINEZAWA, JONATHAN MULLIN,
     TAKESHI NAGATA, SEAN NEDD, HEATHER NETZLOFF, BOSILJKA NJEGIC, RYAN OLSON,
     MIKE PAK, BUU PHAM,
     SPENCER PRUITT, LUKE ROSKOP, JIM SHOEMAKER, LYUDMILA SLIPCHENKO,
     TONY SMITH, SAROM SOK LEANG, JIE SONG, TETSUYA TAKETSUGU, SIMON WEBB,
     PENG XU, SOOHAENG YOO, FEDERICO ZAHARIEV

  ADDITIONAL CODE HAS BEEN PROVIDED BY COLLABORATORS IN OTHER GROUPS:
     IOWA STATE UNIVERSITY:
          JOE IVANIC, AARON WEST, LAIMUTIS BYTAUTAS, KLAUS RUEDENBERG
     UNIVERSITY OF TOKYO: KIMIHIKO HIRAO, TAKAHITO NAKAJIMA,
          TAKAO TSUNEDA, MUNEAKI KAMIYA, SUSUMU YANAGISAWA,
          KIYOSHI YAGI, MAHITO CHIBA, SEIKEN TOKURA, NAOAKI KAWAKAMI
     UNIVERSITY OF AARHUS: FRANK JENSEN
     UNIVERSITY OF IOWA: VISVALDAS KAIRYS, HUI LI
     NATIONAL INST. OF STANDARDS AND TECHNOLOGY: WALT STEVENS, DAVID GARMER
     UNIVERSITY OF PISA: BENEDETTA MENNUCCI, JACOPO TOMASI
     UNIVERSITY OF MEMPHIS: HENRY KURTZ, PRAKASHAN KORAMBATH
     UNIVERSITY OF ALBERTA: TOBY ZENG, MARIUSZ KLOBUKOWSKI
     UNIVERSITY OF NEW ENGLAND: MARK SPACKMAN
     MIE UNIVERSITY: HIROAKI UMEDA
     NAT. INST. OF ADVANCED INDUSTRIAL SCIENCE AND TECHNOLOGY: KAZUO KITAURA
     MICHIGAN STATE UNIVERSITY:
          KAROL KOWALSKI, MARTA WLOCH, JEFFREY GOUR, JESSE LUTZ,
          WEI LI, JUN SHEN, J. EMILIANO DEUSTUA, PIOTR PIECUCH
     UNIVERSITY OF MINNESOTA:
          YINAN SHU
     UNIVERSITY OF SILESIA: MONIKA MUSIAL, STANISLAW KUCHARSKI
     FACULTES UNIVERSITAIRES NOTRE-DAME DE LA PAIX:
          OLIVIER QUINET, BENOIT CHAMPAGNE
     UNIVERSITY OF CALIFORNIA - SANTA BARBARA: BERNARD KIRTMAN
     INSTITUTE FOR MOLECULAR SCIENCE:
          KAZUYA ISHIMURA, MICHIO KATOUDA, AND SHIGERU NAGASE
     UNIVERSITY OF NOTRE DAME: ANNA POMOGAEVA, DAN CHIPMAN
     KYUSHU UNIVERSITY:
          HARUYUKI NAKANO,
          FENG LONG GU, JACEK KORCHOWIEC, MARCIN MAKOWSKI, AND YURIKO AOKI,
          HIROTOSHI MORI AND EISAKU MIYOSHI
     PENNSYLVANIA STATE UNIVERSITY:
          TZVETELIN IORDANOV, CHET SWALINA, JONATHAN SKONE,
          SHARON HAMMES-SCHIFFER
     WASEDA UNIVERSITY:
          MASATO KOBAYASHI, TOMOKO AKAMA, TSUGUKI TOUMA,
          TAKESHI YOSHIKAWA, YASUHIRO IKABATA, JUNJI SEINO,
          YUYA NAKAJIMA, HIROMI NAKAI
     NANJING UNIVERSITY: SHUHUA LI
     UNIVERSITY OF NEBRASKA:
          PEIFENG SU, DEJUN SI, NANDUN THELLAMUREGE, YALI WANG, HUI LI
     UNIVERSITY OF ZURICH: ROBERTO PEVERATI, KIM BALDRIDGE
     N. COPERNICUS UNIVERSITY AND JACKSON STATE UNIVERSITY:
          MARIA BARYSZ
     UNIVERSITY OF COPENHAGEN: Jimmy Kromann, CASPER STEINMANN
     TOKYO INSTITUTE OF TECHNOLOGY: HIROYA NAKATA
     NAGOYA UNIVERSITY: YOSHIO NISHIMOTO, STEPHAN IRLE
     MOSCOW STATE UNIVERSITY: VLADIMIR MIRONOV


 PARALLEL VERSION RUNNING ON       16 PROCESSORS IN        1 NODES.

 EXECUTION OF GAMESS BEGUN Mon Dec  9 01:30:37 2019

            ECHO OF THE FIRST FEW INPUT CARDS -
 INPUT CARD>!*** FMO 5.3 (Gamess) INPUT generated by Facio 22.1.1.32 ***                    
 INPUT CARD> $CONTRL RUNTYP=ENERGY NPRINT=-5 ISPHER=1 MAXIT=200 $END                        
 INPUT CARD> $SYSTEM MWORDS=63 MEMDDI=63 $END                                               
 INPUT CARD> $GDDI NGROUP=1 $END                                                            
 INPUT CARD> $SCF DIRSCF=.TRUE. NPUNCH=0 $END                                               
 INPUT CARD>!*** NumCPU : 2  MemPerNode : 512MB                                             
 INPUT CARD> $PCM SOLVNT=WATER IEF=-10 ICOMP=2 ICAV=1 IDISP=1 IFMO=-1 $END                  
 INPUT CARD> $PCMCAV RADII=SUAHF $END                                                       
 INPUT CARD> $TESCAV NTSALL=60 $END                                                         
 INPUT CARD> $FMOPRP                                                                        
 INPUT CARD>    NAODIR=200                                                                  
 INPUT CARD>    NGRFMO(1)=1, 1, 0, 0, 0,   0, 0, 0, 0, 0                                    
 INPUT CARD>    IPIEDA=1                                                                    
 INPUT CARD>    NPRINT=9                                                                    
 INPUT CARD> $END                                                                           
 INPUT CARD> $FMO                                                                           
 INPUT CARD>      SCFTYP(1)=RHF                                                             
 INPUT CARD>      MODGRD=10                                                                 
 INPUT CARD>      MODMUL=0                                                                  
 INPUT CARD>      MAXCAO=5                                                                  
 INPUT CARD>      MAXBND=24                                                                 
 INPUT CARD>      NLAYER=1                                                                  
 INPUT CARD>      MPLEVL(1)=2                                                               
 INPUT CARD>      NFRAG=22                                                                  
 INPUT CARD>      ICHARG(1)=-1, -1, -1, -1, -1, -1, 0, -1, -1, -1, -1, -1, -1, -1, 0,       
 INPUT CARD>-1, -1, -1, -1, -1, -1, 0                                                       
 INPUT CARD>      FRGNAM(1)=F1, F2, F3, F4, F5, F6, F7, F8, F9, F10, F11, F12, F13,         
 INPUT CARD>F14, F15, F16, F17, F18, F19, F20, F21, F22                                     
 INPUT CARD>      indat(1)=0                                                                
 INPUT CARD>               1   -36   0                                                      
 INPUT CARD>               37   -67   0                                                     
 INPUT CARD>               68   -97   0                                                     
 INPUT CARD>               98   -128   0                                                    
 INPUT CARD>               129   -161   0                                                   
 INPUT CARD>               162   -194   0                                                   
 INPUT CARD>               195   -224   0                                                   
 INPUT CARD>               225   -258   0                                                   
 INPUT CARD>               259   -288   0                                                   
 INPUT CARD>               289   -322   0                                                   
 INPUT CARD>               323   -355   0                                                   
 INPUT CARD>               356   -388   0                                                   
 INPUT CARD>               389   -418   0                                                   
 INPUT CARD>               419   -449   0                                                   
 INPUT CARD>               450   -481   0                                                   
 INPUT CARD>               482   -511   0                                                   
 INPUT CARD>               512   -545   0                                                   
 INPUT CARD>               546   -578   0                                                   
 INPUT CARD>               579   -612   0                                                   
 INPUT CARD>               613   -645   0                                                   
 INPUT CARD>               646   -679   0                                                   


 -------------------------------------------------------------
 GROUP DDI, PROGRAMMED BY: RYAN M. OLSON AND DMITRI G. FEDOROV
        FEDOROV ET AL., J. COMPUT. CHEM., 25 (2004) 872.
 -------------------------------------------------------------

 -------------------------------------------------------
 GDDI: INITIALIZATION COMPLETED FOR GROUP     1 OF     1
 WITH    16 PROCESSES BALTYP=DLB   global rank=        0
 -------------------------------------------------------

   63000000 WORDS OF MEMORY AVAILABLE


     RUN TITLE
     ---------
  FMO calculation                                                                

 THE POINT GROUP OF THE MOLECULE IS C1      
 THE ORDER OF THE PRINCIPAL AXIS IS     0

 ATOM   ATOMIC CHARGE
 H.1-1       1.0
 O.1-1       8.0
 C.1-1       6.0
 N.1-1       7.0
 P.1-1      15.0

     ATOMIC BASIS SET LIBRARY
     ----------------
 THE CONTRACTED PRIMITIVE FUNCTIONS HAVE BEEN UNNORMALIZED
 THE CONTRACTED BASIS FUNCTIONS ARE NOW NORMALIZED TO UNITY

  SHELL TYPE  PRIMITIVE        EXPONENT          CONTRACTION COEFFICIENT(S)

 H.1-1     

      1   S       1            18.7311370    0.033494604338
      1   S       2             2.8253944    0.234726953484
      1   S       3             0.6401217    0.813757326146

      2   S       4             0.1612778    1.000000000000

 O.1-1     

      3   S       5          5484.6716600    0.001831074430
      3   S       6           825.2349460    0.013950172200
      3   S       7           188.0469580    0.068445078098
      3   S       8            52.9645000    0.232714335992
      3   S       9            16.8975704    0.470192897984
      3   S      10             5.7996353    0.358520852987

      4   L      11            15.5396162   -0.110777549525    0.070874268231
      4   L      12             3.5999336   -0.148026262701    0.339752839147
      4   L      13             1.0137618    1.130767015354    0.727158577316

      5   L      14             0.2700058    1.000000000000    1.000000000000

      6   D      15             0.8000000    1.000000000000

 C.1-1     

      7   S      16          3047.5248800    0.001834737132
      7   S      17           457.3695180    0.014037322813
      7   S      18           103.9486850    0.068842622264
      7   S      19            29.2101553    0.232184443216
      7   S      20             9.2866630    0.467941348435
      7   S      21             3.1639270    0.362311985337

      8   L      22             7.8682723   -0.119332419775    0.068999066591
      8   L      23             1.8812885   -0.160854151696    0.316423960957
      8   L      24             0.5442493    1.143456437840    0.744308290898

      9   L      25             0.1687145    1.000000000000    1.000000000000

     10   D      26             0.8000000    1.000000000000

 N.1-1     

     11   S      27          4173.5114600    0.001834772160
     11   S      28           627.4579110    0.013994627002
     11   S      29           142.9020930    0.068586551812
     11   S      30            40.2343293    0.232240873040
     11   S      31            12.8202129    0.469069948082
     11   S      32             4.3904370    0.360455199063

     12   L      33            11.6263619   -0.114961181702    0.067579743878
     12   L      34             2.7162798   -0.169117478561    0.323907295893
     12   L      35             0.7722184    1.145851947027    0.740895139755

     13   L      36             0.2120315    1.000000000000    1.000000000000

     14   D      37             0.8000000    1.000000000000

 P.1-1     

     15   S      38         19413.3000000    0.001851598923
     15   S      39          2909.4200000    0.014206191735
     15   S      40           661.3640000    0.069999459277
     15   S      41           185.7590000    0.240078860331
     15   S      42            59.1943000    0.484761717984
     15   S      43            20.0310000    0.335199804993

     16   L      44           339.4780000   -0.002782170105    0.004564616191
     16   L      45            81.0101000   -0.036049901354    0.033693571881
     16   L      46            25.8780000   -0.116631004382    0.139754883368
     16   L      47             9.4522100    0.096832803638    0.339361716786
     16   L      48             3.6656600    0.614418023082    0.450920623685
     16   L      49             1.4674600    0.403798015170    0.238585800889

     17   L      50             2.1562300   -0.252924113863   -0.017765312733
     17   L      51             0.7489970    0.032851844678    0.274058196433
     17   L      52             0.2831450    1.081254761783    0.785421562957

     18   L      53             0.0998317    1.000000000000    1.000000000000

     19   D      54             0.5500000    1.000000000000

 TOTAL NUMBER OF BASIS SET SHELLS             =   19
 NUMBER OF CARTESIAN GAUSSIAN BASIS FUNCTIONS =   66

     $CONTRL OPTIONS
     ---------------
 SCFTYP=RHF          RUNTYP=ENERGY       EXETYP=RUN     
 MPLEVL=       0     CITYP =NONE         CCTYP =NONE         VBTYP =NONE    
 DFTTYP=NONE         TDDFT =NONE    
 MULT  =       1     ICHARG=       0     NZVAR =       0     COORD =UNIQUE  
 PP    =NONE         RELWFN=NONE         LOCAL =NONE         NUMGRD=       F
 ISPHER=       1     NOSYM =       0     MAXIT =     200     UNITS =ANGS    
 PLTORB=       F     MOLPLT=       F     AIMPAC=       F     FRIEND=        
 NPRINT=      -5     IREST =       0     GEOM  =INPUT   
 NORMF =       0     NORMP =       0     ITOL  =      24     ICUT  =      12
 INTTYP=BEST         GRDTYP=BEST         QMTTOL= 1.0E-06

     $SYSTEM OPTIONS
     ---------------
  REPLICATED MEMORY=    63000000 WORDS (ON EVERY NODE).
 DISTRIBUTED MEMDDI=          63 MILLION WORDS IN AGGREGATE,
 MEMDDI DISTRIBUTED OVER  16 PROCESSORS IS     3937500 WORDS/PROCESSOR.
 TOTAL MEMORY REQUESTED ON EACH PROCESSOR=    66937500 WORDS.
 TIMLIM=      525600.00 MINUTES, OR     365.0 DAYS.
 PARALL= T  BALTYP=  DLB     KDIAG=    0  COREFL= F
 MXSEQ2=     300 MXSEQ3=     150  mem10=         0

 ** LOOKING UP INTERNALLY STORED DATA FOR SOLVENT=WATER    **
 OPTICAL AND PHYSICAL CONSTANTS:
 EPS= 78.390; EPSINF=  1.776; RSOLV=  1.385 A; VMOL=  18.070 ML/MOL;
 TCE= .25700E-03 1/K; STEN= 71.810 DYN/CM;  DSTEN=  0.6500; CMF=  1.2770


     -----------------------------------
     INPUT FOR PCM SOLVATION CALCULATION 
     -----------------------------------
     IEF   =     -10
     ICOMP =       2     IFIELD=       0     ICAV  =       1
     IDISP =       1     IREP  =       0     IDP   =       0

     SOLVNT=WATER        EPS   = 78.3900     EPSINF=  1.7760
     VMOL  = 18.0700     TCE   =  0.00025700 STEN  = 71.8100
     DSTEN =  0.6500     CMF   =  1.2770     RSOLV =  1.3850

     NESFP =       0
     OMEGA = 40.0000     RET   =100.0000     FRO   =  0.7000

     TABS  =298.0000     IPRINT=       0

     --------------------------------
     INPUT FOR ITERATIVE C-PCM METHOD 
     --------------------------------
     IPCMIT  =         1     MXDIIS  =        50
     MXITR1  =       200     MXITR2  =       200
     THRES   = 0.100E-09     IMUL    =         3
     RCUT(1) =   20.0000     RCUT(2) =   50.0000

     IDIRCT  =         1
     IMGABI  =         0     RABI    =    4.0000
     IMGASC  =         0     RASC    =   20.0000
     THRSLS  = 0.500E-03     DENSLS  =    0.0100
     IEFPOL  =         1     REFPOL  =    0.0000

     INPUT FOR ISOTROPIC DIELECTRICS
     -------------------------------
     EPS=    78.39

          ----------------
          PROPERTIES INPUT
          ----------------

     MOMENTS            FIELD           POTENTIAL          DENSITY
 IEMOM =       1   IEFLD =       0   IEPOT =       0   IEDEN =       0
 WHERE =COMASS     WHERE =NUCLEI     WHERE =NUCLEI     WHERE =NUCLEI  
 OUTPUT=BOTH       OUTPUT=BOTH       OUTPUT=NONE       OUTPUT=BOTH    
 IEMINT=       0   IEFINT=       0                     IEDINT=       0
                                                       MORB  =       0
          EXTRAPOLATION IN EFFECT
          SOSCF IN EFFECT
 ORBITAL PRINTING OPTION: NPREO=     1 32767     2     1

     -------------------------------
     INTEGRAL TRANSFORMATION OPTIONS
     -------------------------------
     NWORD  =            0
     CUTOFF = 1.0E-10     MPTRAN =       0
     DIRTRF =       T     AOINTS =DUP     

          ----------------------
          INTEGRAL INPUT OPTIONS
          ----------------------
 NOPK  =       1 NORDER=       0 SCHWRZ=       T

 ..... DONE SETTING UP THE RUN .....
 CPU     0: STEP CPU TIME=     0.05 TOTAL CPU TIME=          0.0 (      0.0 MIN)
 TOTAL WALL CLOCK TIME=          0.1 SECONDS, CPU UTILIZATION IS    62.50%
 CPU     0: STEP CPU TIME=     0.00 TOTAL CPU TIME=          0.0 (      0.0 MIN)
 TOTAL WALL CLOCK TIME=          0.1 SECONDS, CPU UTILIZATION IS    62.50%

                    ----------------------
                    AO INTEGRAL TECHNOLOGY
                    ----------------------
     S,P,L SHELL ROTATED AXIS INTEGRALS, REPROGRAMMED BY
        KAZUYA ISHIMURA (IMS) AND JOSE SIERRA (SYNSTAR).
     S,P,D,L SHELL ROTATED AXIS INTEGRALS PROGRAMMED BY
        KAZUYA ISHIMURA (INSTITUTE FOR MOLECULAR SCIENCE).
     S,P,D,F,G SHELL TO TOTAL QUARTET ANGULAR MOMENTUM SUM 5,
        ERIC PROGRAM BY GRAHAM FLETCHER (ELORET AND NASA ADVANCED
        SUPERCOMPUTING DIVISION, AMES RESEARCH CENTER).
     S,P,D,F,G,L SHELL GENERAL RYS QUADRATURE PROGRAMMED BY
        MICHEL DUPUIS (PACIFIC NORTHWEST NATIONAL LABORATORY).
 Setting modorb=1 flag...
 Setting modorb=1 flag...

          -----------------------
          MP2 CONTROL INFORMATION
          -----------------------
          NACORE =        8  NBCORE =        8
          LMOMP2 =        F  AOINTS = DUP     
          METHOD =        2  NWORD  =               0
          MP2PRP =        F  OSPT   = NONE    
          CUTOFF = 1.00E-12  CPHFBS = BASISAO 
          CODE   = IMS     

          NUMBER OF CORE -A-  ORBITALS =     8
          NUMBER OF CORE -B-  ORBITALS =     8
          NUMBER OF OCC. -A-  ORBITALS =    18
          NUMBER OF OCC. -B-  ORBITALS =    18
          NUMBER OF MOLECULAR ORBITALS =    66
          NUMBER OF   BASIS  FUNCTIONS =    66

 CPU     0: STEP CPU TIME=     0.03 TOTAL CPU TIME=          0.1 (      0.0 MIN)
 TOTAL WALL CLOCK TIME=          0.1 SECONDS, CPU UTILIZATION IS    66.67%
 CPU     0: STEP CPU TIME=     0.00 TOTAL CPU TIME=          0.1 (      0.0 MIN)
 TOTAL WALL CLOCK TIME=          0.1 SECONDS, CPU UTILIZATION IS    66.67%

     INPUT FOR CAVITY DEFINITION 
     ---------------------------
   ATOM               COORDINATES                RADIUS       EPS
      1      2.6800    -11.8180      5.3680      0.0100     78.3900
      2      1.9690    -11.6710      4.7160      1.5900     78.3900
      3      1.9310    -12.8380      3.8810      1.7700     78.3900
      4      1.6680    -13.7240      4.5020      0.0100     78.3900
      5      2.9410    -13.0140      3.4490      0.0100     78.3900
      6      0.9190    -12.7300      2.7370      1.7700     78.3900
      7      0.9180    -13.6480      2.1160      0.0100     78.3900
      8     -0.4240    -12.5740      3.2760      1.5900     78.3900
      9     -1.1540    -11.6800      2.4540      1.7700     78.3900
     10     -2.0760    -12.2150      2.1300      0.0100     78.3900
     11     -1.5380    -10.4680      3.1920      1.6800     78.3900
     12     -2.5040     -9.5730      2.8210      1.7700     78.3900
     13     -4.9880     -8.5810      0.6300      1.6800     78.3900
     14     -4.9450     -9.2760     -0.0870      0.0100     78.3900
     15     -5.6520     -7.8320      0.5420      0.0100     78.3900
     16     -3.2620     -9.6450      1.7140      1.6800     78.3900
     17     -4.1550     -8.6640      1.6480      1.7700     78.3900
     18     -4.2910     -7.7040      2.6170      1.6800     78.3900
     19     -5.0020     -7.0000      2.4930      0.0100     78.3900
     20     -3.5290     -7.6060      3.7760      1.7700     78.3900
     21     -3.7200     -6.7090      4.6040      1.5900     78.3900
     22     -2.5480     -8.6330      3.8340      1.7700     78.3900
     23     -1.6030     -8.9180      4.8120      1.6800     78.3900
     24     -1.0280    -10.0210      4.3910      1.7700     78.3900
     25     -0.2280    -10.5600      4.9070      0.0100     78.3900
     26     -0.2970    -11.3710      1.2460      1.7700     78.3900
     27     -0.4700    -10.3500      0.8530      0.0100     78.3900
     28     -0.5460    -12.3200      0.2290      1.5900     78.3900
     29      0.0480    -12.0940     -0.4980      0.0100     78.3900
     30      1.1110    -11.5240      1.8090      1.7700     78.3900
     31      1.3620    -10.6580      2.4630      0.0100     78.3900
     32      2.1380    -11.8180      0.8280      1.5900     78.3900
     33      2.9670    -10.6290      0.2110      2.1000     78.3900
     34      3.3740     -9.7200      1.3010      1.5900     78.3900
     35      4.0440    -11.1840     -0.6440      1.5900     78.3900
     36      1.9210     -9.8820     -0.6990      1.5900     78.3900
     37      1.3880    -10.5140     -1.8860      1.7700     78.3900
     38      0.9880    -11.5320     -1.6720      0.0100     78.3900
     39      2.1870    -10.6320     -2.6490      0.0100     78.3900
     40      0.2680     -9.6760     -2.5190      1.7700     78.3900
     41     -0.1390    -10.1820     -3.4220      0.0100     78.3900
     42     -0.8290     -9.5260     -1.5770      1.5900     78.3900
     43     -1.3880     -8.2260     -1.7170      1.7700     78.3900
     44     -2.4660     -8.3900     -1.9510      0.0100     78.3900
     45     -1.2880     -7.4090     -0.4750      1.6800     78.3900
     46     -0.3560     -7.7220      0.4870      1.7700     78.3900
     47      0.2860     -8.5750      0.2700      0.0100     78.3900
     48     -0.2690     -7.0290      1.6300      1.7700     78.3900
     49      0.4310     -7.2920      2.4230      0.0100     78.3900
     50     -2.1180     -6.3060     -0.2950      1.7700     78.3900
     51     -2.9220     -5.9970     -1.1870      1.5900     78.3900
     52     -2.0390     -5.5890      0.8490      1.6800     78.3900
     53     -1.1580     -5.9310      1.8050      1.7700     78.3900
     54     -1.1320     -5.2330      2.9360      1.6800     78.3900
     55     -1.7780     -4.4770      3.0670      0.0100     78.3900
     56     -0.5070     -5.4580      3.6810      0.0100     78.3900
     57     -0.7210     -7.5710     -2.9090      1.7700     78.3900
     58     -0.6400     -6.4700     -2.8040      0.0100     78.3900
     59     -1.4360     -7.8850     -4.0880      1.5900     78.3900
     60     -0.9090     -7.5430     -4.8210      0.0100     78.3900
     61      0.6490     -8.2400     -2.9050      1.7700     78.3900
     62      1.2820     -7.8420     -2.0780      0.0100     78.3900
     63      1.3250     -8.2460     -4.1830      1.5900     78.3900
     64      2.2700     -7.0530     -4.5710      2.1000     78.3900
     65      3.1580     -6.7710     -3.4220      1.5900     78.3900
     66      2.9170     -7.3490     -5.8710      1.5900     78.3900
     67      1.2970     -5.8320     -4.7380      1.5900     78.3900
     68      0.4260     -5.7050     -5.8800      1.7700     78.3900
     69     -0.2240     -6.6000     -6.0000      0.0100     78.3900
     70      1.0270     -5.6120     -6.8140      0.0100     78.3900
     71     -0.4680     -4.4630     -5.7730      1.7700     78.3900
     72     -1.1590     -4.3950     -6.6390      0.0100     78.3900
     73     -1.2850     -4.5180     -4.5670      1.5900     78.3900
     74     -1.4490     -3.2050     -4.0500      1.7700     78.3900
     75     -2.5480     -3.0070     -4.0230      0.0100     78.3900
     76     -0.8810     -3.0810     -2.6740      1.6800     78.3900
     77      0.1020     -3.9390     -2.2270      1.7700     78.3900
     78      0.4460     -4.6720     -2.9550      0.0100     78.3900
     79     -1.3650     -2.0860     -1.8560      1.7700     78.3900
     80     -2.2170     -1.2850     -2.2190      1.5900     78.3900
     81     -0.8360     -2.0640     -0.5910      1.6800     78.3900
     82     -1.1730     -1.3210      0.0110      0.0100     78.3900
     83      0.0960     -2.9260     -0.0570      1.7700     78.3900
     84      0.4430     -2.8090      1.1160      1.5900     78.3900
     85      0.5830     -3.9120     -0.9750      1.7700     78.3900
     86      1.3210     -4.6350     -0.6290      0.0100     78.3900
     87     -0.7910     -2.2570     -5.0420      1.7700     78.3900
     88     -0.3530     -1.3650     -4.5490      0.0100     78.3900
     89     -1.7270     -1.8550     -6.0240      1.5900     78.3900
     90     -1.2480     -1.3080     -6.6580      0.0100     78.3900
     91      0.2880     -3.1380     -5.6550      1.7700     78.3900
     92      1.1120     -3.3130     -4.9250      0.0100     78.3900
     93      0.7540     -2.7150     -6.9590      1.5900     78.3900
     94      2.0130     -1.7680     -7.0360      2.1000     78.3900
     95      3.0330     -2.2680     -6.0880      1.5900     78.3900
     96      2.4390     -1.6220     -8.4430      1.5900     78.3900
     97      1.5390     -0.3600     -6.5190      1.5900     78.3900
     98      0.5970      0.4530     -7.2480      1.7700     78.3900
     99     -0.3030     -0.1310     -7.5330      0.0100     78.3900
    100      1.0680      0.8500     -8.1810      0.0100     78.3900
    101      0.1190      1.6480     -6.4070      1.7700     78.3900
    102     -0.6210      2.2610     -6.9670      0.0100     78.3900
    103     -0.5390      1.1730     -5.1940      1.5900     78.3900
    104     -0.2130      2.0320     -4.1110      1.7700     78.3900
    105     -1.1960      2.4120     -3.7460      0.0100     78.3900
    106      0.4870      1.3210     -2.9970      1.6800     78.3900
    107      1.3280      0.2690     -3.2740      1.7700     78.3900
    108      1.4060     -0.0110     -4.3210      0.0100     78.3900
    109      1.9660     -0.3970     -2.3010      1.7700     78.3900
    110      2.6100     -1.2500     -2.5010      0.0100     78.3900
    111      0.3300      1.7410     -1.6790      1.7700     78.3900
    112     -0.3990      2.7150     -1.4380      1.5900     78.3900
    113      0.9730      1.0890     -0.6840      1.6800     78.3900
    114      1.7760      0.0490     -0.9610      1.7700     78.3900
    115      2.3840     -0.5840      0.0440      1.6800     78.3900
    116      2.2100     -0.2940      0.9880      0.0100     78.3900
    117      2.9970     -1.3580     -0.1050      0.0100     78.3900
    118      0.5830      3.2040     -4.6750      1.7700     78.3900
    119      1.3530      3.5630     -3.9610      0.0100     78.3900
    120     -0.2720      4.2770     -5.0350      1.5900     78.3900
    121      0.2650      4.9310     -5.5110      0.0100     78.3900
    122      1.2350      2.5750     -5.9080      1.7700     78.3900
    123      2.0810      1.9190     -5.6020      0.0100     78.3900
    124      1.6210      3.5020     -6.9570      1.5900     78.3900
    125      2.8350      4.4780     -6.6510      2.1000     78.3900
    126      2.3140      5.8550     -6.5500      1.5900     78.3900
    127      3.5950      3.9590     -5.4960      1.5900     78.3900
    128      3.6970      4.3280     -7.9680      1.5900     78.3900
    129      4.9600      5.0350     -8.0620      1.7700     78.3900
    130      5.6820      4.6810     -7.2880      0.0100     78.3900
    131      4.8110      6.1280     -7.9000      0.0100     78.3900
    132      5.5910      4.8590     -9.4520      1.7700     78.3900
    133      5.7420      3.7830     -9.6970      0.0100     78.3900
    134      4.6850      5.4150    -10.4540      1.5900     78.3900
    135      5.4220      6.1340    -11.4330      1.7700     78.3900
    136      5.1220      5.7310    -12.4240      0.0100     78.3900
    137      5.1060      7.5700    -11.3940      1.6800     78.3900
    138      4.9820      9.7290    -11.8070      1.7700     78.3900
    139      4.0810      9.4780    -10.7790      1.6800     78.3900
    140      4.1920      8.1860    -10.5800      1.7700     78.3900
    141      3.6420      7.6090     -9.8310      0.0100     78.3900
    142      6.2870     10.8100    -13.4620      1.6800     78.3900
    143      6.7830      9.6040    -13.7410      1.7700     78.3900
    144      7.5370      9.5880    -14.5360      0.0100     78.3900
    145      6.5420      8.4300    -13.1550      1.6800     78.3900
    146      5.6140      8.5590    -12.1980      1.7700     78.3900
    147      5.3470     10.9090    -12.4910      1.7700     78.3900
    148      4.8210     12.1150    -12.2480      1.6800     78.3900
    149      4.1020     12.2800    -11.5610      0.0100     78.3900
    150      5.1680     12.8880    -12.7780      0.0100     78.3900
    151      6.8850      5.8490    -11.1910      1.7700     78.3900
    152      7.5300      6.7020    -11.4660      0.0100     78.3900
    153      7.2870      4.6990    -11.9090      1.5900     78.3900
    154      8.1670      4.4490    -11.5920      0.0100     78.3900
    155      6.9100      5.6200     -9.6900      1.7700     78.3900
    156      6.7830      6.6020     -9.1720      0.0100     78.3900
    157      8.0630      4.8560     -9.2460      1.5900     78.3900
    158      9.0190      5.5210     -8.1770      2.1000     78.3900
    159      8.1900      6.2640     -7.2080      1.5900     78.3900
    160      9.9110      4.4830     -7.6160      1.5900     78.3900
    161      9.8860      6.5640     -8.9830      1.5900     78.3900
    162     10.6220      6.1860    -10.1710      1.7700     78.3900
    163     10.1020      5.3950    -10.7620      0.0100     78.3900
    164     11.6220      5.7920     -9.8830      0.0100     78.3900
    165     10.8280      7.3850    -11.1090      1.7700     78.3900
    166     11.3830      7.0840    -12.0230      0.0100     78.3900
    167      9.5310      7.8800    -11.5310      1.5900     78.3900
    168      9.5440      9.2890    -11.5690      1.7700     78.3900
    169      9.1840      9.5810    -12.5800      0.0100     78.3900
    170      8.6450      9.8510    -10.5550      1.6800     78.3900
    171      7.3110     11.1860     -9.4350      1.7700     78.3900
    172      7.2740      9.9680     -8.7780      1.6800     78.3900
    173      8.0710      9.2090     -9.4830      1.7700     78.3900
    174      8.2710      8.1590     -9.2780      0.0100     78.3900
    175      6.9320     13.4380    -10.0330      1.6800     78.3900
    176      7.8000     13.2430    -11.0320      1.7700     78.3900
    177      7.9900     14.1180    -11.6660      0.0100     78.3900
    178      8.4860     12.1390    -11.3420      1.6800     78.3900
    179      8.1690     11.1320    -10.5170      1.7700     78.3900
    180      6.6510     12.4070     -9.2010      1.7700     78.3900
    181      5.7890     12.6000     -8.1890      1.6800     78.3900
    182      5.6380     11.9100     -7.4830      0.0100     78.3900
    183      5.3940     13.5150     -8.0570      0.0100     78.3900
    184     10.9760      9.7230    -11.3990      1.7700     78.3900
    185     11.0630     10.7220    -10.9310      0.0100     78.3900
    186     11.6160      9.7400    -12.6610      1.5900     78.3900
    187     12.5400      9.9610    -12.4990      0.0100     78.3900
    188     11.5170      8.6150    -10.5010      1.7700     78.3900
    189     11.1190      8.7230     -9.4680      0.0100     78.3900
    190     12.9480      8.4410    -10.5370      1.5900     78.3900
    191     13.8500      9.1760     -9.4770      2.1000     78.3900
    192     13.2680      8.9950     -8.1270      1.5900     78.3900
    193     15.2530      8.7410     -9.6680      1.5900     78.3900
    194     13.7140     10.6880     -9.8940      1.5900     78.3900
    195     14.2860     11.1540    -11.1390      1.7700     78.3900
    196     13.9130     10.5720    -12.0090      0.0100     78.3900
    197     15.3930     11.0420    -11.1260      0.0100     78.3900
    198     13.9690     12.6380    -11.3700      1.7700     78.3900
    199     14.4230     13.0010    -12.3160      0.0100     78.3900
    200     12.5290     12.8300    -11.4770      1.5900     78.3900
    201     12.1670     14.0480    -10.8380      1.7700     78.3900
    202     11.6500     14.6500    -11.6220      0.0100     78.3900
    203     11.2350     13.8400     -9.6900      1.6800     78.3900
    204     11.1410     12.6050     -9.0910      1.7700     78.3900
    205     11.7810     11.8280     -9.5020      0.0100     78.3900
    206     10.2980     12.3760     -8.0760      1.7700     78.3900
    207     10.1950     11.3960     -7.6120      0.0100     78.3900
    208     10.4870     14.9000     -9.1870      1.7700     78.3900
    209     10.6250     16.0270     -9.6860      1.5900     78.3900
    210      9.6280     14.6910     -8.1620      1.6800     78.3900
    211      9.5190     13.4710     -7.6090      1.7700     78.3900
    212      8.6580     13.2810     -6.6100      1.6800     78.3900
    213      8.0760     14.0420     -6.3110      0.0100     78.3900
    214      8.5620     12.3920     -6.1580      0.0100     78.3900
    215     13.4540     14.7580    -10.4380      1.7700     78.3900
    216     13.3370     15.3430     -9.5010      0.0100     78.3900
    217     13.8770     15.6100    -11.4900      1.5900     78.3900
    218     14.7820     15.9100    -11.3010      0.0100     78.3900
    219     14.3990     13.5770    -10.2350      1.7700     78.3900
    220     14.1830     13.0730     -9.2700      0.0100     78.3900
    221     15.7990     13.8980    -10.3480      1.5900     78.3900
    222     16.0730     14.4890     -9.6200      0.0100     78.3900
    223      2.0540     21.6190     -3.3450      0.0100     78.3900
    224      2.7390     21.5110     -4.0310      1.5900     78.3900
    225      3.1240     22.8260     -4.4590      1.7700     78.3900
    226      3.5600     23.3730     -3.5930      0.0100     78.3900
    227      2.2210     23.3820     -4.7970      0.0100     78.3900
    228      4.1500     22.8220     -5.6000      1.7700     78.3900
    229      4.3820     23.8590     -5.9310      0.0100     78.3900
    230      5.3970     22.2200     -5.1410      1.5900     78.3900
    231      5.9480     21.4400     -6.1930      1.7700     78.3900
    232      6.9850     21.8140     -6.3630      0.0100     78.3900
    233      6.0040     20.0140     -5.8440      1.6800     78.3900
    234      6.7840     19.0740     -6.4610      1.7700     78.3900
    235      9.1360     18.2370     -8.8570      1.6800     78.3900
    236      9.3080     19.1090     -9.3140      0.0100     78.3900
    237      9.6540     17.4260     -9.1430      0.0100     78.3900
    238      7.6120     19.2970     -7.4940      1.6800     78.3900
    239      8.2800     18.2060     -7.8540      1.7700     78.3900
    240      8.1370     16.9990     -7.2230      1.6800     78.3900
    241      8.6950     16.2240     -7.5450      0.0100     78.3900
    242      7.2990     16.7390     -6.1460      1.7700     78.3900
    243      7.2500     15.6160     -5.6370      1.5900     78.3900
    244      6.5560     17.8950     -5.7780      1.7700     78.3900
    245      5.6170     18.0820     -4.7700      1.6800     78.3900
    246      5.3130     19.3580     -4.8470      1.7700     78.3900
    247      4.6130     19.8880     -4.1940      0.0100     78.3900
    248      5.1210     21.6920     -7.4300      1.7700     78.3900
    249      5.0920     20.8190     -8.1160      0.0100     78.3900
    250      5.6230     22.8240     -8.1120      1.5900     78.3900
    251      5.0530     22.9540     -8.8790      0.0100     78.3900
    252      3.7550     21.9790     -6.8270      1.7700     78.3900
    253      3.2970     21.0390     -6.4380      0.0100     78.3900
    254      2.8660     22.7320     -7.6820      1.5900     78.3900
    255      1.8870     21.9550     -8.6400      2.1000     78.3900
    256      1.1730     20.9370     -7.8430      1.5900     78.3900
    257      1.0520     22.9450     -9.3500      1.5900     78.3900
    258      2.8390     21.2430     -9.6700      1.5900     78.3900
    259      3.5000     22.0310    -10.6930      1.7700     78.3900
    260      4.1520     22.8100    -10.2430      0.0100     78.3900
    261      2.7570     22.5550    -11.3380      0.0100     78.3900
    262      4.3740     21.1740    -11.6220      1.7700     78.3900
    263      4.8530     21.8140    -12.3940      0.0100     78.3900
    264      5.4560     20.5400    -10.8740      1.5900     78.3900
    265      5.6830     19.2370    -11.4020      1.7700     78.3900
    266      6.7560     19.2200    -11.7060      0.0100     78.3900
    267      5.4250     18.1690    -10.4010      1.6800     78.3900
    268      4.5890     18.3860     -9.3310      1.7700     78.3900
    269      4.1570     19.3860     -9.2750      0.0100     78.3900
    270      6.0180     16.9410    -10.5960      1.7700     78.3900
    271      6.7350     16.6960    -11.5600      1.5900     78.3900
    272      5.7540     16.0120     -9.6280      1.6800     78.3900
    273      6.1670     15.0960     -9.7740      0.0100     78.3900
    274      4.9370     16.1560     -8.5300      1.7700     78.3900
    275      4.7870     15.2250     -7.7430      1.5900     78.3900
    276      4.3420     17.4510     -8.4020      1.7700     78.3900
    277      3.7090     17.6520     -7.5440      0.0100     78.3900
    278      4.8170     19.0890    -12.6410      1.7700     78.3900
    279      4.4550     18.0490    -12.7810      0.0100     78.3900
    280      5.5360     19.5070    -13.7870      1.5900     78.3900
    281      4.8880     19.6660    -14.4910      0.0100     78.3900
    282      3.6590     20.0260    -12.3340      1.7700     78.3900
    283      2.9700     19.5700    -11.5800      0.0100     78.3900
    284      2.9820     20.5240    -13.5090      1.5900     78.3900
    285      1.5740     19.9610    -13.9130      2.1000     78.3900
    286      0.6020     20.2970    -12.8530      1.5900     78.3900
    287      1.2620     20.4440    -15.2750      1.5900     78.3900
    288      1.7760     18.3990    -13.9140      1.5900     78.3900
    289      2.4610     17.7320    -14.9960      1.7700     78.3900
    290      3.4900     18.1370    -15.1100      0.0100     78.3900
    291      1.9200     17.8930    -15.9570      0.0100     78.3900
    292      2.5630     16.2150    -14.7550      1.7700     78.3900
    293      3.1070     15.7110    -15.5830      0.0100     78.3900
    294      3.3060     15.9540    -13.5310      1.5900     78.3900
    295      2.7290     14.8410    -12.8650      1.7700     78.3900
    296      3.5550     14.1180    -12.7620      0.0100     78.3900
    297      2.2510     15.1960    -11.5330      1.6800     78.3900
    298      2.2560     14.3970    -10.4190      1.7700     78.3900
    299      2.9080     11.3720     -8.8730      1.6800     78.3900
    300      2.6510     10.9390     -8.0140      0.0100     78.3900
    301      3.2570     10.8110     -9.6270      0.0100     78.3900
    302      2.7090     13.1300    -10.3540      1.6800     78.3900
    303      2.5540     12.6150     -9.1320      1.7700     78.3900
    304      2.0900     13.3280     -8.0470      1.6800     78.3900
    305      1.9470     12.8450     -7.1800      0.0100     78.3900
    306      1.6100     14.6330     -8.1060      1.7700     78.3900
    307      1.1630     15.2260     -7.1180      1.5900     78.3900
    308      1.7330     15.1830     -9.4080      1.7700     78.3900
    309      1.4070     16.4520     -9.8800      1.6800     78.3900
    310      1.7300     16.4070    -11.1510      1.7700     78.3900
    311      1.6280     17.2270    -11.8640      0.0100     78.3900
    312      1.6410     14.2640    -13.7500      1.7700     78.3900
    313      0.7840     13.8480    -13.1740      0.0100     78.3900
    314      2.1920     13.2420    -14.5690      1.5900     78.3900
    315      2.1230     12.4100    -14.0630      0.0100     78.3900
    316      1.2200     15.5010    -14.5350      1.7700     78.3900
    317      0.6170     16.1730    -13.8760      0.0100     78.3900
    318      0.5830     15.2340    -15.8010      1.5900     78.3900
    319     -0.9780     15.3580    -15.9270      2.1000     78.3900
    320     -1.4250     16.7070    -15.5100      1.5900     78.3900
    321     -1.3960     14.9610    -17.2900      1.5900     78.3900
    322     -1.5860     14.3210    -14.9090      1.5900     78.3900
    323     -3.0310     14.2860    -14.7390      1.7700     78.3900
    324     -3.5870     14.6170    -15.6510      0.0100     78.3900
    325     -3.3330     14.9700    -13.9100      0.0100     78.3900
    326     -3.5270     12.8800    -14.3810      1.7700     78.3900
    327     -4.5890     12.9070    -14.0520      0.0100     78.3900
    328     -3.4770     12.0430    -15.5730      1.5900     78.3900
    329     -3.0210     10.7470    -15.2180      1.7700     78.3900
    330     -3.7850     10.0290    -15.5980      0.0100     78.3900
    331     -1.7360     10.4490    -15.8550      1.6800     78.3900
    332      0.0040      9.3890    -16.6710      1.7700     78.3900
    333      0.1380     10.7140    -17.0690      1.6800     78.3900
    334     -0.9130     11.3060    -16.5550      1.7700     78.3900
    335     -1.1460     12.3710    -16.6390      0.0100     78.3900
    336      0.3450      7.0590    -16.4110      1.6800     78.3900
    337     -0.7800      7.0520    -15.6920      1.7700     78.3900
    338     -1.0770      6.0770    -15.2930      0.0100     78.3900
    339     -1.5930      8.0690    -15.3870      1.6800     78.3900
    340     -1.1460      9.2150    -15.9260      1.7700     78.3900
    341      0.7760      8.2380    -16.9280      1.7700     78.3900
    342      1.8980      8.2560    -17.6640      1.6800     78.3900
    343      2.3020      9.1140    -17.9860      0.0100     78.3900
    344      2.4640      7.4320    -17.7080      0.0100     78.3900
    345     -2.9660     10.6650    -13.7100      1.7700     78.3900
    346     -2.1480     10.0090    -13.3450      0.0100     78.3900
    347     -4.2070     10.2070    -13.2070      1.5900     78.3900
    348     -4.1940     10.3540    -12.2510      0.0100     78.3900
    349     -2.7020     12.1130    -13.3300      1.7700     78.3900
    350     -1.6280     12.3580    -13.5070      0.0100     78.3900
    351     -3.1470     12.4610    -12.0060      1.5900     78.3900
    352     -2.1380     12.6620    -10.8190      2.1000     78.3900
    353     -1.0570     13.5720    -11.2470      1.5900     78.3900
    354     -2.9250     13.0480     -9.6300      1.5900     78.3900
    355     -1.5470     11.2220    -10.6030      1.5900     78.3900
    356     -2.3280     10.1520    -10.0250      1.7700     78.3900
    357     -3.3060     10.0350    -10.5460      0.0100     78.3900
    358     -2.5510     10.3750     -8.9600      0.0100     78.3900
    359     -1.5950      8.7980    -10.1120      1.7700     78.3900
    360     -2.2300      7.9770     -9.7080      0.0100     78.3900
    361     -1.3720      8.5040    -11.5240      1.5900     78.3900
    362     -0.0970      7.9200    -11.6990      1.7700     78.3900
    363     -0.2740      6.9600    -12.2370      0.0100     78.3900
    364      0.7780      8.7750    -12.5200      1.6800     78.3900
    365      2.3110      9.4740    -13.9360      1.7700     78.3900
    366      1.6240     10.6050    -13.5240      1.6800     78.3900
    367      0.7270     10.1420    -12.6900      1.7700     78.3900
    368     -0.0100     10.7590    -12.1780      0.0100     78.3900
    369      3.8510      8.0380    -15.0080      1.6800     78.3900
    370      3.2820      7.0450    -14.3210      1.7700     78.3900
    371      3.7080      6.0510    -14.4920      0.0100     78.3900
    372      2.2750      7.0880    -13.4410      1.6800     78.3900
    373      1.8140      8.3430    -13.3120      1.7700     78.3900
    374      3.3700      9.2960    -14.8490      1.7700     78.3900
    375      3.8910     10.3150    -15.5590      1.6800     78.3900
    376      3.5940     11.2600    -15.4330      0.0100     78.3900
    377      4.7020     10.1530    -16.1260      0.0100     78.3900
    378      0.4750      7.6330    -10.3250      1.7700     78.3900
    379      1.5780      7.7320    -10.2960      0.0100     78.3900
    380      0.1070      6.3300     -9.9010      1.5900     78.3900
    381      0.4020      6.2310     -8.9840      0.0100     78.3900
    382     -0.1870      8.7130     -9.4690      1.7700     78.3900
    383      0.3240      9.6900     -9.6310      0.0100     78.3900
    384     -0.2410      8.3390     -8.0750      1.5900     78.3900
    385     -0.5010      9.3960     -6.9490      2.1000     78.3900
    386      0.2860     10.6220     -7.2150      1.5900     78.3900
    387     -1.9620      9.5410     -6.7900      1.5900     78.3900
    388      0.0340      8.7010     -5.6560      1.5900     78.3900
    389      1.3690      8.9150     -5.1660      1.7700     78.3900
    390      1.9410      9.6890     -5.7390      0.0100     78.3900
    391      1.9340      7.9590     -5.2460      0.0100     78.3900
    392      1.3400      9.3550     -3.7050      1.7700     78.3900
    393      0.7480     10.2860     -3.5730      0.0100     78.3900
    394      0.7550      8.3180     -2.8600      1.5900     78.3900
    395      1.4600      8.2730     -1.6290      1.7700     78.3900
    396      0.6940      8.4550     -0.8400      0.0100     78.3900
    397      2.1250      6.9560     -1.4090      1.6800     78.3900
    398      2.4690      6.1420     -2.4680      1.7700     78.3900
    399      2.2150      6.5250     -3.4610      0.0100     78.3900
    400      2.3960      6.5780     -0.1110      1.7700     78.3900
    401      2.1390      7.2910      0.8510      1.5900     78.3900
    402      2.9680      5.3390      0.0270      1.6800     78.3900
    403      3.1870      5.0590      0.9770      0.0100     78.3900
    404      3.2750      4.4440     -0.9760      1.7700     78.3900
    405      3.7320      3.3360     -0.6990      1.5900     78.3900
    406      3.0230      4.9310     -2.2990      1.7700     78.3900
    407      3.2580      4.2880     -3.1440      0.0100     78.3900
    408      2.4480      9.4290     -1.6390      1.7700     78.3900
    409      3.3630      9.2090     -1.0560      0.0100     78.3900
    410      1.8330     10.5950     -1.1330      1.5900     78.3900
    411      2.4790     11.3080     -1.2140      0.0100     78.3900
    412      2.7450      9.5720     -3.1260      1.7700     78.3900
    413      3.3850      8.7290     -3.4790      0.0100     78.3900
    414      3.2420     10.8620     -3.5400      1.5900     78.3900
    415      4.7830     11.1670     -3.5340      2.1000     78.3900
    416      5.4830     10.0440     -4.1890      1.5900     78.3900
    417      5.0020     12.5150     -4.0850      1.5900     78.3900
    418      5.1660     11.1430     -2.0090      1.5900     78.3900
    419      4.8020     12.2250     -1.1250      1.7700     78.3900
    420      3.7080     12.4210     -1.1610      0.0100     78.3900
    421      5.3180     13.1610     -1.4300      0.0100     78.3900
    422      5.1930     11.9310      0.3340      1.7700     78.3900
    423      4.8580     12.7510      1.0030      0.0100     78.3900
    424      4.5380     10.7130      0.7860      1.5900     78.3900
    425      5.4130      9.9910      1.6380      1.7700     78.3900
    426      4.8500      9.8700      2.5940      0.0100     78.3900
    427      5.7610      8.6370      1.1050      1.6800     78.3900
    428      5.7070      8.3890     -0.2470      1.7700     78.3900
    429      5.3840      9.2200     -0.8690      0.0100     78.3900
    430      5.9800      7.1780     -0.7510      1.7700     78.3900
    431      5.8870      6.9560     -1.8120      0.0100     78.3900
    432      6.2010      7.6360      1.9650      1.7700     78.3900
    433      6.3230      7.8910      3.1740      1.5900     78.3900
    434      6.4830      6.4050      1.4780      1.6800     78.3900
    435      6.3700      6.1560      0.1610      1.7700     78.3900
    436      6.6110      4.9250     -0.2950      1.6800     78.3900
    437      6.9020      4.2110      0.3470      0.0100     78.3900
    438      6.5530      4.6950     -1.2670      0.0100     78.3900
    439      6.6310     10.8640      1.8850      1.7700     78.3900
    440      7.5540     10.2700      2.0320      0.0100     78.3900
    441      6.4140     11.6840      3.0170      1.5900     78.3900
    442      7.1650     12.2880      3.0770      0.0100     78.3900
    443      6.6880     11.6840      0.5960      1.7700     78.3900
    444      7.0460     11.0460     -0.2430      0.0100     78.3900
    445      7.3890     12.9500      0.6960      1.5900     78.3900
    446      8.8980     13.0410      0.2460      2.1000     78.3900
    447      9.0850     12.2950     -1.0120      1.5900     78.3900
    448      9.3070     14.4610      0.2480      1.5900     78.3900
    449      9.6590     12.2590      1.3730      1.5900     78.3900
    450      9.8300     12.8360      2.6820      1.7700     78.3900
    451      8.8490     13.0600      3.1550      0.0100     78.3900
    452     10.4110     13.7850      2.6220      0.0100     78.3900
    453     10.5930     11.8720      3.5960      1.7700     78.3900
    454     10.7540     12.3220      4.5990      0.0100     78.3900
    455      9.8100     10.6550      3.7810      1.5900     78.3900
    456     10.6890      9.5440      3.8480      1.7700     78.3900
    457     10.4890      9.0450      4.8240      0.0100     78.3900
    458     10.4280      8.5930      2.7590      1.6800     78.3900
    459     10.2880      6.7700      1.5350      1.7700     78.3900
    460      9.6490      7.7720      0.8160      1.6800     78.3900
    461      9.7670      8.8310      1.5770      1.7700     78.3900
    462      9.3880      9.8260      1.3340      0.0100     78.3900
    463     11.2030      4.6870      2.1940      1.6800     78.3900
    464     11.6440      5.3150      3.2900      1.7700     78.3900
    465     12.2250      4.7040      3.9900      0.0100     78.3900
    466     11.4840      6.5910      3.6540      1.6800     78.3900
    467     10.7790      7.2660      2.7310      1.7700     78.3900
    468     10.5050      5.4000      1.2730      1.7700     78.3900
    469     10.0490      4.7730      0.1730      1.6800     78.3900
    470      9.6080      5.2770     -0.5720      0.0100     78.3900
    471     10.2340      3.7960      0.0320      0.0100     78.3900
    472     12.1110     10.0770      3.8390      1.7700     78.3900
    473     12.8110      9.3900      3.3190      0.0100     78.3900
    474     12.5450     10.2970      5.1700      1.5900     78.3900
    475     13.3700     10.8130      5.1490      0.0100     78.3900
    476     11.9480     11.3790      3.0620      1.7700     78.3900
    477     11.8500     11.1740      1.9720      0.0100     78.3900
    478     12.9840     12.3480      3.3050      1.5900     78.3900
    479     13.8220     12.0320      2.9290      0.0100     78.3900
    480     12.5610     -4.7880      1.2090      0.0100     78.3900
    481     12.5640     -4.0040      1.7890      1.5900     78.3900
    482     13.5860     -4.2120      2.7750      1.7700     78.3900
    483     14.5610     -4.3820      2.2670      0.0100     78.3900
    484     13.3540     -5.1380      3.3460      0.0100     78.3900
    485     13.7390     -3.0360      3.7490      1.7700     78.3900
    486     14.4440     -3.3010      4.5670      0.0100     78.3900
    487     14.3040     -1.8820      3.0510      1.5900     78.3900
    488     13.6990     -0.6930      3.5430      1.7700     78.3900
    489     14.5310     -0.0320      3.8850      0.0100     78.3900
    490     12.8900     -0.0030      2.4960      1.6800     78.3900
    491     12.4510     -0.6680      1.3700      1.7700     78.3900
    492     12.7480     -1.7140      1.2930      0.0100     78.3900
    493     12.5690      1.3200      2.6980      1.7700     78.3900
    494     12.9250      1.9390      3.6940      1.5900     78.3900
    495     11.8300      1.8990      1.7010      1.6800     78.3900
    496     11.5920      2.8730      1.8480      0.0100     78.3900
    497     11.3870      1.3120      0.5360      1.7700     78.3900
    498     10.7550      1.9760     -0.2860      1.5900     78.3900
    499     11.7330     -0.0720      0.4060      1.7700     78.3900
    500     11.4200     -0.6120     -0.4840      0.0100     78.3900
    501     12.8570     -1.0890      4.7410      1.7700     78.3900
    502     11.9730     -0.4340      4.8710      0.0100     78.3900
    503     13.6410     -1.0640      5.9170      1.5900     78.3900
    504     13.0570     -1.3430      6.6340      0.0100     78.3900
    505     12.4380     -2.5100      4.3760      1.7700     78.3900
    506     11.6650     -2.4930      3.5750      0.0100     78.3900
    507     12.0590     -3.3500      5.4870      1.5900     78.3900
    508     10.5740     -3.3520      6.0060      2.1000     78.3900
    509      9.6550     -3.5650      4.8660      1.5900     78.3900
    510     10.4940     -4.3250      7.1180      1.5900     78.3900
    511     10.3630     -1.8990      6.5620      1.5900     78.3900
    512     10.9410     -1.4950      7.8240      1.7700     78.3900
    513     12.0460     -1.6170      7.8210      0.0100     78.3900
    514     10.5540     -2.1200      8.6590      0.0100     78.3900
    515     10.6140     -0.0280      8.1250      1.7700     78.3900
    516     11.1040      0.3060      9.0640      0.0100     78.3900
    517     11.1120      0.8210      7.0490      1.5900     78.3900
    518     10.1920      1.8830      6.8290      1.7700     78.3900
    519     10.7650      2.8310      6.9410      0.0100     78.3900
    520      9.6150      1.8360      5.4800      1.6800     78.3900
    521      9.0120      2.8720      4.8190      1.7700     78.3900
    522      7.9010      6.1490      4.7200      1.6800     78.3900
    523      8.1610      6.5010      5.6180      0.0100     78.3900
    524      7.3410      6.7260      4.1170      0.0100     78.3900
    525      8.8260      4.1190      5.2980      1.6800     78.3900
    526      8.1980      4.9010      4.4240      1.7700     78.3900
    527      7.7990      4.4780      3.1860      1.6800     78.3900
    528      7.3320      5.1380      2.5820      0.0100     78.3900
    529      7.9990      3.2110      2.6580      1.7700     78.3900
    530      7.6110      2.9250      1.5230      1.5900     78.3900
    531      8.6450      2.3580      3.5890      1.7700     78.3900
    532      8.9930      1.0170      3.4860      1.6800     78.3900
    533      9.5610      0.7510      4.6370      1.7700     78.3900
    534      9.9660     -0.2160      4.9330      0.0100     78.3900
    535      9.1330      1.7980      7.9020      1.7700     78.3900
    536      8.1370      2.1470      7.5530      0.0100     78.3900
    537      9.5420      2.5480      9.0280      1.5900     78.3900
    538      8.9190      2.3480      9.7380      0.0100     78.3900
    539      9.1140      0.3040      8.2060      1.7700     78.3900
    540      8.6200     -0.2560      7.3750      0.0100     78.3900
    541      8.5900     -0.0420      9.5140      1.5900     78.3900
    542      7.0480     -0.3320      9.6540      2.1000     78.3900
    543      6.6360     -1.2730      8.5940      1.5900     78.3900
    544      6.7870     -0.7560     11.0460      1.5900     78.3900
    545      6.3640      1.0510      9.3710      1.5900     78.3900
    546      6.4380      2.1550     10.2970      1.7700     78.3900
    547      7.4920      2.4060     10.5490      0.0100     78.3900
    548      5.9220      1.9030     11.2520      0.0100     78.3900
    549      5.7760      3.4130      9.7150      1.7700     78.3900
    550      5.8980      4.2700     10.4110      0.0100     78.3900
    551      6.4070      3.7940      8.4540      1.5900     78.3900
    552      5.4250      4.3690      7.6020      1.7700     78.3900
    553      5.7760      5.4010      7.3640      0.0100     78.3900
    554      5.2770      3.6260      6.3470      1.6800     78.3900
    555      4.8350      3.0890      4.2600      1.7700     78.3900
    556      5.4220      1.9700      4.8370      1.6800     78.3900
    557      5.6560      2.3350      6.0750      1.7700     78.3900
    558      6.1120      1.7080      6.8450      0.0100     78.3900
    559      3.8250      4.5780      2.7170      1.6800     78.3900
    560      3.8020      5.4680      3.7140      1.7700     78.3900
    561      3.3790      6.4490      3.4650      0.0100     78.3900
    562      4.2350      5.3400      4.9730      1.6800     78.3900
    563      4.7390      4.1150      5.1820      1.7700     78.3900
    564      4.3570      3.3530      2.9550      1.7700     78.3900
    565      4.4150      2.4620      1.9480      1.6800     78.3900
    566      4.8190      1.5510      2.0780      0.0100     78.3900
    567      4.1910      2.7420      1.0100      0.0100     78.3900
    568      4.1360      4.4460      8.3870      1.7700     78.3900
    569      3.2390      4.3130      7.7500      0.0100     78.3900
    570      4.0750      5.6850      9.0640      1.5900     78.3900
    571      3.3020      5.6400      9.6370      0.0100     78.3900
    572      4.2860      3.2910      9.3730      1.7700     78.3900
    573      4.1620      2.3100      8.8600      0.0100     78.3900
    574      3.4800      3.4100     10.5720      1.5900     78.3900
    575      2.0370      2.7540     10.5770      2.1000     78.3900
    576      2.1410      1.3430     10.1450      1.5900     78.3900
    577      1.4160      2.9830     11.8990      1.5900     78.3900
    578      1.2240      3.5360      9.4870      1.5900     78.3900
    579      0.7720      4.8930      9.6960      1.7700     78.3900
    580      1.6040      5.5610     10.0170      0.0100     78.3900
    581     -0.0020      4.9290     10.4950      0.0100     78.3900
    582      0.1520      5.4740      8.4200      1.7700     78.3900
    583     -0.1430      6.5330      8.5750      0.0100     78.3900
    584      1.1270      5.4580      7.3410      1.5900     78.3900
    585      0.4770      5.1350      6.1220      1.7700     78.3900
    586      0.7360      5.9420      5.3990      0.0100     78.3900
    587      0.9320      3.8410      5.5840      1.6800     78.3900
    588      0.8300      3.4330      4.2830      1.7700     78.3900
    589     -0.1180      4.0420      1.0120      1.6800     78.3900
    590     -0.5970      4.9160      1.0890      0.0100     78.3900
    591     -0.1830      3.5240      0.1530      0.0100     78.3900
    592      0.2790      4.1360      3.2780      1.6800     78.3900
    593      0.3680      3.5030      2.1130      1.7700     78.3900
    594      0.9370      2.2670      1.9700      1.6800     78.3900
    595      0.9420      1.8490      1.0520      0.0100     78.3900
    596      1.5000      1.5090      2.9900      1.7700     78.3900
    597      1.9970      0.4010      2.7680      1.5900     78.3900
    598      1.4070      2.1770      4.2400      1.7700     78.3900
    599      1.8400      1.7890      5.5010      1.6800     78.3900
    600      1.5280      2.8050      6.2680      1.7700     78.3900
    601      1.7210      2.8650      7.3380      0.0100     78.3900
    602     -1.0090      5.1480      6.3900      1.7700     78.3900
    603     -1.5660      4.4430      5.7420      0.0100     78.3900
    604     -1.5240      6.4560      6.2150      1.5900     78.3900
    605     -2.4410      6.4240      6.5150      0.0100     78.3900
    606     -1.0580      4.7180      7.8510      1.7700     78.3900
    607     -0.8270      3.6320      7.9530      0.0100     78.3900
    608     -2.2570      5.1120      8.5510      1.5900     78.3900
    609     -3.4650      4.1140      8.6640      2.1000     78.3900
    610     -2.9700      2.7360      8.8620      1.5900     78.3900
    611     -4.4110      4.6320      9.6760      1.5900     78.3900
    612     -4.1500      4.1630      7.2550      1.5900     78.3900
    613     -4.8200      5.3290      6.7420      1.7700     78.3900
    614     -4.1890      6.2430      6.8430      0.0100     78.3900
    615     -5.7560      5.5140      7.3160      0.0100     78.3900
    616     -5.1750      5.1300      5.2600      1.7700     78.3900
    617     -5.7080      6.0220      4.8600      0.0100     78.3900
    618     -3.9410      4.9750      4.4930      1.5900     78.3900
    619     -4.1480      4.0320      3.4530      1.7700     78.3900
    620     -3.8820      4.5460      2.5010      0.0100     78.3900
    621     -3.2980      2.8460      3.6240      1.6800     78.3900
    622     -2.1000      1.0360      3.2710      1.7700     78.3900
    623     -2.0070      1.3030      4.6320      1.6800     78.3900
    624     -2.7500      2.3690      4.7910      1.7700     78.3900
    625     -2.9220      2.8730      5.7420      0.0100     78.3900
    626     -1.8240      0.0510      1.1360      1.6800     78.3900
    627     -2.6000      1.0350      0.6670      1.7700     78.3900
    628     -2.7800      1.0120     -0.4130      0.0100     78.3900
    629     -3.1800      2.0430      1.3300      1.6800     78.3900
    630     -2.8900      1.9810      2.6400      1.7700     78.3900
    631     -1.5440      0.0230      2.4650      1.7700     78.3900
    632     -0.7280     -0.9340      2.9460      1.6800     78.3900
    633     -0.4410     -0.9590      3.9090      0.0100     78.3900
    634     -0.2760     -1.5710      2.3150      0.0100     78.3900
    635     -5.6170      3.6820      3.4440      1.7700     78.3900
    636     -5.8060      2.6450      3.1040      0.0100     78.3900
    637     -6.3190      4.5880      2.6170      1.5900     78.3900
    638     -7.2580      4.3910      2.7210      0.0100     78.3900
    639     -5.9890      3.8630      4.9130      1.7700     78.3900
    640     -5.5730      3.0330      5.5310      0.0100     78.3900
    641     -7.3980      4.0830      5.1550      1.5900     78.3900
    642     -8.3460      2.8510      5.4370      2.1000     78.3900
    643     -7.7270      1.9840      6.4620      1.5900     78.3900
    644     -9.6950      3.3700      5.7440      1.5900     78.3900
    645     -8.4010      2.0720      4.0690      1.5900     78.3900
    646     -9.1070      2.6480      2.9420      1.7700     78.3900
    647     -8.7590      3.6840      2.7340      0.0100     78.3900
    648    -10.2010      2.6970      3.1460      0.0100     78.3900
    649     -8.9000      1.8140      1.6680      1.7700     78.3900
    650     -9.4350      2.2650      0.8060      0.0100     78.3900
    651     -7.4850      1.7690      1.3290      1.5900     78.3900
    652     -7.1660      0.4840      0.8150      1.7700     78.3900
    653     -6.7070      0.6390     -0.1860      0.0100     78.3900
    654     -6.2060     -0.2230      1.6770      1.6800     78.3900
    655     -5.4050     -1.2680      1.3030      1.7700     78.3900
    656     -4.3750     -3.6110     -1.0380      1.6800     78.3900
    657     -4.9100     -3.3860     -1.8500      0.0100     78.3900
    658     -3.7830     -4.4210     -1.0550      0.0100     78.3900
    659     -5.3710     -1.8420      0.0850      1.6800     78.3900
    660     -4.5170     -2.8700      0.0420      1.7700     78.3900
    661     -3.7420     -3.2460      1.1050      1.6800     78.3900
    662     -3.1310     -4.0400      0.9900      0.0100     78.3900
    663     -3.7440     -2.6630      2.3610      1.7700     78.3900
    664     -3.0090     -3.0830      3.2600      1.5900     78.3900
    665     -4.6740     -1.5930      2.4330      1.7700     78.3900
    666     -5.0190     -0.7770      3.5030      1.6800     78.3900
    667     -5.9380      0.0170      3.0070      1.7700     78.3900
    668     -6.4660      0.7940      3.5610      0.0100     78.3900
    669     -8.4640     -0.2790      0.6630      1.7700     78.3900
    670     -8.3320     -1.3680      0.8120      0.0100     78.3900
    671     -9.0230     -0.0510     -0.6170      1.5900     78.3900
    672     -9.8810     -0.4940     -0.6250      0.0100     78.3900
    673     -9.3100      0.3380      1.7700      1.7700     78.3900
    674     -8.9600     -0.0180      2.7670      0.0100     78.3900
    675    -10.7370      0.2110      1.5880      1.5900     78.3900
    676    -11.5110     -0.9450      2.3230      2.1000     78.3900
    677    -10.9810     -1.1030      3.6910      1.5900     78.3900
    678    -12.9620     -0.7120      2.1880      1.5900     78.3900
    679    -11.1220     -2.2170      1.4880      1.5900     78.3900
    680    -11.5600     -2.3830      0.1210      1.7700     78.3900
    681    -11.2840     -1.5060     -0.5090      0.0100     78.3900
    682    -12.6690     -2.4890      0.0810      0.0100     78.3900
    683    -10.9390     -3.6450     -0.4990      1.7700     78.3900
    684    -11.3130     -3.8020     -1.5320      0.0100     78.3900
    685     -9.4900     -3.4940     -0.5860      1.5900     78.3900
    686     -8.8680     -4.7440     -0.2830      1.7700     78.3900
    687     -8.2300     -4.9890     -1.1650      0.0100     78.3900
    688     -8.0040     -4.6840      0.9340      1.6800     78.3900
    689     -8.2130     -3.7120      1.8810      1.7700     78.3900
    690     -9.0050     -3.0000      1.6620      0.0100     78.3900
    691     -7.4550     -3.6240      2.9800      1.7700     78.3900
    692     -7.5840     -2.8290      3.7120      0.0100     78.3900
    693     -7.0220     -5.6470      1.1480      1.7700     78.3900
    694     -6.8750     -6.5550      0.3160      1.5900     78.3900
    695     -6.2450     -5.5800      2.2550      1.6800     78.3900
    696     -6.4380     -4.6040      3.1600      1.7700     78.3900
    697     -5.6480     -4.5470      4.2320      1.6800     78.3900
    698     -4.9390     -5.2430      4.3620      0.0100     78.3900
    699     -5.7260     -3.8200      4.9160      0.0100     78.3900
    700     -9.9670     -5.7890     -0.1630      1.7700     78.3900
    701     -9.7200     -6.5660      0.5910      0.0100     78.3900
    702    -10.2100     -6.4070     -1.4180      1.5900     78.3900
    703    -11.0460     -6.9050     -1.3650      0.0100     78.3900
    704    -11.1430     -4.9390      0.3050      1.7700     78.3900
    705    -11.0350     -4.7010      1.3860      0.0100     78.3900
    706    -12.4340     -5.5140      0.0340      1.5900     78.3900
    707    -12.5570     -6.3110      0.5810      0.0100     78.3900

     ----------------------------
     INPUT FOR TESSERA DEFINITION
     ----------------------------
     NTSALL  =        60     MTHALL  =         4
     MTHAUT  =         0     AUTFRE  =    2.0000
     NTSFRZ  =        60     KEEPSM  =         0
     AREAKP  =   10.0000     BONDRY  =    1.0000
     AREATL  =    0.0100

     SPHERE     INITS       METHOD
          1        60       FIXPVA
          2        60       FIXPVA
          3        60       FIXPVA
          4        60       FIXPVA
          5        60       FIXPVA
          6        60       FIXPVA
          7        60       FIXPVA
          8        60       FIXPVA
          9        60       FIXPVA
         10        60       FIXPVA
         11        60       FIXPVA
         12        60       FIXPVA
         13        60       FIXPVA
         14        60       FIXPVA
         15        60       FIXPVA
         16        60       FIXPVA
         17        60       FIXPVA
         18        60       FIXPVA
         19        60       FIXPVA
         20        60       FIXPVA
         21        60       FIXPVA
         22        60       FIXPVA
         23        60       FIXPVA
         24        60       FIXPVA
         25        60       FIXPVA
         26        60       FIXPVA
         27        60       FIXPVA
         28        60       FIXPVA
         29        60       FIXPVA
         30        60       FIXPVA
         31        60       FIXPVA
         32        60       FIXPVA
         33        60       FIXPVA
         34        60       FIXPVA
         35        60       FIXPVA
         36        60       FIXPVA
         37        60       FIXPVA
         38        60       FIXPVA
         39        60       FIXPVA
         40        60       FIXPVA
         41        60       FIXPVA
         42        60       FIXPVA
         43        60       FIXPVA
         44        60       FIXPVA
         45        60       FIXPVA
         46        60       FIXPVA
         47        60       FIXPVA
         48        60       FIXPVA
         49        60       FIXPVA
         50        60       FIXPVA
         51        60       FIXPVA
         52        60       FIXPVA
         53        60       FIXPVA
         54        60       FIXPVA
         55        60       FIXPVA
         56        60       FIXPVA
         57        60       FIXPVA
         58        60       FIXPVA
         59        60       FIXPVA
         60        60       FIXPVA
         61        60       FIXPVA
         62        60       FIXPVA
         63        60       FIXPVA
         64        60       FIXPVA
         65        60       FIXPVA
         66        60       FIXPVA
         67        60       FIXPVA
         68        60       FIXPVA
         69        60       FIXPVA
         70        60       FIXPVA
         71        60       FIXPVA
         72        60       FIXPVA
         73        60       FIXPVA
         74        60       FIXPVA
         75        60       FIXPVA
         76        60       FIXPVA
         77        60       FIXPVA
         78        60       FIXPVA
         79        60       FIXPVA
         80        60       FIXPVA
         81        60       FIXPVA
         82        60       FIXPVA
         83        60       FIXPVA
         84        60       FIXPVA
         85        60       FIXPVA
         86        60       FIXPVA
         87        60       FIXPVA
         88        60       FIXPVA
         89        60       FIXPVA
         90        60       FIXPVA
         91        60       FIXPVA
         92        60       FIXPVA
         93        60       FIXPVA
         94        60       FIXPVA
         95        60       FIXPVA
         96        60       FIXPVA
         97        60       FIXPVA
         98        60       FIXPVA
         99        60       FIXPVA
        100        60       FIXPVA
        101        60       FIXPVA
        102        60       FIXPVA
        103        60       FIXPVA
        104        60       FIXPVA
        105        60       FIXPVA
        106        60       FIXPVA
        107        60       FIXPVA
        108        60       FIXPVA
        109        60       FIXPVA
        110        60       FIXPVA
        111        60       FIXPVA
        112        60       FIXPVA
        113        60       FIXPVA
        114        60       FIXPVA
        115        60       FIXPVA
        116        60       FIXPVA
        117        60       FIXPVA
        118        60       FIXPVA
        119        60       FIXPVA
        120        60       FIXPVA
        121        60       FIXPVA
        122        60       FIXPVA
        123        60       FIXPVA
        124        60       FIXPVA
        125        60       FIXPVA
        126        60       FIXPVA
        127        60       FIXPVA
        128        60       FIXPVA
        129        60       FIXPVA
        130        60       FIXPVA
        131        60       FIXPVA
        132        60       FIXPVA
        133        60       FIXPVA
        134        60       FIXPVA
        135        60       FIXPVA
        136        60       FIXPVA
        137        60       FIXPVA
        138        60       FIXPVA
        139        60       FIXPVA
        140        60       FIXPVA
        141        60       FIXPVA
        142        60       FIXPVA
        143        60       FIXPVA
        144        60       FIXPVA
        145        60       FIXPVA
        146        60       FIXPVA
        147        60       FIXPVA
        148        60       FIXPVA
        149        60       FIXPVA
        150        60       FIXPVA
        151        60       FIXPVA
        152        60       FIXPVA
        153        60       FIXPVA
        154        60       FIXPVA
        155        60       FIXPVA
        156        60       FIXPVA
        157        60       FIXPVA
        158        60       FIXPVA
        159        60       FIXPVA
        160        60       FIXPVA
        161        60       FIXPVA
        162        60       FIXPVA
        163        60       FIXPVA
        164        60       FIXPVA
        165        60       FIXPVA
        166        60       FIXPVA
        167        60       FIXPVA
        168        60       FIXPVA
        169        60       FIXPVA
        170        60       FIXPVA
        171        60       FIXPVA
        172        60       FIXPVA
        173        60       FIXPVA
        174        60       FIXPVA
        175        60       FIXPVA
        176        60       FIXPVA
        177        60       FIXPVA
        178        60       FIXPVA
        179        60       FIXPVA
        180        60       FIXPVA
        181        60       FIXPVA
        182        60       FIXPVA
        183        60       FIXPVA
        184        60       FIXPVA
        185        60       FIXPVA
        186        60       FIXPVA
        187        60       FIXPVA
        188        60       FIXPVA
        189        60       FIXPVA
        190        60       FIXPVA
        191        60       FIXPVA
        192        60       FIXPVA
        193        60       FIXPVA
        194        60       FIXPVA
        195        60       FIXPVA
        196        60       FIXPVA
        197        60       FIXPVA
        198        60       FIXPVA
        199        60       FIXPVA
        200        60       FIXPVA
        201        60       FIXPVA
        202        60       FIXPVA
        203        60       FIXPVA
        204        60       FIXPVA
        205        60       FIXPVA
        206        60       FIXPVA
        207        60       FIXPVA
        208        60       FIXPVA
        209        60       FIXPVA
        210        60       FIXPVA
        211        60       FIXPVA
        212        60       FIXPVA
        213        60       FIXPVA
        214        60       FIXPVA
        215        60       FIXPVA
        216        60       FIXPVA
        217        60       FIXPVA
        218        60       FIXPVA
        219        60       FIXPVA
        220        60       FIXPVA
        221        60       FIXPVA
        222        60       FIXPVA
        223        60       FIXPVA
        224        60       FIXPVA
        225        60       FIXPVA
        226        60       FIXPVA
        227        60       FIXPVA
        228        60       FIXPVA
        229        60       FIXPVA
        230        60       FIXPVA
        231        60       FIXPVA
        232        60       FIXPVA
        233        60       FIXPVA
        234        60       FIXPVA
        235        60       FIXPVA
        236        60       FIXPVA
        237        60       FIXPVA
        238        60       FIXPVA
        239        60       FIXPVA
        240        60       FIXPVA
        241        60       FIXPVA
        242        60       FIXPVA
        243        60       FIXPVA
        244        60       FIXPVA
        245        60       FIXPVA
        246        60       FIXPVA
        247        60       FIXPVA
        248        60       FIXPVA
        249        60       FIXPVA
        250        60       FIXPVA
        251        60       FIXPVA
        252        60       FIXPVA
        253        60       FIXPVA
        254        60       FIXPVA
        255        60       FIXPVA
        256        60       FIXPVA
        257        60       FIXPVA
        258        60       FIXPVA
        259        60       FIXPVA
        260        60       FIXPVA
        261        60       FIXPVA
        262        60       FIXPVA
        263        60       FIXPVA
        264        60       FIXPVA
        265        60       FIXPVA
        266        60       FIXPVA
        267        60       FIXPVA
        268        60       FIXPVA
        269        60       FIXPVA
        270        60       FIXPVA
        271        60       FIXPVA
        272        60       FIXPVA
        273        60       FIXPVA
        274        60       FIXPVA
        275        60       FIXPVA
        276        60       FIXPVA
        277        60       FIXPVA
        278        60       FIXPVA
        279        60       FIXPVA
        280        60       FIXPVA
        281        60       FIXPVA
        282        60       FIXPVA
        283        60       FIXPVA
        284        60       FIXPVA
        285        60       FIXPVA
        286        60       FIXPVA
        287        60       FIXPVA
        288        60       FIXPVA
        289        60       FIXPVA
        290        60       FIXPVA
        291        60       FIXPVA
        292        60       FIXPVA
        293        60       FIXPVA
        294        60       FIXPVA
        295        60       FIXPVA
        296        60       FIXPVA
        297        60       FIXPVA
        298        60       FIXPVA
        299        60       FIXPVA
        300        60       FIXPVA
        301        60       FIXPVA
        302        60       FIXPVA
        303        60       FIXPVA
[...]
   655   21   6.0   0.00    0.0    0.000000    0.714604    0.719111
   656   21   7.0   8.56   16.8   -0.091909   -0.970775   -1.052475
   657   21   1.0   0.00    0.0    0.000000    0.440918    0.435748
   658   21   1.0   0.00    0.0    0.000000    0.475427    0.524773
   659   21   7.0   5.38   10.5    0.090686   -0.763712   -0.766817
   660   21   6.0   0.00    0.0    0.000000    0.990214    0.989180
   661   21   7.0   0.00    0.0    0.000000   -0.928842   -1.021200
   662   21   1.0   0.00    0.0    0.000000    0.481972    0.545607
   663   21   6.0   0.00    0.0    0.000000    0.892508    0.907349
   664   21   8.0   5.62   12.3    0.116185   -0.757168   -0.748964
   665   21   6.0   0.00    0.0    0.000000   -0.064459   -0.057687
   666   21   7.0   7.07   13.8    0.137432   -0.588247   -0.593986
   667   21   6.0   3.69    6.5    0.009225    0.263789    0.258963
   668   21   1.0   0.00    0.0    0.000000    0.266857    0.283774
   669   21   6.0   0.71    1.3    0.011401    0.142348    0.102826
   670   21   1.0   0.00    0.0    0.000000    0.179456    0.219414
   671   21   8.0  16.80   36.7    0.095734   -0.822433   -0.841187
   672   21   1.0   0.00    0.0    0.000000    0.497653    0.522173
   673   21   6.0   0.45    0.8   -0.004834    0.144588    0.112588
   674   21   1.0   0.00    0.0    0.000000    0.241857    0.244482
   675   21   8.0   4.03    8.8    0.054566   -0.792893   -0.799996
   676   21  15.0   9.31   11.7    0.111380    1.598719    1.653083
   677   21   8.0  14.10   30.8    0.315626   -0.891024   -0.890156
   678   21   8.0  18.31   40.0    0.362505   -0.890171   -0.885989
   679   21   8.0   2.29    5.0    0.035290   -0.975430   -0.788237
   680   22   6.0  12.67   22.3   -0.098140    0.206331   -0.030577
   681   22   1.0   0.00    0.0    0.000000    0.161709    0.179274
   682   22   1.0   0.00    0.0    0.000000    0.243249    0.228339
   683   22   6.0   5.68   10.0   -0.046379    0.084636    0.149695
   684   22   1.0   0.00    0.0    0.000000    0.252241    0.226318
   685   22   8.0   4.66   10.2    0.049454   -0.728513   -0.737395
   686   22   6.0   4.75    8.4   -0.046260    0.418184    0.416445
   687   22   1.0   0.00    0.0    0.000000    0.255784    0.251734
   688   22   7.0   0.00    0.0    0.000000   -0.822990   -0.832939
   689   22   6.0   2.32    4.1   -0.003712    0.190741    0.173185
   690   22   1.0   0.00    0.0    0.000000    0.301307    0.328979
   691   22   6.0   8.53   15.0   -0.042433   -0.388950   -0.402832
   692   22   1.0   0.00    0.0    0.000000    0.274790    0.277970
   693   22   6.0   2.69    4.7    0.000840    1.068189    1.076685
   694   22   8.0   8.62   18.8    0.136653   -0.799705   -0.766164
   695   22   7.0   1.47    2.9    0.015782   -0.869539   -0.862367
   696   22   6.0   2.03    3.6    0.001394    0.719512    0.728837
   697   22   7.0  14.43   28.3   -0.094643   -0.944606   -0.997443
   698   22   1.0   0.00    0.0    0.000000    0.461589    0.500890
   699   22   1.0   0.00    0.0    0.000000    0.452546    0.449457
   700   22   6.0   6.44   11.4   -0.053417    0.124282    0.125277
   701   22   1.0   0.00    0.0    0.000000    0.224080    0.223112
   702   22   8.0  21.89   47.9    0.049931   -0.840115   -0.841335
   703   22   1.0   0.00    0.0    0.000000    0.501574    0.502741
   704   22   6.0   6.26   11.0   -0.065167    0.157708    0.141313
   705   22   1.0   0.00    0.0    0.000000    0.224079    0.226347
   706   22   8.0  22.88   50.0   -0.012999   -0.850446   -0.853241
   707   22   1.0   0.00    0.0    0.000000    0.509131    0.509187

 Done with FMO properties.
 CPU     0: STEP CPU TIME=     0.01 TOTAL CPU TIME=      42679.0 (    711.3 MIN)
 TOTAL WALL CLOCK TIME=      95795.0 SECONDS, CPU UTILIZATION IS    44.55%
 CPU     0: STEP CPU TIME=     0.00 TOTAL CPU TIME=      42679.0 (    711.3 MIN)
 TOTAL WALL CLOCK TIME=      95795.0 SECONDS, CPU UTILIZATION IS    44.55%

 Total timing statistics in pairs (CPU,wall) for each rank, sec

    Rank   total     SCF    corr     DFT    CPHF     EFP    solv     ESP    geom
 -------------------------------------------------------------------------------
       1   42679.0  11130.2  15767.2      0.0    0.0   0.0  624.5 13785.1    0.0
       1   95795.1  23674.8  39921.1      0.0    0.0   0.0 1545.9 27547.2    0.0
       2   42964.2  11002.6  16153.7      0.0    0.0   0.0  630.8 13795.6    0.0
       2   95795.1  23656.0  39926.6      0.0    0.0   0.0 1546.5 27545.7    0.0
       3   42114.7  11020.1  15453.8      0.0    0.0   0.0  631.7 13606.3    0.0
       3   95795.1  23656.8  39926.5      0.0    0.0   0.0 1545.9 27545.5    0.0
       4   41952.2  10948.6  15412.5      0.0    0.0   0.0  631.1 13577.2    0.0
       4   95795.1  23658.6  39926.5      0.0    0.0   0.0 1543.6 27545.2    0.0
       5   43625.0  11076.2  16743.4      0.0    0.0   0.0  629.4 13808.8    0.0
       5   95795.1  23657.3  39926.4      0.0    0.0   0.0 1545.6 27546.0    0.0
       6   42809.8  11058.7  16013.1      0.0    0.0   0.0  627.5 13726.5    0.0
       6   95795.1  23658.9  39926.4      0.0    0.0   0.0 1543.1 27545.7    0.0
       7   42282.3  11038.2  15558.3      0.0    0.0   0.0  627.4 13709.9    0.0
       7   95795.1  23658.6  39926.4      0.0    0.0   0.0 1543.5 27545.7    0.0
       8   41674.7  10953.3  15165.1      0.0    0.0   0.0  627.6 13592.7    0.0
       8   95795.1  23659.8  39926.3      0.0    0.0   0.0 1541.4 27545.6    0.0
       9   42310.1  11070.5  15730.9      0.0    0.0   0.0  614.6 13556.7    0.0
       9   95795.1  23660.6  39926.3      0.0    0.0   0.0 1542.1 27545.8    0.0
      10   42277.8  10996.9  15673.8      0.0    0.0   0.0  619.9 13630.8    0.0
      10   95795.1  23659.7  39926.4      0.0    0.0   0.0 1542.5 27545.4    0.0
      11   42504.5  11115.0  15900.0      0.0    0.0   0.0  618.8 13507.8    0.0
      11   95795.1  23661.0  39926.4      0.0    0.0   0.0 1541.6 27545.4    0.0
      12   42071.3  11038.9  15538.6      0.0    0.0   0.0  618.4 13535.5    0.0
      12   95795.1  23660.6  39926.3      0.0    0.0   0.0 1540.4 27545.4    0.0
      13   41819.0  11057.8  15424.8      0.0    0.0   0.0  614.3 13392.2    0.0
      13   95795.1  23662.0  39926.3      0.0    0.0   0.0 1541.3 27545.3    0.0
      14   42131.5  10985.0  15741.0      0.0    0.0   0.0  620.4 13457.7    0.0
      14   95795.1  23662.2  39926.3      0.0    0.0   0.0 1540.1 27545.0    0.0
      15   41808.2  11031.7  15587.9      0.0    0.0   0.0  615.4 13246.6    0.0
      15   95795.1  23662.7  39927.9      0.0    0.0   0.0 1539.3 27545.0    0.0
      16   42010.6  11060.4  15489.4      0.0    0.0   0.0  617.9 13465.9    0.0
      16   95795.1  23663.4  39926.2      0.0    0.0   0.0 1537.2 27545.0    0.0
averaged   42314.7  11036.5  15709.6      0.0    0.0   0.0  623.1 13587.2    0.0
averaged   95795.1  23660.8  39926.1      0.0    0.0   0.0 1542.5 27545.5    0.0

  FMO  timing statistics in pairs (CPU,wall) for each rank, sec

    Rank  FMOini FMOscf1  FMOdm1 FMOsyn1 FMOscf2  FMOes2 FMOsyn2 FMOscf3 FMOsyn3
 -------------------------------------------------------------------------------
       1    4.7   15277.2    0.7    0.0   26391.5    1004.9    0.0    0.0    0.0
       1   11.6   31935.2    1.7    0.0   61802.8    2043.3    0.0    0.0    0.0
       2    3.6   15258.1    0.1    0.0   26682.2    1020.3    0.0    0.0    0.0
       2   11.6   31935.2    1.7    0.0   61811.1    2034.9    0.0    0.0    0.0
       3    3.9   15226.4    0.3    0.0   25846.6    1037.6    0.0    0.0    0.0
       3   11.6   31935.2    1.7    0.0   61812.1    2034.0    0.0    0.0    0.0
       4    3.6   15299.4    0.1    0.0   25628.2    1020.8    0.0    0.0    0.0
       4   11.6   31935.2    1.7    0.0   61810.8    2035.2    0.0    0.0    0.0
       5    4.2   15337.1    0.4    0.0   27281.0    1002.3    0.0    0.0    0.0
       5   11.6   31935.2    1.7    0.0   61811.3    2034.8    0.0    0.0    0.0
       6    3.7   15293.2    0.2    0.0   26487.7    1025.0    0.0    0.0    0.0
       6   11.6   31935.2    1.7    0.0   61808.6    2037.5    0.0    0.0    0.0
       7    3.9   15350.8    0.3    0.0   25938.6     988.7    0.0    0.0    0.0
       7   11.6   31935.2    1.7    0.0   61810.7    2035.4    0.0    0.0    0.0
       8    3.4   15288.0    0.1    0.0   25406.4     976.8    0.0    0.0    0.0
       8   11.6   31935.2    1.7    0.0   61810.7    2035.3    0.0    0.0    0.0
       9    4.2   15270.4    0.5    0.0   26052.3     982.7    0.0    0.0    0.0
       9   11.6   31935.2    1.7    0.0   61810.2    2035.9    0.0    0.0    0.0
      10    3.4   15338.3    0.1    0.0   25933.8    1002.2    0.0    0.0    0.0
      10   11.6   31935.2    1.7    0.0   61810.0    2036.0    0.0    0.0    0.0
      11    3.5   15338.0    0.2    0.0   26153.7    1009.0    0.0    0.0    0.0
      11   11.6   31935.2    1.7    0.0   61809.1    2037.0    0.0    0.0    0.0
      12    3.2   15340.0    0.2    0.0   25739.9     988.0    0.0    0.0    0.0
      12   11.6   31935.2    1.7    0.0   61811.4    2034.6    0.0    0.0    0.0
      13    3.8   15265.0    0.4    0.0   25573.0     976.8    0.0    0.0    0.0
      13   11.6   31935.2    1.7    0.0   61809.3    2036.7    0.0    0.0    0.0
      14    3.2   15306.9    0.1    0.0   25847.3     974.0    0.0    0.0    0.0
      14   11.6   31935.2    1.7    0.0   61811.5    2034.5    0.0    0.0    0.0
      15    3.5   15199.4    0.3    0.0   25630.7     974.3    0.0    0.0    0.0
      15   11.6   31935.2    1.7    0.0   61811.2    2034.8    0.0    0.0    0.0
      16    3.3   15308.8    0.2    0.0   25670.2    1028.2    0.0    0.0    0.0
      16   11.6   31935.2    1.7    0.0   61811.8    2034.3    0.0    0.0    0.0
averaged    3.7   15293.6    0.3    0.0   26016.4    1000.7    0.0    0.0    0.0
averaged   11.6   31935.2    1.7    0.0   61810.2    2035.9    0.0    0.0    0.0
             62808073  WORDS OF DYNAMIC MEMORY USED
 EXECUTION OF GAMESS TERMINATED NORMALLY Tue Dec 10 04:07:12 2019
 DDI: 263640 bytes (0.3 MB / 0 MWords) used by master data server.

 ----------------------------------------
 CPU timing information for all processes
 ========================================
 0: 41718.382 + 960.642 = 42679.24
 1: 42049.128 + 915.170 = 42964.298
 2: 41210.650 + 904.110 = 42114.760
 3: 41068.544 + 883.670 = 41952.215
 4: 42663.529 + 961.552 = 43625.81
 5: 41926.276 + 883.532 = 42809.809
 6: 41377.594 + 904.742 = 42282.336
 7: 40815.874 + 858.812 = 41674.686
 8: 41387.735 + 922.411 = 42310.146
 9: 41399.200 + 878.665 = 42277.865
 10: 41590.759 + 913.800 = 42504.560
 11: 41228.655 + 842.674 = 42071.329
 12: 40918.633 + 900.417 = 41819.50
 13: 41262.506 + 869.65 = 42131.572
 14: 40921.798 + 886.412 = 41808.211
 15: 41179.686 + 830.954 = 42010.641
 ----------------------------------------
 ddikick.x: exited gracefully.
unset echo
----- accounting info -----
Files used on the master node gollum060.lsa.umich.edu were:
-rw-r--r-- 1 hazwong frank    33331 Dec  9 01:30 /scratch/hazwong/829272/2LU0_5/usrc/2LU0_5_fmo_input.F05
-rw-r--r-- 1 hazwong frank      634 Dec 10 04:07 /scratch/hazwong/829272/2LU0_5/usrc/2LU0_5_fmo_input.F06.001
-rw-r--r-- 1 hazwong frank      634 Dec 10 04:07 /scratch/hazwong/829272/2LU0_5/usrc/2LU0_5_fmo_input.F06.002
-rw-r--r-- 1 hazwong frank      634 Dec 10 04:07 /scratch/hazwong/829272/2LU0_5/usrc/2LU0_5_fmo_input.F06.003
-rw-r--r-- 1 hazwong frank      634 Dec 10 04:07 /scratch/hazwong/829272/2LU0_5/usrc/2LU0_5_fmo_input.F06.004
-rw-r--r-- 1 hazwong frank      634 Dec 10 04:07 /scratch/hazwong/829272/2LU0_5/usrc/2LU0_5_fmo_input.F06.005
-rw-r--r-- 1 hazwong frank      634 Dec 10 04:07 /scratch/hazwong/829272/2LU0_5/usrc/2LU0_5_fmo_input.F06.006
-rw-r--r-- 1 hazwong frank      634 Dec 10 04:07 /scratch/hazwong/829272/2LU0_5/usrc/2LU0_5_fmo_input.F06.007
-rw-r--r-- 1 hazwong frank      634 Dec 10 04:07 /scratch/hazwong/829272/2LU0_5/usrc/2LU0_5_fmo_input.F06.008
-rw-r--r-- 1 hazwong frank      634 Dec 10 04:07 /scratch/hazwong/829272/2LU0_5/usrc/2LU0_5_fmo_input.F06.009
-rw-r--r-- 1 hazwong frank      634 Dec 10 04:07 /scratch/hazwong/829272/2LU0_5/usrc/2LU0_5_fmo_input.F06.010
-rw-r--r-- 1 hazwong frank      634 Dec 10 04:07 /scratch/hazwong/829272/2LU0_5/usrc/2LU0_5_fmo_input.F06.011
-rw-r--r-- 1 hazwong frank      634 Dec 10 04:07 /scratch/hazwong/829272/2LU0_5/usrc/2LU0_5_fmo_input.F06.012
-rw-r--r-- 1 hazwong frank      634 Dec 10 04:07 /scratch/hazwong/829272/2LU0_5/usrc/2LU0_5_fmo_input.F06.013
-rw-r--r-- 1 hazwong frank      634 Dec 10 04:07 /scratch/hazwong/829272/2LU0_5/usrc/2LU0_5_fmo_input.F06.014
-rw-r--r-- 1 hazwong frank      634 Dec 10 04:07 /scratch/hazwong/829272/2LU0_5/usrc/2LU0_5_fmo_input.F06.015
-rw-r--r-- 1 hazwong frank    40551 Dec 10 04:07 /scratch/hazwong/829272/2LU0_5/usrc/2LU0_5_fmo_input.F07
-rw-r--r-- 1 hazwong frank        0 Dec  9 01:30 /scratch/hazwong/829272/2LU0_5/usrc/2LU0_5_fmo_input.F07.001
-rw-r--r-- 1 hazwong frank        0 Dec  9 01:30 /scratch/hazwong/829272/2LU0_5/usrc/2LU0_5_fmo_input.F07.002
-rw-r--r-- 1 hazwong frank        0 Dec  9 01:30 /scratch/hazwong/829272/2LU0_5/usrc/2LU0_5_fmo_input.F07.003
-rw-r--r-- 1 hazwong frank        0 Dec  9 01:30 /scratch/hazwong/829272/2LU0_5/usrc/2LU0_5_fmo_input.F07.004
-rw-r--r-- 1 hazwong frank        0 Dec  9 01:30 /scratch/hazwong/829272/2LU0_5/usrc/2LU0_5_fmo_input.F07.005
-rw-r--r-- 1 hazwong frank        0 Dec  9 01:30 /scratch/hazwong/829272/2LU0_5/usrc/2LU0_5_fmo_input.F07.006
-rw-r--r-- 1 hazwong frank        0 Dec  9 01:30 /scratch/hazwong/829272/2LU0_5/usrc/2LU0_5_fmo_input.F07.007
-rw-r--r-- 1 hazwong frank        0 Dec  9 01:30 /scratch/hazwong/829272/2LU0_5/usrc/2LU0_5_fmo_input.F07.008
-rw-r--r-- 1 hazwong frank        0 Dec  9 01:30 /scratch/hazwong/829272/2LU0_5/usrc/2LU0_5_fmo_input.F07.009
-rw-r--r-- 1 hazwong frank        0 Dec  9 01:30 /scratch/hazwong/829272/2LU0_5/usrc/2LU0_5_fmo_input.F07.010
-rw-r--r-- 1 hazwong frank        0 Dec  9 01:30 /scratch/hazwong/829272/2LU0_5/usrc/2LU0_5_fmo_input.F07.011
-rw-r--r-- 1 hazwong frank        0 Dec  9 01:30 /scratch/hazwong/829272/2LU0_5/usrc/2LU0_5_fmo_input.F07.012
-rw-r--r-- 1 hazwong frank        0 Dec  9 01:30 /scratch/hazwong/829272/2LU0_5/usrc/2LU0_5_fmo_input.F07.013
-rw-r--r-- 1 hazwong frank        0 Dec  9 01:30 /scratch/hazwong/829272/2LU0_5/usrc/2LU0_5_fmo_input.F07.014
-rw-r--r-- 1 hazwong frank        0 Dec  9 01:30 /scratch/hazwong/829272/2LU0_5/usrc/2LU0_5_fmo_input.F07.015
-rw-r--r-- 1 hazwong frank    65440 Dec 10 04:07 /scratch/hazwong/829272/2LU0_5/usrc/2LU0_5_fmo_input.F10.000
-rw-r--r-- 1 hazwong frank        0 Dec  9 01:30 /scratch/hazwong/829272/2LU0_5/usrc/2LU0_5_fmo_input.F26.000
-rw-r--r-- 1 hazwong frank        0 Dec  9 01:30 /scratch/hazwong/829272/2LU0_5/usrc/2LU0_5_fmo_input.F26.001
-rw-r--r-- 1 hazwong frank        0 Dec  9 01:30 /scratch/hazwong/829272/2LU0_5/usrc/2LU0_5_fmo_input.F26.002
-rw-r--r-- 1 hazwong frank        0 Dec  9 01:30 /scratch/hazwong/829272/2LU0_5/usrc/2LU0_5_fmo_input.F26.003
-rw-r--r-- 1 hazwong frank        0 Dec  9 01:30 /scratch/hazwong/829272/2LU0_5/usrc/2LU0_5_fmo_input.F26.004
-rw-r--r-- 1 hazwong frank        0 Dec  9 01:30 /scratch/hazwong/829272/2LU0_5/usrc/2LU0_5_fmo_input.F26.005
-rw-r--r-- 1 hazwong frank        0 Dec  9 01:30 /scratch/hazwong/829272/2LU0_5/usrc/2LU0_5_fmo_input.F26.006
-rw-r--r-- 1 hazwong frank        0 Dec  9 01:30 /scratch/hazwong/829272/2LU0_5/usrc/2LU0_5_fmo_input.F26.007
-rw-r--r-- 1 hazwong frank        0 Dec  9 01:30 /scratch/hazwong/829272/2LU0_5/usrc/2LU0_5_fmo_input.F26.008
-rw-r--r-- 1 hazwong frank        0 Dec  9 01:30 /scratch/hazwong/829272/2LU0_5/usrc/2LU0_5_fmo_input.F26.009
-rw-r--r-- 1 hazwong frank        0 Dec  9 01:30 /scratch/hazwong/829272/2LU0_5/usrc/2LU0_5_fmo_input.F26.010
-rw-r--r-- 1 hazwong frank        0 Dec  9 01:30 /scratch/hazwong/829272/2LU0_5/usrc/2LU0_5_fmo_input.F26.011
-rw-r--r-- 1 hazwong frank        0 Dec  9 01:30 /scratch/hazwong/829272/2LU0_5/usrc/2LU0_5_fmo_input.F26.012
-rw-r--r-- 1 hazwong frank        0 Dec  9 01:30 /scratch/hazwong/829272/2LU0_5/usrc/2LU0_5_fmo_input.F26.013
-rw-r--r-- 1 hazwong frank        0 Dec  9 01:30 /scratch/hazwong/829272/2LU0_5/usrc/2LU0_5_fmo_input.F26.014
-rw-r--r-- 1 hazwong frank        0 Dec  9 01:30 /scratch/hazwong/829272/2LU0_5/usrc/2LU0_5_fmo_input.F26.015
-rw-r--r-- 1 hazwong frank        0 Dec  9 01:30 /scratch/hazwong/829272/2LU0_5/usrc/2LU0_5_fmo_input.F27.000
-rw-r--r-- 1 hazwong frank        0 Dec  9 01:30 /scratch/hazwong/829272/2LU0_5/usrc/2LU0_5_fmo_input.F27.001
-rw-r--r-- 1 hazwong frank        0 Dec  9 01:30 /scratch/hazwong/829272/2LU0_5/usrc/2LU0_5_fmo_input.F27.002
-rw-r--r-- 1 hazwong frank        0 Dec  9 01:30 /scratch/hazwong/829272/2LU0_5/usrc/2LU0_5_fmo_input.F27.003
-rw-r--r-- 1 hazwong frank        0 Dec  9 01:30 /scratch/hazwong/829272/2LU0_5/usrc/2LU0_5_fmo_input.F27.004
-rw-r--r-- 1 hazwong frank        0 Dec  9 01:30 /scratch/hazwong/829272/2LU0_5/usrc/2LU0_5_fmo_input.F27.005
-rw-r--r-- 1 hazwong frank        0 Dec  9 01:30 /scratch/hazwong/829272/2LU0_5/usrc/2LU0_5_fmo_input.F27.006
-rw-r--r-- 1 hazwong frank        0 Dec  9 01:30 /scratch/hazwong/829272/2LU0_5/usrc/2LU0_5_fmo_input.F27.007
-rw-r--r-- 1 hazwong frank        0 Dec  9 01:30 /scratch/hazwong/829272/2LU0_5/usrc/2LU0_5_fmo_input.F27.008
-rw-r--r-- 1 hazwong frank        0 Dec  9 01:30 /scratch/hazwong/829272/2LU0_5/usrc/2LU0_5_fmo_input.F27.009
-rw-r--r-- 1 hazwong frank        0 Dec  9 01:30 /scratch/hazwong/829272/2LU0_5/usrc/2LU0_5_fmo_input.F27.010
-rw-r--r-- 1 hazwong frank        0 Dec  9 01:30 /scratch/hazwong/829272/2LU0_5/usrc/2LU0_5_fmo_input.F27.011
-rw-r--r-- 1 hazwong frank        0 Dec  9 01:30 /scratch/hazwong/829272/2LU0_5/usrc/2LU0_5_fmo_input.F27.012
-rw-r--r-- 1 hazwong frank        0 Dec  9 01:30 /scratch/hazwong/829272/2LU0_5/usrc/2LU0_5_fmo_input.F27.013
-rw-r--r-- 1 hazwong frank        0 Dec  9 01:30 /scratch/hazwong/829272/2LU0_5/usrc/2LU0_5_fmo_input.F27.014
-rw-r--r-- 1 hazwong frank        0 Dec  9 01:30 /scratch/hazwong/829272/2LU0_5/usrc/2LU0_5_fmo_input.F27.015
-rw-r--r-- 1 hazwong frank 45301760 Dec  9 10:23 /scratch/hazwong/829272/2LU0_5/usrc/2LU0_5_fmo_input.F40.000
-rw-r--r-- 1 hazwong frank 45301760 Dec  9 10:23 /scratch/hazwong/829272/2LU0_5/usrc/2LU0_5_fmo_input.F40.001
-rw-r--r-- 1 hazwong frank 45301760 Dec  9 10:23 /scratch/hazwong/829272/2LU0_5/usrc/2LU0_5_fmo_input.F40.002
-rw-r--r-- 1 hazwong frank 45301760 Dec  9 10:23 /scratch/hazwong/829272/2LU0_5/usrc/2LU0_5_fmo_input.F40.003
-rw-r--r-- 1 hazwong frank 45301760 Dec  9 10:23 /scratch/hazwong/829272/2LU0_5/usrc/2LU0_5_fmo_input.F40.004
-rw-r--r-- 1 hazwong frank 45301760 Dec  9 10:23 /scratch/hazwong/829272/2LU0_5/usrc/2LU0_5_fmo_input.F40.005
-rw-r--r-- 1 hazwong frank 45301760 Dec  9 10:23 /scratch/hazwong/829272/2LU0_5/usrc/2LU0_5_fmo_input.F40.006
-rw-r--r-- 1 hazwong frank 45301760 Dec  9 10:23 /scratch/hazwong/829272/2LU0_5/usrc/2LU0_5_fmo_input.F40.007
-rw-r--r-- 1 hazwong frank 45301760 Dec  9 10:23 /scratch/hazwong/829272/2LU0_5/usrc/2LU0_5_fmo_input.F40.008
-rw-r--r-- 1 hazwong frank 45301760 Dec  9 10:23 /scratch/hazwong/829272/2LU0_5/usrc/2LU0_5_fmo_input.F40.009
-rw-r--r-- 1 hazwong frank 45301760 Dec  9 10:23 /scratch/hazwong/829272/2LU0_5/usrc/2LU0_5_fmo_input.F40.010
-rw-r--r-- 1 hazwong frank 45301760 Dec  9 10:23 /scratch/hazwong/829272/2LU0_5/usrc/2LU0_5_fmo_input.F40.011
-rw-r--r-- 1 hazwong frank 45301760 Dec  9 10:23 /scratch/hazwong/829272/2LU0_5/usrc/2LU0_5_fmo_input.F40.012
-rw-r--r-- 1 hazwong frank 45301760 Dec  9 10:23 /scratch/hazwong/829272/2LU0_5/usrc/2LU0_5_fmo_input.F40.013
-rw-r--r-- 1 hazwong frank 45301760 Dec  9 10:23 /scratch/hazwong/829272/2LU0_5/usrc/2LU0_5_fmo_input.F40.014
-rw-r--r-- 1 hazwong frank 45301760 Dec  9 10:23 /scratch/hazwong/829272/2LU0_5/usrc/2LU0_5_fmo_input.F40.015
ls: No match.
ls: No match.
ls: No match.
Tue Dec 10 04:07:15 EST 2019
0.195u 0.125s 26:36:38.76 0.0%	0+0k 1416+224io 23pf+0w
