‘2JSE_4_fmo_input.inp’ -> ‘/scratch/hazwong/825112/./2JSE_4_fmo_input.inp’
‘rungms’ -> ‘/scratch/hazwong/825112/./rungms’
‘gms-files.csh’ -> ‘/scratch/hazwong/825112/./gms-files.csh’
----- GAMESS execution script 'rungms' -----
This job is running on host gollum077.lsa.umich.edu
under operating system Linux at Sat Dec 7 10:23:52 EST 2019
Available scratch disk space (Kbyte units) at beginning of the job is
Filesystem     1K-blocks  Used Available Use% Mounted on
/dev/sda4      426933580 33264 426900316   1% /scratch
GAMESS temporary binary files will be written to /scratch/hazwong/825112/2JSE_4/usrc
GAMESS supplementary output files will be written to /scratch/hazwong/825112/2JSE_4/src
Copying input file 2JSE_4_fmo_input.inp to your run's scratch directory...
cp 2JSE_4_fmo_input.inp /scratch/hazwong/825112/2JSE_4/usrc/2JSE_4_fmo_input.F05
unset echo
This is a GDDI run, keeping various output files on local disks
setenv OUTPUT /scratch/hazwong/825112/2JSE_4/usrc/2JSE_4_fmo_input.F06
setenv PUNCH /scratch/hazwong/825112/2JSE_4/usrc/2JSE_4_fmo_input.F07
unset echo
 
Assuming a single but multicore node.
 
/export/apps/CentOS7/gamess/src/build//ddikick.x /export/apps/CentOS7/gamess/src/build//gamess.R3.x 2JSE_4_fmo_input -ddi 1 16 gollum077.lsa.umich.edu:cpus=16 -scr /scratch/hazwong/825112/2JSE_4/usrc

 Distributed Data Interface kickoff program.
 Initiating 16 compute processes on 1 nodes to run the following command:
 /export/apps/CentOS7/gamess/src/build//gamess.R3.x 2JSE_4_fmo_input 

          ******************************************************
          *         GAMESS VERSION = 30 SEP 2018 (R3)         *
          *             FROM IOWA STATE UNIVERSITY             *
          * M.W.SCHMIDT, K.K.BALDRIDGE, J.A.BOATZ, S.T.ELBERT, *
          *   M.S.GORDON, J.H.JENSEN, S.KOSEKI, N.MATSUNAGA,   *
          *          K.A.NGUYEN, S.J.SU, T.L.WINDUS,           *
          *       TOGETHER WITH M.DUPUIS, J.A.MONTGOMERY       *
          *         J.COMPUT.CHEM.  14, 1347-1363(1993)        *
          **************** 64 BIT LINUX VERSION ****************

  SINCE 1993, STUDENTS AND POSTDOCS WORKING AT IOWA STATE UNIVERSITY
  AND ALSO IN THEIR VARIOUS JOBS AFTER LEAVING ISU HAVE MADE IMPORTANT
  CONTRIBUTIONS TO THE CODE:
     IVANA ADAMOVIC, CHRISTINE AIKENS, YURI ALEXEEV, POOJA ARORA,
     ANDREY ASADCHEV, ROB BELL, PRADIPTA BANDYOPADHYAY, JONATHAN BENTZ,
     BRETT BODE, KURT BRORSEN, CALEB CARLIN, GALINA CHABAN, WEI CHEN,
     CHEOL HO CHOI, PAUL DAY, ALBERT DEFUSCO, NUWAN DESILVA, TIM DUDLEY,
     DMITRI FEDOROV, ALEX FINDLATER, GRAHAM FLETCHER, MARK FREITAG,
     KURT GLAESEMANN, ANASTASIA GUNINA,
     DAN KEMP, GRANT MERRILL, NORIYUKI MINEZAWA, JONATHAN MULLIN,
     TAKESHI NAGATA, SEAN NEDD, HEATHER NETZLOFF, BOSILJKA NJEGIC, RYAN OLSON,
     MIKE PAK, BUU PHAM,
     SPENCER PRUITT, LUKE ROSKOP, JIM SHOEMAKER, LYUDMILA SLIPCHENKO,
     TONY SMITH, SAROM SOK LEANG, JIE SONG, TETSUYA TAKETSUGU, SIMON WEBB,
     PENG XU, SOOHAENG YOO, FEDERICO ZAHARIEV

  ADDITIONAL CODE HAS BEEN PROVIDED BY COLLABORATORS IN OTHER GROUPS:
     IOWA STATE UNIVERSITY:
          JOE IVANIC, AARON WEST, LAIMUTIS BYTAUTAS, KLAUS RUEDENBERG
     UNIVERSITY OF TOKYO: KIMIHIKO HIRAO, TAKAHITO NAKAJIMA,
          TAKAO TSUNEDA, MUNEAKI KAMIYA, SUSUMU YANAGISAWA,
          KIYOSHI YAGI, MAHITO CHIBA, SEIKEN TOKURA, NAOAKI KAWAKAMI
     UNIVERSITY OF AARHUS: FRANK JENSEN
     UNIVERSITY OF IOWA: VISVALDAS KAIRYS, HUI LI
     NATIONAL INST. OF STANDARDS AND TECHNOLOGY: WALT STEVENS, DAVID GARMER
     UNIVERSITY OF PISA: BENEDETTA MENNUCCI, JACOPO TOMASI
     UNIVERSITY OF MEMPHIS: HENRY KURTZ, PRAKASHAN KORAMBATH
     UNIVERSITY OF ALBERTA: TOBY ZENG, MARIUSZ KLOBUKOWSKI
     UNIVERSITY OF NEW ENGLAND: MARK SPACKMAN
     MIE UNIVERSITY: HIROAKI UMEDA
     NAT. INST. OF ADVANCED INDUSTRIAL SCIENCE AND TECHNOLOGY: KAZUO KITAURA
     MICHIGAN STATE UNIVERSITY:
          KAROL KOWALSKI, MARTA WLOCH, JEFFREY GOUR, JESSE LUTZ,
          WEI LI, JUN SHEN, J. EMILIANO DEUSTUA, PIOTR PIECUCH
     UNIVERSITY OF MINNESOTA:
          YINAN SHU
     UNIVERSITY OF SILESIA: MONIKA MUSIAL, STANISLAW KUCHARSKI
     FACULTES UNIVERSITAIRES NOTRE-DAME DE LA PAIX:
          OLIVIER QUINET, BENOIT CHAMPAGNE
     UNIVERSITY OF CALIFORNIA - SANTA BARBARA: BERNARD KIRTMAN
     INSTITUTE FOR MOLECULAR SCIENCE:
          KAZUYA ISHIMURA, MICHIO KATOUDA, AND SHIGERU NAGASE
     UNIVERSITY OF NOTRE DAME: ANNA POMOGAEVA, DAN CHIPMAN
     KYUSHU UNIVERSITY:
          HARUYUKI NAKANO,
          FENG LONG GU, JACEK KORCHOWIEC, MARCIN MAKOWSKI, AND YURIKO AOKI,
          HIROTOSHI MORI AND EISAKU MIYOSHI
     PENNSYLVANIA STATE UNIVERSITY:
          TZVETELIN IORDANOV, CHET SWALINA, JONATHAN SKONE,
          SHARON HAMMES-SCHIFFER
     WASEDA UNIVERSITY:
          MASATO KOBAYASHI, TOMOKO AKAMA, TSUGUKI TOUMA,
          TAKESHI YOSHIKAWA, YASUHIRO IKABATA, JUNJI SEINO,
          YUYA NAKAJIMA, HIROMI NAKAI
     NANJING UNIVERSITY: SHUHUA LI
     UNIVERSITY OF NEBRASKA:
          PEIFENG SU, DEJUN SI, NANDUN THELLAMUREGE, YALI WANG, HUI LI
     UNIVERSITY OF ZURICH: ROBERTO PEVERATI, KIM BALDRIDGE
     N. COPERNICUS UNIVERSITY AND JACKSON STATE UNIVERSITY:
          MARIA BARYSZ
     UNIVERSITY OF COPENHAGEN: Jimmy Kromann, CASPER STEINMANN
     TOKYO INSTITUTE OF TECHNOLOGY: HIROYA NAKATA
     NAGOYA UNIVERSITY: YOSHIO NISHIMOTO, STEPHAN IRLE
     MOSCOW STATE UNIVERSITY: VLADIMIR MIRONOV


 PARALLEL VERSION RUNNING ON       16 PROCESSORS IN        1 NODES.

 EXECUTION OF GAMESS BEGUN Sat Dec  7 10:23:52 2019

            ECHO OF THE FIRST FEW INPUT CARDS -
 INPUT CARD>!*** FMO 5.3 (Gamess) INPUT generated by Facio 22.1.1.32 ***                    
 INPUT CARD> $CONTRL RUNTYP=ENERGY NPRINT=-5 ISPHER=1 MAXIT=200 $END                        
 INPUT CARD> $SYSTEM MWORDS=63 MEMDDI=63 $END                                               
 INPUT CARD> $GDDI NGROUP=1 $END                                                            
 INPUT CARD> $SCF DIRSCF=.TRUE. NPUNCH=0 $END                                               
 INPUT CARD>!*** NumCPU : 2  MemPerNode : 512MB                                             
 INPUT CARD> $PCM SOLVNT=WATER IEF=-10 ICOMP=2 ICAV=1 IDISP=1 IFMO=-1 $END                  
 INPUT CARD> $PCMCAV RADII=SUAHF $END                                                       
 INPUT CARD> $TESCAV NTSALL=60 $END                                                         
 INPUT CARD> $FMOPRP                                                                        
 INPUT CARD>    NAODIR=200                                                                  
 INPUT CARD>    NGRFMO(1)=1, 1, 0, 0, 0,   0, 0, 0, 0, 0                                    
 INPUT CARD>    IPIEDA=1                                                                    
 INPUT CARD>    NPRINT=9                                                                    
 INPUT CARD> $END                                                                           
 INPUT CARD> $FMO                                                                           
 INPUT CARD>      SCFTYP(1)=RHF                                                             
 INPUT CARD>      MODGRD=10                                                                 
 INPUT CARD>      MODMUL=0                                                                  
 INPUT CARD>      MAXCAO=5                                                                  
 INPUT CARD>      MAXBND=14                                                                 
 INPUT CARD>      NLAYER=1                                                                  
 INPUT CARD>      MPLEVL(1)=2                                                               
 INPUT CARD>      NFRAG=12                                                                  
 INPUT CARD>      ICHARG(1)=-1, -1, -1, -1, -1, 0, -1, -1, -1, -1, -1, 0                    
 INPUT CARD>      FRGNAM(1)=F1, F2, F3, F4, F5, F6, F7, F8, F9, F10, F11, F12               
 INPUT CARD>      indat(1)=0                                                                
 INPUT CARD>               1   -35   0                                                      
 INPUT CARD>               36   -69   0                                                     
 INPUT CARD>               70   -99   0                                                     
 INPUT CARD>               100   -133   0                                                   
 INPUT CARD>               134   -167   0                                                   
 INPUT CARD>               168   -197   0                                                   
 INPUT CARD>               198   -231   0                                                   
 INPUT CARD>               232   -262   0                                                   
 INPUT CARD>               263   -295   0                                                   
 INPUT CARD>               296   -325   0                                                   
 INPUT CARD>               326   -356   0                                                   
 INPUT CARD>               357   -383   0                                                   
 INPUT CARD> $END                                                                           
 INPUT CARD>                                                                                
 INPUT CARD> $FMOBND                                                                        
 INPUT CARD>   -36   35       6-31G*    MINI                                                
 INPUT CARD>   -70   69       6-31G*    MINI                                                
 INPUT CARD>   -100   99       6-31G*    MINI                                               
 INPUT CARD>   -134   133       6-31G*    MINI                                              
 INPUT CARD>   -168   167       6-31G*    MINI                                              
 INPUT CARD>   -198   197       6-31G*    MINI                                              
 INPUT CARD>   -232   231       6-31G*    MINI                                              
 INPUT CARD>   -263   262       6-31G*    MINI                                              


 -------------------------------------------------------------
 GROUP DDI, PROGRAMMED BY: RYAN M. OLSON AND DMITRI G. FEDOROV
        FEDOROV ET AL., J. COMPUT. CHEM., 25 (2004) 872.
 -------------------------------------------------------------

 -------------------------------------------------------
 GDDI: INITIALIZATION COMPLETED FOR GROUP     1 OF     1
 WITH    16 PROCESSES BALTYP=DLB   global rank=        0
 -------------------------------------------------------

   63000000 WORDS OF MEMORY AVAILABLE


     RUN TITLE
     ---------
  FMO calculation                                                                

 THE POINT GROUP OF THE MOLECULE IS C1      
 THE ORDER OF THE PRINCIPAL AXIS IS     0

 ATOM   ATOMIC CHARGE
 H.1-1       1.0
 O.1-1       8.0
 C.1-1       6.0
 N.1-1       7.0
 P.1-1      15.0

     ATOMIC BASIS SET LIBRARY
     ----------------
 THE CONTRACTED PRIMITIVE FUNCTIONS HAVE BEEN UNNORMALIZED
 THE CONTRACTED BASIS FUNCTIONS ARE NOW NORMALIZED TO UNITY

  SHELL TYPE  PRIMITIVE        EXPONENT          CONTRACTION COEFFICIENT(S)

 H.1-1     

      1   S       1            18.7311370    0.033494604338
      1   S       2             2.8253944    0.234726953484
      1   S       3             0.6401217    0.813757326146

      2   S       4             0.1612778    1.000000000000

 O.1-1     

      3   S       5          5484.6716600    0.001831074430
      3   S       6           825.2349460    0.013950172200
      3   S       7           188.0469580    0.068445078098
      3   S       8            52.9645000    0.232714335992
      3   S       9            16.8975704    0.470192897984
      3   S      10             5.7996353    0.358520852987

      4   L      11            15.5396162   -0.110777549525    0.070874268231
      4   L      12             3.5999336   -0.148026262701    0.339752839147
      4   L      13             1.0137618    1.130767015354    0.727158577316

      5   L      14             0.2700058    1.000000000000    1.000000000000

      6   D      15             0.8000000    1.000000000000

 C.1-1     

      7   S      16          3047.5248800    0.001834737132
      7   S      17           457.3695180    0.014037322813
      7   S      18           103.9486850    0.068842622264
      7   S      19            29.2101553    0.232184443216
      7   S      20             9.2866630    0.467941348435
      7   S      21             3.1639270    0.362311985337

      8   L      22             7.8682723   -0.119332419775    0.068999066591
      8   L      23             1.8812885   -0.160854151696    0.316423960957
      8   L      24             0.5442493    1.143456437840    0.744308290898

      9   L      25             0.1687145    1.000000000000    1.000000000000

     10   D      26             0.8000000    1.000000000000

 N.1-1     

     11   S      27          4173.5114600    0.001834772160
     11   S      28           627.4579110    0.013994627002
     11   S      29           142.9020930    0.068586551812
     11   S      30            40.2343293    0.232240873040
     11   S      31            12.8202129    0.469069948082
     11   S      32             4.3904370    0.360455199063

     12   L      33            11.6263619   -0.114961181702    0.067579743878
     12   L      34             2.7162798   -0.169117478561    0.323907295893
     12   L      35             0.7722184    1.145851947027    0.740895139755

     13   L      36             0.2120315    1.000000000000    1.000000000000

     14   D      37             0.8000000    1.000000000000

 P.1-1     

     15   S      38         19413.3000000    0.001851598923
     15   S      39          2909.4200000    0.014206191735
     15   S      40           661.3640000    0.069999459277
     15   S      41           185.7590000    0.240078860331
     15   S      42            59.1943000    0.484761717984
     15   S      43            20.0310000    0.335199804993

     16   L      44           339.4780000   -0.002782170105    0.004564616191
     16   L      45            81.0101000   -0.036049901354    0.033693571881
     16   L      46            25.8780000   -0.116631004382    0.139754883368
     16   L      47             9.4522100    0.096832803638    0.339361716786
     16   L      48             3.6656600    0.614418023082    0.450920623685
     16   L      49             1.4674600    0.403798015170    0.238585800889

     17   L      50             2.1562300   -0.252924113863   -0.017765312733
     17   L      51             0.7489970    0.032851844678    0.274058196433
     17   L      52             0.2831450    1.081254761783    0.785421562957

     18   L      53             0.0998317    1.000000000000    1.000000000000

     19   D      54             0.5500000    1.000000000000

 TOTAL NUMBER OF BASIS SET SHELLS             =   19
 NUMBER OF CARTESIAN GAUSSIAN BASIS FUNCTIONS =   66

     $CONTRL OPTIONS
     ---------------
 SCFTYP=RHF          RUNTYP=ENERGY       EXETYP=RUN     
 MPLEVL=       0     CITYP =NONE         CCTYP =NONE         VBTYP =NONE    
 DFTTYP=NONE         TDDFT =NONE    
 MULT  =       1     ICHARG=       0     NZVAR =       0     COORD =UNIQUE  
 PP    =NONE         RELWFN=NONE         LOCAL =NONE         NUMGRD=       F
 ISPHER=       1     NOSYM =       0     MAXIT =     200     UNITS =ANGS    
 PLTORB=       F     MOLPLT=       F     AIMPAC=       F     FRIEND=        
 NPRINT=      -5     IREST =       0     GEOM  =INPUT   
 NORMF =       0     NORMP =       0     ITOL  =      24     ICUT  =      12
 INTTYP=BEST         GRDTYP=BEST         QMTTOL= 1.0E-06

     $SYSTEM OPTIONS
     ---------------
  REPLICATED MEMORY=    63000000 WORDS (ON EVERY NODE).
 DISTRIBUTED MEMDDI=          63 MILLION WORDS IN AGGREGATE,
 MEMDDI DISTRIBUTED OVER  16 PROCESSORS IS     3937500 WORDS/PROCESSOR.
 TOTAL MEMORY REQUESTED ON EACH PROCESSOR=    66937500 WORDS.
 TIMLIM=      525600.00 MINUTES, OR     365.0 DAYS.
 PARALL= T  BALTYP=  DLB     KDIAG=    0  COREFL= F
 MXSEQ2=     300 MXSEQ3=     150  mem10=         0

 ** LOOKING UP INTERNALLY STORED DATA FOR SOLVENT=WATER    **
 OPTICAL AND PHYSICAL CONSTANTS:
 EPS= 78.390; EPSINF=  1.776; RSOLV=  1.385 A; VMOL=  18.070 ML/MOL;
 TCE= .25700E-03 1/K; STEN= 71.810 DYN/CM;  DSTEN=  0.6500; CMF=  1.2770


     -----------------------------------
     INPUT FOR PCM SOLVATION CALCULATION 
     -----------------------------------
     IEF   =     -10
     ICOMP =       2     IFIELD=       0     ICAV  =       1
     IDISP =       1     IREP  =       0     IDP   =       0

     SOLVNT=WATER        EPS   = 78.3900     EPSINF=  1.7760
     VMOL  = 18.0700     TCE   =  0.00025700 STEN  = 71.8100
     DSTEN =  0.6500     CMF   =  1.2770     RSOLV =  1.3850

     NESFP =       0
     OMEGA = 40.0000     RET   =100.0000     FRO   =  0.7000

     TABS  =298.0000     IPRINT=       0

     --------------------------------
     INPUT FOR ITERATIVE C-PCM METHOD 
     --------------------------------
     IPCMIT  =         1     MXDIIS  =        50
     MXITR1  =       200     MXITR2  =       200
     THRES   = 0.100E-09     IMUL    =         3
     RCUT(1) =   20.0000     RCUT(2) =   50.0000

     IDIRCT  =         1
     IMGABI  =         0     RABI    =    4.0000
     IMGASC  =         0     RASC    =   20.0000
     THRSLS  = 0.500E-03     DENSLS  =    0.0100
     IEFPOL  =         1     REFPOL  =    0.0000

     INPUT FOR ISOTROPIC DIELECTRICS
     -------------------------------
     EPS=    78.39

          ----------------
          PROPERTIES INPUT
          ----------------

     MOMENTS            FIELD           POTENTIAL          DENSITY
 IEMOM =       1   IEFLD =       0   IEPOT =       0   IEDEN =       0
 WHERE =COMASS     WHERE =NUCLEI     WHERE =NUCLEI     WHERE =NUCLEI  
 OUTPUT=BOTH       OUTPUT=BOTH       OUTPUT=NONE       OUTPUT=BOTH    
 IEMINT=       0   IEFINT=       0                     IEDINT=       0
                                                       MORB  =       0
          EXTRAPOLATION IN EFFECT
          SOSCF IN EFFECT
 ORBITAL PRINTING OPTION: NPREO=     1 32767     2     1

     -------------------------------
     INTEGRAL TRANSFORMATION OPTIONS
     -------------------------------
     NWORD  =            0
     CUTOFF = 1.0E-10     MPTRAN =       0
     DIRTRF =       T     AOINTS =DUP     

          ----------------------
          INTEGRAL INPUT OPTIONS
          ----------------------
 NOPK  =       1 NORDER=       0 SCHWRZ=       T

 ..... DONE SETTING UP THE RUN .....
 CPU     0: STEP CPU TIME=     0.04 TOTAL CPU TIME=          0.0 (      0.0 MIN)
 TOTAL WALL CLOCK TIME=          0.1 SECONDS, CPU UTILIZATION IS    66.67%
 CPU     0: STEP CPU TIME=     0.00 TOTAL CPU TIME=          0.0 (      0.0 MIN)
 TOTAL WALL CLOCK TIME=          0.1 SECONDS, CPU UTILIZATION IS    66.67%

                    ----------------------
                    AO INTEGRAL TECHNOLOGY
                    ----------------------
     S,P,L SHELL ROTATED AXIS INTEGRALS, REPROGRAMMED BY
        KAZUYA ISHIMURA (IMS) AND JOSE SIERRA (SYNSTAR).
     S,P,D,L SHELL ROTATED AXIS INTEGRALS PROGRAMMED BY
        KAZUYA ISHIMURA (INSTITUTE FOR MOLECULAR SCIENCE).
     S,P,D,F,G SHELL TO TOTAL QUARTET ANGULAR MOMENTUM SUM 5,
        ERIC PROGRAM BY GRAHAM FLETCHER (ELORET AND NASA ADVANCED
        SUPERCOMPUTING DIVISION, AMES RESEARCH CENTER).
     S,P,D,F,G,L SHELL GENERAL RYS QUADRATURE PROGRAMMED BY
        MICHEL DUPUIS (PACIFIC NORTHWEST NATIONAL LABORATORY).
 Setting modorb=1 flag...
 Setting modorb=1 flag...

          -----------------------
          MP2 CONTROL INFORMATION
          -----------------------
          NACORE =        8  NBCORE =        8
          LMOMP2 =        F  AOINTS = DUP     
          METHOD =        2  NWORD  =               0
          MP2PRP =        F  OSPT   = NONE    
          CUTOFF = 1.00E-12  CPHFBS = BASISAO 
          CODE   = IMS     

          NUMBER OF CORE -A-  ORBITALS =     8
          NUMBER OF CORE -B-  ORBITALS =     8
          NUMBER OF OCC. -A-  ORBITALS =    18
          NUMBER OF OCC. -B-  ORBITALS =    18
          NUMBER OF MOLECULAR ORBITALS =    66
          NUMBER OF   BASIS  FUNCTIONS =    66

 CPU     0: STEP CPU TIME=     0.02 TOTAL CPU TIME=          0.1 (      0.0 MIN)
 TOTAL WALL CLOCK TIME=          0.1 SECONDS, CPU UTILIZATION IS    66.67%
 CPU     0: STEP CPU TIME=     0.00 TOTAL CPU TIME=          0.1 (      0.0 MIN)
 TOTAL WALL CLOCK TIME=          0.1 SECONDS, CPU UTILIZATION IS    66.67%

     INPUT FOR CAVITY DEFINITION 
     ---------------------------
   ATOM               COORDINATES                RADIUS       EPS
      1      5.6230      8.7820      2.6500      0.0100     78.3900
      2      5.1240      8.9940      1.8360      1.5900     78.3900
      3      4.6780     10.3520      1.9710      1.7700     78.3900
      4      5.5650     11.0210      2.0430      0.0100     78.3900
      5      4.0990     10.4560      2.9170      0.0100     78.3900
      6      3.8030     10.8180      0.8030      1.7700     78.3900
      7      3.4710     11.8660      0.9520      0.0100     78.3900
      8      4.5600     10.7740     -0.4460      1.5900     78.3900
      9      3.7050     10.3350     -1.4900      1.7700     78.3900
     10      3.7520     11.1140     -2.2870      0.0100     78.3900
     11      4.1510      9.0550     -2.0500      1.6800     78.3900
     12      4.4820      7.3410     -3.3880      1.7700     78.3900
     13      5.2610      7.1090     -2.2610      1.6800     78.3900
     14      5.0190      8.1460     -1.4920      1.7700     78.3900
     15      5.4640      8.3200     -0.5090      0.0100     78.3900
     16      3.4550      7.1310     -5.5140      1.6800     78.3900
     17      2.8310      8.2830     -5.2390      1.7700     78.3900
     18      2.1570      8.6520     -6.0210      0.0100     78.3900
     19      2.9420      9.0680     -4.1600      1.6800     78.3900
     20      3.7860      8.5300     -3.2650      1.7700     78.3900
     21      4.3060      6.6180     -4.5890      1.7700     78.3900
     22      4.9600      5.4750     -4.8690      1.6800     78.3900
     23      5.6190      5.0740     -4.2260      0.0100     78.3900
     24      4.7850      4.9830     -5.7250      0.0100     78.3900
     25      2.3020     10.2750     -0.9350      1.7700     78.3900
     26      1.6860      9.4920     -1.4190      0.0100     78.3900
     27      1.6760     11.5350     -1.0790      1.5900     78.3900
     28      0.8130     11.4560     -0.6540      0.0100     78.3900
     29      2.5630      9.9510      0.5330      1.7700     78.3900
     30      2.8810      8.8890      0.6470      0.0100     78.3900
     31      1.4980     10.3160      1.4410      1.5900     78.3900
     32      0.3540      9.2700      1.7340      2.1000     78.3900
     33      0.9700      7.9830      2.1170      1.5900     78.3900
     34     -0.5950      9.8620      2.6980      1.5900     78.3900
     35     -0.3600      9.1110      0.3430      1.5900     78.3900
     36     -1.2310     10.1650     -0.1340      1.7700     78.3900
     37     -0.7070     11.1470     -0.1790      0.0100     78.3900
     38     -2.1070     10.2980      0.5500      0.0100     78.3900
     39     -1.7550      9.8430     -1.5380      1.7700     78.3900
     40     -2.3390     10.7000     -1.9450      0.0100     78.3900
     41     -0.6470      9.5910     -2.4530      1.5900     78.3900
     42     -1.0070      8.5500     -3.3500      1.7700     78.3900
     43     -0.8990      8.9650     -4.3770      0.0100     78.3900
     44     -0.1230      7.3800     -3.2180      1.6800     78.3900
     45      0.0350      6.3850     -4.1470      1.7700     78.3900
     46     -0.8380      4.8890     -7.1550      1.6800     78.3900
     47     -1.5400      5.5020     -7.5140      0.0100     78.3900
     48     -0.6400      4.0360     -7.6440      0.0100     78.3900
     49     -0.6020      6.2980     -5.3310      1.6800     78.3900
     50     -0.2740      5.1900     -5.9980      1.7700     78.3900
     51      0.6570      4.2920     -5.5490      1.6800     78.3900
     52      0.8460      3.4840     -6.1210      0.0100     78.3900
     53      1.3530      4.3740     -4.3520      1.7700     78.3900
     54      2.1740      3.5100     -4.0360      1.5900     78.3900
     55      0.9720      5.5220     -3.6080      1.7700     78.3900
     56      1.3890      5.9610     -2.3570      1.6800     78.3900
     57      0.7050      7.0640     -2.1620      1.7700     78.3900
     58      0.7640      7.7000     -1.2780      0.0100     78.3900
     59     -2.4600      8.2100     -3.0920      1.7700     78.3900
     60     -2.6810      7.1330     -3.2550      0.0100     78.3900
     61     -3.2950      9.0050     -3.9150      1.5900     78.3900
     62     -4.2090      8.8040     -3.6590      0.0100     78.3900
     63     -2.6170      8.5820     -1.6200      1.7700     78.3900
     64     -2.1330      7.8200     -0.9670      0.0100     78.3900
     65     -3.9670      8.8900     -1.2100      1.5900     78.3900
     66     -4.9590      7.6980     -0.9550      2.1000     78.3900
     67     -4.1970      6.5740     -0.3580      1.5900     78.3900
     68     -6.1130      8.2110     -0.1930      1.5900     78.3900
     69     -5.4790      7.2780     -2.3820      1.5900     78.3900
     70     -6.1390      5.9890     -2.5490      1.7700     78.3900
     71     -7.2450      6.1160     -2.5170      0.0100     78.3900
     72     -5.8680      5.2560     -1.7500      0.0100     78.3900
     73     -5.7580      5.3280     -3.8880      1.7700     78.3900
     74     -6.2390      5.8590     -4.7360      0.0100     78.3900
     75     -4.3170      5.4210     -4.0950      1.5900     78.3900
     76     -3.8260      4.2380     -4.6920      1.7700     78.3900
     77     -3.3070      4.5650     -5.6240      0.0100     78.3900
     78     -2.8610      3.5210     -3.8030      1.6800     78.3900
     79     -2.7010      3.8820     -2.4790      1.7700     78.3900
     80     -3.3540      4.6820     -2.1180      0.0100     78.3900
     81     -2.0790      2.5260     -4.3530      1.7700     78.3900
     82     -2.1540      2.1990     -5.5330      1.5900     78.3900
     83     -1.1850      1.9400     -3.4970      1.6800     78.3900
     84     -0.6090      1.2040     -3.8820      0.0100     78.3900
     85     -0.9500      2.2700     -2.1820      1.7700     78.3900
     86     -0.0820      1.6810     -1.5440      1.5900     78.3900
     87     -1.7940      3.3090     -1.6740      1.7700     78.3900
     88     -1.6810      3.6050     -0.6340      0.0100     78.3900
     89     -5.0350      3.4000     -5.0600      1.7700     78.3900
     90     -4.8160      2.3200     -4.9970      0.0100     78.3900
     91     -5.4760      3.7200     -6.3670      1.5900     78.3900
     92     -6.3600      3.3360     -6.4760      0.0100     78.3900
     93     -6.0530      3.8220     -4.0120      1.7700     78.3900
     94     -5.7850      3.3720     -3.0280      0.0100     78.3900
     95     -7.4260      3.5810     -4.4120      1.5900     78.3900
     96     -8.3260      2.5670     -3.6090      2.1000     78.3900
     97     -8.2590      2.9320     -2.1770      1.5900     78.3900
     98     -9.6710      2.5230     -4.2230      1.5900     78.3900
     99     -7.6490      1.1620     -3.8050      1.5900     78.3900
    100     -7.4470      0.5710     -5.1050      1.7700     78.3900
    101     -7.1190      1.3250     -5.8640      0.0100     78.3900
    102     -8.4010      0.1280     -5.4650      0.0100     78.3900
    103     -6.3940     -0.5480     -5.0430      1.7700     78.3900
    104     -6.2730     -1.0420     -6.0320      0.0100     78.3900
    105     -5.1040      0.0350     -4.6930      1.5900     78.3900
    106     -4.4250     -0.8000     -3.7760      1.7700     78.3900
    107     -3.4180     -0.9820     -4.2120      0.0100     78.3900
    108     -4.2500     -0.1460     -2.4570      1.6800     78.3900
    109     -3.2600     -0.3820     -1.5260      1.7700     78.3900
    110     -0.3820     -2.0370     -0.5190      1.6800     78.3900
    111      0.2520     -1.9990      0.2520      0.0100     78.3900
    112     -0.1550     -2.6440     -1.2830      0.0100     78.3900
    113     -2.2550     -1.2720     -1.6400      1.6800     78.3900
    114     -1.4320     -1.2420     -0.5870      1.7700     78.3900
    115     -1.6020     -0.4030      0.4810      1.6800     78.3900
    116     -0.9220     -0.4240      1.2210      0.0100     78.3900
    117     -2.6170      0.5320      0.6160      1.7700     78.3900
    118     -2.6980      1.2720      1.6020      1.5900     78.3900
    119     -3.5060      0.5000     -0.4900      1.7700     78.3900
    120     -4.6320      1.2660     -0.7480      1.6800     78.3900
    121     -5.0300      0.8590     -1.9260      1.7700     78.3900
    122     -5.8990      1.2460     -2.4480      0.0100     78.3900
    123     -5.2000     -2.1020     -3.7080      1.7700     78.3900
    124     -5.1320     -2.5810     -2.7090      0.0100     78.3900
    125     -4.7590     -2.9900     -4.7290      1.5900     78.3900
    126     -3.7950     -3.0120     -4.7790      0.0100     78.3900
    127     -6.6270     -1.6310     -3.9760      1.7700     78.3900
    128     -7.0260     -1.1080     -3.0770      0.0100     78.3900
    129     -7.5200     -2.6530     -4.4820      1.5900     78.3900
    130     -8.4920     -3.4090     -3.5090      2.1000     78.3900
    131     -8.2480     -2.9620     -2.1120      1.5900     78.3900
    132     -9.8660     -3.2790     -4.0150      1.5900     78.3900
    133     -8.0810     -4.9240     -3.5860      1.5900     78.3900
    134     -8.3200     -5.7240     -4.7640      1.7700     78.3900
    135     -8.2720     -5.1140     -5.6950      0.0100     78.3900
    136     -9.3370     -6.1780     -4.7200      0.0100     78.3900
    137     -7.2690     -6.8350     -4.9030      1.7700     78.3900
    138     -7.4330     -7.4150     -5.8370      0.0100     78.3900
    139     -5.9450     -6.2300     -5.0050      1.5900     78.3900
    140     -5.0110     -7.0120     -4.2760      1.7700     78.3900
    141     -4.1610     -7.2250     -4.9630      0.0100     78.3900
    142     -4.4950     -6.2950     -3.0990      1.6800     78.3900
    143     -3.3710     -6.5940     -2.3740      1.7700     78.3900
    144     -0.5820     -8.5590     -1.7930      1.6800     78.3900
    145     -0.6560     -9.2690     -2.4920      0.0100     78.3900
    146      0.2060     -8.5630     -1.1700      0.0100     78.3900
    147     -2.5240     -7.6170     -2.6000      1.6800     78.3900
    148     -1.5070     -7.6220     -1.7430      1.7700     78.3900
    149     -1.3310     -6.6690     -0.7750      1.6800     78.3900
    150     -0.5270     -6.7360     -0.1710      0.0100     78.3900
    151     -2.1770     -5.6020     -0.5240      1.7700     78.3900
    152     -1.9470     -4.7890      0.3740      1.5900     78.3900
    153     -3.2890     -5.6130     -1.4000      1.7700     78.3900
    154     -4.3570     -4.7380     -1.4900      1.6800     78.3900
    155     -5.0450     -5.1830     -2.5110      1.7700     78.3900
    156     -5.9360     -4.7080     -2.9210      0.0100     78.3900
    157     -5.7090     -8.2990     -3.9060      1.7700     78.3900
    158     -5.3060     -8.7420     -2.9760      0.0100     78.3900
    159     -5.5770     -9.2220     -4.9710      1.5900     78.3900
    160     -6.1200     -9.9860     -4.7490      0.0100     78.3900
    161     -7.1570     -7.8310     -3.7390      1.7700     78.3900
    162     -7.2680     -7.2340     -2.8040      0.0100     78.3900
    163     -8.1660     -8.8680     -3.8730      1.5900     78.3900
    164     -8.6460     -9.6190     -2.5660      2.1000     78.3900
    165     -8.9760     -8.6160     -1.5270      1.5900     78.3900
    166     -9.7120    -10.5850     -2.9270      1.5900     78.3900
    167     -7.3670    -10.4130     -2.1040      1.5900     78.3900
    168     -6.8530    -11.5240     -2.8710      1.7700     78.3900
    169     -6.6410    -11.2340     -3.9210      0.0100     78.3900
    170     -7.5920    -12.3560     -2.9020      0.0100     78.3900
    171     -5.5670    -12.0880     -2.2550      1.7700     78.3900
    172     -5.1810    -12.9460     -2.8450      0.0100     78.3900
    173     -4.5230    -11.0720     -2.2280      1.5900     78.3900
    174     -3.8000    -11.1800     -1.0080      1.7700     78.3900
    175     -2.7350    -11.3190     -1.3050      0.0100     78.3900
    176     -3.9030     -9.9530     -0.1650      1.6800     78.3900
    177     -4.9330     -9.0630     -0.3550      1.7700     78.3900
    178     -5.6450     -9.3160     -1.1340      0.0100     78.3900
    179     -5.0330     -7.9370      0.3660      1.7700     78.3900
    180     -5.8250     -7.2100      0.2030      0.0100     78.3900
    181     -2.9650     -9.7130      0.8330      1.7700     78.3900
    182     -2.0580    -10.5370      1.0210      1.5900     78.3900
    183     -3.0480     -8.5840      1.5760      1.6800     78.3900
    184     -4.0460     -7.7070      1.3640      1.7700     78.3900
    185     -4.0960     -6.5980      2.0990      1.6800     78.3900
    186     -3.4050     -6.4410      2.8070      0.0100     78.3900
    187     -4.7990     -5.9010      1.9570      0.0100     78.3900
    188     -4.2800    -12.4370     -0.2940      1.7700     78.3900
    189     -4.2500    -12.3340      0.8130      0.0100     78.3900
    190     -3.4970    -13.5500     -0.7010      1.5900     78.3900
    191     -3.8900    -14.3710     -0.3600      0.0100     78.3900
    192     -5.7160    -12.5290     -0.7950      1.7700     78.3900
    193     -6.3540    -11.7840     -0.2730      0.0100     78.3900
    194     -6.3000    -13.8410     -0.7190      1.5900     78.3900
    195     -6.3860    -14.1130      0.2140      0.0100     78.3900
    196      3.8570     -4.4000      9.4540      0.0100     78.3900
    197      3.7530     -5.0960      8.7750      1.5900     78.3900
    198      4.6100     -6.1820      9.1530      1.7700     78.3900
    199      4.3480     -6.5170     10.1820      0.0100     78.3900
    200      5.6650     -5.8280      9.1710      0.0100     78.3900
    201      4.5130     -7.3890      8.2110      1.7700     78.3900
    202      5.2280     -8.1810      8.5160      0.0100     78.3900
    203      3.1740     -7.9690      8.2720      1.5900     78.3900
    204      2.7820     -8.3670      6.9620      1.7700     78.3900
    205      2.4930     -9.4410      7.0220      0.0100     78.3900
    206      1.6350     -7.5930      6.4760      1.6800     78.3900
    207      0.8050     -7.9530      5.4530      1.7700     78.3900
    208     -0.0900    -10.1730      2.9540      1.6800     78.3900
    209      0.6060    -10.8850      3.0280      0.0100     78.3900
    210     -0.8120    -10.2710      2.2650      0.0100     78.3900
    211      0.9120     -9.0660      4.7080      1.6800     78.3900
    212     -0.0500     -9.1570      3.7950      1.7700     78.3900
    213     -1.0530     -8.2310      3.6640      1.6800     78.3900
    214     -1.7500     -8.3820      2.9540      0.0100     78.3900
    215     -1.1990     -7.0790      4.4310      1.7700     78.3900
    216     -2.1330     -6.2920      4.2470      1.5900     78.3900
    217     -0.1470     -6.9540      5.3770      1.7700     78.3900
    218      0.1040     -5.9600      6.3160      1.6800     78.3900
    219      1.1820     -6.3790      6.9410      1.7700     78.3900
    220      1.6840     -5.8640      7.7630      0.0100     78.3900
    221      3.9860     -8.2270      6.0580      1.7700     78.3900
    222      3.7100     -7.9810      5.0120      0.0100     78.3900
    223      4.7520     -9.4160      6.0770      1.5900     78.3900
    224      5.5360     -9.2460      5.5410      0.0100     78.3900
    225      4.7300     -7.0790      6.7220      1.7700     78.3900
    226      4.2020     -6.1160      6.5220      0.0100     78.3900
    227      6.1450     -7.0370      6.4280      1.5900     78.3900
    228      6.6650     -6.0710      5.3030      2.1000     78.3900
    229      5.9740     -4.7730      5.4270      1.5900     78.3900
    230      8.1420     -6.0420      5.3460      1.5900     78.3900
    231      6.2030     -6.7660      3.9660      1.5900     78.3900
    232      6.7880     -8.0340      3.5800      1.7700     78.3900
    233      6.6970     -8.7950      4.3880      0.0100     78.3900
    234      7.8750     -7.9100      3.3620      0.0100     78.3900
    235      6.1220     -8.6010      2.3160      1.7700     78.3900
    236      6.6420     -9.5250      1.9810      0.0100     78.3900
    237      4.7410     -8.9670      2.5890      1.5900     78.3900
    238      3.9490     -8.6890      1.4350      1.7700     78.3900
    239      3.4680     -9.6540      1.1520      0.0100     78.3900
    240      2.8940     -7.6680      1.6970      1.6800     78.3900
    241      3.0560     -6.7720      2.7290      1.7700     78.3900
    242      3.9570     -6.8970      3.3270      0.0100     78.3900
    243      2.1330     -5.8420      3.0020      1.7700     78.3900
    244      2.2310     -5.1610      3.8420      0.0100     78.3900
    245      1.7710     -7.5770      0.8780      1.7700     78.3900
    246      1.6400     -8.3670     -0.0700      1.5900     78.3900
    247      0.8350     -6.6310      1.1300      1.6800     78.3900
    248      0.9920     -5.7760      2.1550      1.7700     78.3900
    249      0.0510     -4.8610      2.3770      1.6800     78.3900
    250     -0.7370     -4.8190      1.7550      0.0100     78.3900
    251      0.0740     -4.2510      3.1720      0.0100     78.3900
    252      4.8970     -8.2620      0.3240      1.7700     78.3900
    253      4.4350     -7.5220     -0.3640      0.0100     78.3900
    254      5.3440     -9.3870     -0.4140      1.5900     78.3900
    255      6.0340     -9.0830     -1.0260      0.0100     78.3900
    256      6.0310     -7.6320      1.1310      1.7700     78.3900
    257      5.7180     -6.6430      1.5320      0.0100     78.3900
    258      7.3060     -7.5640      0.4790      1.5900     78.3900
    259      7.5890     -6.6430     -0.7540      2.1000     78.3900
    260      8.7810     -5.8230     -0.4330      1.5900     78.3900
    261      7.6880     -7.5120     -1.9460      1.5900     78.3900
    262      6.3320     -5.6940     -0.8610      1.5900     78.3900
    263      6.0710     -4.9730     -2.0880      1.7700     78.3900
    264      7.0040     -4.5560     -2.5300      0.0100     78.3900
    265      5.4260     -4.0970     -1.8510      0.0100     78.3900
    266      5.3380     -5.8310     -3.1320      1.7700     78.3900
    267      5.9240     -6.7410     -3.3860      0.0100     78.3900
    268      4.0590     -6.2670     -2.5980      1.5900     78.3900
    269      3.1160     -6.3550     -3.6500      1.7700     78.3900
    270      2.7550     -7.4090     -3.6840      0.0100     78.3900
    271      1.9870     -5.4630     -3.4080      1.6800     78.3900
    272      0.0410     -4.4550     -3.5180      1.7700     78.3900
    273      0.7250     -3.8580     -2.4740      1.6800     78.3900
    274      1.8720     -4.4940     -2.4400      1.7700     78.3900
    275      2.6860     -4.2990     -1.7350      0.0100     78.3900
    276     -1.6370     -5.0300     -5.0720      1.6800     78.3900
    277     -0.7750     -5.9320     -5.5480      1.7700     78.3900
    278     -1.1410     -6.5140     -6.4030      0.0100     78.3900
    279      0.4610     -6.2260     -5.1310      1.6800     78.3900
    280      0.8080     -5.4450     -4.1030      1.7700     78.3900
    281     -1.2530     -4.2580     -4.0350      1.7700     78.3900
    282     -2.1420     -3.3930     -3.5300      1.6800     78.3900
    283     -1.8850     -2.7320     -2.8100      0.0100     78.3900
    284     -3.0840     -3.7140     -3.4570      0.0100     78.3900
    285      3.8390     -6.0220     -4.9390      1.7700     78.3900
    286      3.2000     -5.4770     -5.6630      0.0100     78.3900
    287      4.3240     -7.2120     -5.5320      1.5900     78.3900
    288      4.9610     -6.9520     -6.2110      0.0100     78.3900
    289      4.9790     -5.1350     -4.4510      1.7700     78.3900
    290      4.6150     -4.1160     -4.1880      0.0100     78.3900
    291      6.1190     -5.1200     -5.3340      1.5900     78.3900
    292      6.2970     -3.9770     -6.3930      2.1000     78.3900
    293      6.3240     -2.6980     -5.6560      1.5900     78.3900
    294      7.4850     -4.3060     -7.2180      1.5900     78.3900
    295      4.9960     -4.0220     -7.2770      1.5900     78.3900
    296      4.7690     -5.0740     -8.2460      1.7700     78.3900
    297      4.8170     -6.0770     -7.7710      0.0100     78.3900
    298      5.5390     -5.0390     -9.0510      0.0100     78.3900
    299      3.3820     -4.9390     -8.9080      1.7700     78.3900
    300      3.2030     -5.7740     -9.6150      0.0100     78.3900
    301      2.3240     -5.0060     -7.9030      1.5900     78.3900
    302      1.2910     -4.0850     -8.2330      1.7700     78.3900
    303      0.3650     -4.7030     -8.3180      0.0100     78.3900
    304      1.0980     -3.0380     -7.1890      1.6800     78.3900
    305      2.0970     -2.6960     -6.3100      1.7700     78.3900
    306      3.0390     -3.2230     -6.4580      0.0100     78.3900
    307     -0.1200     -2.4060     -7.1530      1.7700     78.3900
    308     -1.0090     -2.6550     -7.9580      1.5900     78.3900
    309     -0.2660     -1.4730     -6.1570      1.6800     78.3900
    310     -1.1560     -1.0090     -6.1340      0.0100     78.3900
    311      0.6720     -1.1010     -5.2180      1.7700     78.3900
    312      0.3970     -0.2400     -4.3850      1.5900     78.3900
    313      1.9320     -1.7810     -5.3410      1.7700     78.3900
    314      2.7390     -1.5260     -4.6550      0.0100     78.3900
    315      1.6150     -3.5060     -9.6010      1.7700     78.3900
    316      1.2990     -2.4470     -9.6920      0.0100     78.3900
    317      1.0000     -4.2720    -10.6200      1.5900     78.3900
    318      1.4030     -3.9950    -11.4530      0.0100     78.3900
    319      3.1340     -3.6260     -9.6540      1.7700     78.3900
    320      3.6030     -2.8250     -9.0360      0.0100     78.3900
    321      3.6800     -3.7150    -10.9890      1.5900     78.3900
    322      4.3710     -2.4710    -11.6480      2.1000     78.3900
    323      5.4200     -1.9450    -10.7460      1.5900     78.3900
    324      4.8000     -2.8200    -13.0160      1.5900     78.3900
    325      3.2180     -1.4090    -11.7170      1.5900     78.3900
    326      2.1490     -1.5250    -12.6790      1.7700     78.3900
    327      1.6510     -2.5200    -12.6150      0.0100     78.3900
    328      2.5520     -1.4090    -13.7120      0.0100     78.3900
    329      1.0780     -0.4420    -12.4640      1.7700     78.3900
    330      0.2860     -0.5190    -13.2370      0.0100     78.3900
    331      0.4170     -0.6320    -11.1740      1.5900     78.3900
    332      0.1780      0.6450    -10.5790      1.7700     78.3900
    333     -0.9090      0.6690    -10.3420      0.0100     78.3900
    334      0.9530      0.8610     -9.3170      1.6800     78.3900
    335      2.1030      0.1440     -9.0820      1.7700     78.3900
    336      2.3610     -0.5950     -9.8350      0.0100     78.3900
    337      2.8250      0.3170     -7.9660      1.7700     78.3900
    338      3.7230     -0.2630     -7.7590      0.0100     78.3900
    339      0.5780      1.8580     -8.4210      1.7700     78.3900
    340     -0.3880      2.5830     -8.6930      1.5900     78.3900
    341      1.2750      2.0270     -7.2720      1.6800     78.3900
    342      2.3630      1.2780     -7.0240      1.7700     78.3900
    343      3.0010      1.4310     -5.8640      1.6800     78.3900
    344      2.6910      2.1370     -5.2220      0.0100     78.3900
    345      3.8680      0.9710     -5.6650      0.0100     78.3900
    346      0.4690      1.6960    -11.6330      1.7700     78.3900
    347      0.8230      2.6510    -11.1940      0.0100     78.3900
    348     -0.6870      1.9400    -12.4200      1.5900     78.3900
    349     -0.4160      2.5140    -13.1490      0.0100     78.3900
    350      1.5720      1.0110    -12.4340      1.7700     78.3900
    351      2.5230      1.0130    -11.8530      0.0100     78.3900
    352      1.7270      1.4950    -13.7800      1.5900     78.3900
    353      2.8970      2.4700    -14.1530      2.1000     78.3900
    354      4.1270      2.0640    -13.4430      1.5900     78.3900
    355      2.9760      2.5750    -15.6290      1.5900     78.3900
    356      2.4240      3.8460    -13.5570      1.5900     78.3900
    357      1.2540      4.5010    -14.0960      1.7700     78.3900
    358      0.3670      3.8270    -14.0920      0.0100     78.3900
    359      1.4420      4.8240    -15.1480      0.0100     78.3900
    360      0.9010      5.7500    -13.2810      1.7700     78.3900
    361      0.0640      6.3060    -13.7550      0.0100     78.3900
    362      0.4600      5.3660    -11.9450      1.5900     78.3900
    363      0.9490      6.3060    -10.9970      1.7700     78.3900
    364      0.0540      6.6980    -10.4610      0.0100     78.3900
    365      1.8900      5.6760    -10.0240      1.6800     78.3900
    366      2.5270      4.4880    -10.3120      1.7700     78.3900
    367      2.2890      4.0580    -11.2830      0.0100     78.3900
    368      2.1060      6.3130     -8.8230      1.7700     78.3900
    369      1.5620      7.3730     -8.5300      1.5900     78.3900
    370      2.9780      5.6780     -7.9770      1.6800     78.3900
    371      3.1680      6.1630     -7.1070      0.0100     78.3900
    372      3.6460      4.4920     -8.1950      1.7700     78.3900
    373      4.4070      4.0460     -7.3390      1.5900     78.3900
    374      3.3600      3.8790     -9.4570      1.7700     78.3900
    375      3.8430      2.9360     -9.7070      0.0100     78.3900
    376      1.5970      7.4450    -11.7810      1.7700     78.3900
    377      2.4590      7.8830    -11.2350      0.0100     78.3900
    378      0.6370      8.4540    -12.0570      1.5900     78.3900
    379      1.0160      9.0730    -12.7060      0.0100     78.3900
    380      2.0640      6.7250    -13.0430      1.7700     78.3900
    381      2.9830      6.1380    -12.8350      0.0100     78.3900
    382      2.2430      7.5830    -14.1830      1.5900     78.3900
    383      2.9990      8.1780    -14.0350      0.0100     78.3900

     ----------------------------
     INPUT FOR TESSERA DEFINITION
     ----------------------------
     NTSALL  =        60     MTHALL  =         4
     MTHAUT  =         0     AUTFRE  =    2.0000
     NTSFRZ  =        60     KEEPSM  =         0
     AREAKP  =   10.0000     BONDRY  =    1.0000
     AREATL  =    0.0100

     SPHERE     INITS       METHOD
          1        60       FIXPVA
          2        60       FIXPVA
          3        60       FIXPVA
          4        60       FIXPVA
          5        60       FIXPVA
          6        60       FIXPVA
          7        60       FIXPVA
          8        60       FIXPVA
          9        60       FIXPVA
         10        60       FIXPVA
         11        60       FIXPVA
         12        60       FIXPVA
         13        60       FIXPVA
         14        60       FIXPVA
         15        60       FIXPVA
         16        60       FIXPVA
         17        60       FIXPVA
         18        60       FIXPVA
         19        60       FIXPVA
         20        60       FIXPVA
         21        60       FIXPVA
         22        60       FIXPVA
         23        60       FIXPVA
         24        60       FIXPVA
         25        60       FIXPVA
         26        60       FIXPVA
         27        60       FIXPVA
         28        60       FIXPVA
         29        60       FIXPVA
         30        60       FIXPVA
         31        60       FIXPVA
         32        60       FIXPVA
         33        60       FIXPVA
         34        60       FIXPVA
         35        60       FIXPVA
         36        60       FIXPVA
         37        60       FIXPVA
         38        60       FIXPVA
         39        60       FIXPVA
         40        60       FIXPVA
         41        60       FIXPVA
         42        60       FIXPVA
         43        60       FIXPVA
         44        60       FIXPVA
         45        60       FIXPVA
         46        60       FIXPVA
         47        60       FIXPVA
         48        60       FIXPVA
         49        60       FIXPVA
         50        60       FIXPVA
         51        60       FIXPVA
         52        60       FIXPVA
         53        60       FIXPVA
         54        60       FIXPVA
         55        60       FIXPVA
         56        60       FIXPVA
         57        60       FIXPVA
         58        60       FIXPVA
         59        60       FIXPVA
         60        60       FIXPVA
         61        60       FIXPVA
         62        60       FIXPVA
         63        60       FIXPVA
         64        60       FIXPVA
         65        60       FIXPVA
         66        60       FIXPVA
         67        60       FIXPVA
         68        60       FIXPVA
         69        60       FIXPVA
         70        60       FIXPVA
         71        60       FIXPVA
         72        60       FIXPVA
         73        60       FIXPVA
         74        60       FIXPVA
         75        60       FIXPVA
         76        60       FIXPVA
         77        60       FIXPVA
         78        60       FIXPVA
         79        60       FIXPVA
         80        60       FIXPVA
         81        60       FIXPVA
         82        60       FIXPVA
         83        60       FIXPVA
         84        60       FIXPVA
         85        60       FIXPVA
         86        60       FIXPVA
         87        60       FIXPVA
         88        60       FIXPVA
         89        60       FIXPVA
         90        60       FIXPVA
         91        60       FIXPVA
         92        60       FIXPVA
         93        60       FIXPVA
         94        60       FIXPVA
         95        60       FIXPVA
         96        60       FIXPVA
         97        60       FIXPVA
         98        60       FIXPVA
         99        60       FIXPVA
        100        60       FIXPVA
        101        60       FIXPVA
        102        60       FIXPVA
        103        60       FIXPVA
        104        60       FIXPVA
        105        60       FIXPVA
        106        60       FIXPVA
        107        60       FIXPVA
        108        60       FIXPVA
        109        60       FIXPVA
        110        60       FIXPVA
        111        60       FIXPVA
        112        60       FIXPVA
        113        60       FIXPVA
        114        60       FIXPVA
        115        60       FIXPVA
        116        60       FIXPVA
        117        60       FIXPVA
        118        60       FIXPVA
        119        60       FIXPVA
        120        60       FIXPVA
        121        60       FIXPVA
        122        60       FIXPVA
        123        60       FIXPVA
        124        60       FIXPVA
        125        60       FIXPVA
        126        60       FIXPVA
        127        60       FIXPVA
        128        60       FIXPVA
        129        60       FIXPVA
        130        60       FIXPVA
        131        60       FIXPVA
        132        60       FIXPVA
        133        60       FIXPVA
        134        60       FIXPVA
        135        60       FIXPVA
        136        60       FIXPVA
        137        60       FIXPVA
        138        60       FIXPVA
        139        60       FIXPVA
        140        60       FIXPVA
        141        60       FIXPVA
        142        60       FIXPVA
        143        60       FIXPVA
        144        60       FIXPVA
        145        60       FIXPVA
        146        60       FIXPVA
        147        60       FIXPVA
        148        60       FIXPVA
        149        60       FIXPVA
        150        60       FIXPVA
        151        60       FIXPVA
        152        60       FIXPVA
        153        60       FIXPVA
        154        60       FIXPVA
        155        60       FIXPVA
        156        60       FIXPVA
        157        60       FIXPVA
        158        60       FIXPVA
        159        60       FIXPVA
        160        60       FIXPVA
        161        60       FIXPVA
        162        60       FIXPVA
        163        60       FIXPVA
        164        60       FIXPVA
        165        60       FIXPVA
        166        60       FIXPVA
        167        60       FIXPVA
        168        60       FIXPVA
        169        60       FIXPVA
        170        60       FIXPVA
        171        60       FIXPVA
        172        60       FIXPVA
        173        60       FIXPVA
        174        60       FIXPVA
        175        60       FIXPVA
        176        60       FIXPVA
        177        60       FIXPVA
        178        60       FIXPVA
        179        60       FIXPVA
        180        60       FIXPVA
        181        60       FIXPVA
        182        60       FIXPVA
        183        60       FIXPVA
        184        60       FIXPVA
        185        60       FIXPVA
        186        60       FIXPVA
        187        60       FIXPVA
        188        60       FIXPVA
        189        60       FIXPVA
        190        60       FIXPVA
        191        60       FIXPVA
        192        60       FIXPVA
        193        60       FIXPVA
        194        60       FIXPVA
        195        60       FIXPVA
        196        60       FIXPVA
        197        60       FIXPVA
        198        60       FIXPVA
        199        60       FIXPVA
        200        60       FIXPVA
        201        60       FIXPVA
        202        60       FIXPVA
        203        60       FIXPVA
        204        60       FIXPVA
        205        60       FIXPVA
        206        60       FIXPVA
        207        60       FIXPVA
        208        60       FIXPVA
        209        60       FIXPVA
        210        60       FIXPVA
        211        60       FIXPVA
        212        60       FIXPVA
        213        60       FIXPVA
        214        60       FIXPVA
        215        60       FIXPVA
        216        60       FIXPVA
        217        60       FIXPVA
        218        60       FIXPVA
        219        60       FIXPVA
        220        60       FIXPVA
        221        60       FIXPVA
        222        60       FIXPVA
        223        60       FIXPVA
        224        60       FIXPVA
        225        60       FIXPVA
        226        60       FIXPVA
        227        60       FIXPVA
        228        60       FIXPVA
        229        60       FIXPVA
        230        60       FIXPVA
        231        60       FIXPVA
        232        60       FIXPVA
        233        60       FIXPVA
        234        60       FIXPVA
        235        60       FIXPVA
        236        60       FIXPVA
        237        60       FIXPVA
        238        60       FIXPVA
        239        60       FIXPVA
        240        60       FIXPVA
        241        60       FIXPVA
        242        60       FIXPVA
        243        60       FIXPVA
        244        60       FIXPVA
        245        60       FIXPVA
        246        60       FIXPVA
        247        60       FIXPVA
        248        60       FIXPVA
        249        60       FIXPVA
        250        60       FIXPVA
        251        60       FIXPVA
        252        60       FIXPVA
        253        60       FIXPVA
        254        60       FIXPVA
        255        60       FIXPVA
        256        60       FIXPVA
        257        60       FIXPVA
        258        60       FIXPVA
        259        60       FIXPVA
        260        60       FIXPVA
        261        60       FIXPVA
        262        60       FIXPVA
        263        60       FIXPVA
        264        60       FIXPVA
        265        60       FIXPVA
        266        60       FIXPVA
        267        60       FIXPVA
        268        60       FIXPVA
        269        60       FIXPVA
        270        60       FIXPVA
        271        60       FIXPVA
        272        60       FIXPVA
        273        60       FIXPVA
        274        60       FIXPVA
        275        60       FIXPVA
        276        60       FIXPVA
        277        60       FIXPVA
        278        60       FIXPVA
        279        60       FIXPVA
        280        60       FIXPVA
        281        60       FIXPVA
        282        60       FIXPVA
        283        60       FIXPVA
        284        60       FIXPVA
        285        60       FIXPVA
        286        60       FIXPVA
        287        60       FIXPVA
        288        60       FIXPVA
        289        60       FIXPVA
        290        60       FIXPVA
        291        60       FIXPVA
        292        60       FIXPVA
        293        60       FIXPVA
        294        60       FIXPVA
        295        60       FIXPVA
        296        60       FIXPVA
        297        60       FIXPVA
        298        60       FIXPVA
        299        60       FIXPVA
        300        60       FIXPVA
        301        60       FIXPVA
        302        60       FIXPVA
        303        60       FIXPVA
        304        60       FIXPVA
        305        60       FIXPVA
        306        60       FIXPVA
        307        60       FIXPVA
        308        60       FIXPVA
        309        60       FIXPVA
        310        60       FIXPVA
        311        60       FIXPVA
        312        60       FIXPVA
        313        60       FIXPVA
        314        60       FIXPVA
        315        60       FIXPVA
        316        60       FIXPVA
        317        60       FIXPVA
        318        60       FIXPVA
        319        60       FIXPVA
        320        60       FIXPVA
        321        60       FIXPVA
        322        60       FIXPVA
        323        60       FIXPVA
        324        60       FIXPVA
        325        60       FIXPVA
        326        60       FIXPVA
        327        60       FIXPVA
        328        60       FIXPVA
        329        60       FIXPVA
        330        60       FIXPVA
        331        60       FIXPVA
        332        60       FIXPVA
        333        60       FIXPVA
        334        60       FIXPVA
        335        60       FIXPVA
        336        60       FIXPVA
        337        60       FIXPVA
        338        60       FIXPVA
        339        60       FIXPVA
        340        60       FIXPVA
        341        60       FIXPVA
        342        60       FIXPVA
        343        60       FIXPVA
        344        60       FIXPVA
        345        60       FIXPVA
        346        60       FIXPVA
        347        60       FIXPVA
        348        60       FIXPVA
        349        60       FIXPVA
        350        60       FIXPVA
        351        60       FIXPVA
        352        60       FIXPVA
        353        60       FIXPVA
        354        60       FIXPVA
        355        60       FIXPVA
        356        60       FIXPVA
        357        60       FIXPVA
        358        60       FIXPVA
        359        60       FIXPVA
        360        60       FIXPVA
        361        60       FIXPVA
        362        60       FIXPVA
        363        60       FIXPVA
        364        60       FIXPVA
        365        60       FIXPVA
        366        60       FIXPVA
        367        60       FIXPVA
        368        60       FIXPVA
        369        60       FIXPVA
        370        60       FIXPVA
        371        60       FIXPVA
        372        60       FIXPVA
        373        60       FIXPVA
        374        60       FIXPVA
        375        60       FIXPVA
        376        60       FIXPVA
        377        60       FIXPVA
        378        60       FIXPVA
        379        60       FIXPVA
        380        60       FIXPVA
        381        60       FIXPVA
        382        60       FIXPVA
        383        60       FIXPVA

     ------------------------------
      FIXPVA TESSELLATION FOR PCM
         PEIFENG SU AND HUI LI
     UNIVERSITY OF NEBRASKA-LINCOLN
     ------------------------------


 PCM DIMENSIONS: MXSP=   383, MXTS=     15320, MEMORY=        157416

     INPUT FOR CAVITY DEFINITION 
     ---------------------------
   ATOM               COORDINATES                RADIUS       EPS
      1      5.6230      8.7820      2.6500      0.0100     78.3900
      2      5.1240      8.9940      1.8360      1.5900     78.3900
      3      4.6780     10.3520      1.9710      1.7700     78.3900
      4      5.5650     11.0210      2.0430      0.0100     78.3900
      5      4.0990     10.4560      2.9170      0.0100     78.3900
      6      3.8030     10.8180      0.8030      1.7700     78.3900
      7      3.4710     11.8660      0.9520      0.0100     78.3900
      8      4.5600     10.7740     -0.4460      1.5900     78.3900
      9      3.7050     10.3350     -1.4900      1.7700     78.3900
     10      3.7520     11.1140     -2.2870      0.0100     78.3900
     11      4.1510      9.0550     -2.0500      1.6800     78.3900
     12      4.4820      7.3410     -3.3880      1.7700     78.3900
     13      5.2610      7.1090     -2.2610      1.6800     78.3900
     14      5.0190      8.1460     -1.4920      1.7700     78.3900
     15      5.4640      8.3200     -0.5090      0.0100     78.3900
     16      3.4550      7.1310     -5.5140      1.6800     78.3900
     17      2.8310      8.2830     -5.2390      1.7700     78.3900
     18      2.1570      8.6520     -6.0210      0.0100     78.3900
     19      2.9420      9.0680     -4.1600      1.6800     78.3900
     20      3.7860      8.5300     -3.2650      1.7700     78.3900
     21      4.3060      6.6180     -4.5890      1.7700     78.3900
     22      4.9600      5.4750     -4.8690      1.6800     78.3900
     23      5.6190      5.0740     -4.2260      0.0100     78.3900
     24      4.7850      4.9830     -5.7250      0.0100     78.3900
     25      2.3020     10.2750     -0.9350      1.7700     78.3900
     26      1.6860      9.4920     -1.4190      0.0100     78.3900
     27      1.6760     11.5350     -1.0790      1.5900     78.3900
     28      0.8130     11.4560     -0.6540      0.0100     78.3900
     29      2.5630      9.9510      0.5330      1.7700     78.3900
     30      2.8810      8.8890      0.6470      0.0100     78.3900
     31      1.4980     10.3160      1.4410      1.5900     78.3900
     32      0.3540      9.2700      1.7340      2.1000     78.3900
     33      0.9700      7.9830      2.1170      1.5900     78.3900
     34     -0.5950      9.8620      2.6980      1.5900     78.3900
     35     -0.3600      9.1110      0.3430      1.5900     78.3900
     36     -1.2310     10.1650     -0.1340      1.7700     78.3900
     37     -0.7070     11.1470     -0.1790      0.0100     78.3900
     38     -2.1070     10.2980      0.5500      0.0100     78.3900
     39     -1.7550      9.8430     -1.5380      1.7700     78.3900
     40     -2.3390     10.7000     -1.9450      0.0100     78.3900
     41     -0.6470      9.5910     -2.4530      1.5900     78.3900
     42     -1.0070      8.5500     -3.3500      1.7700     78.3900
     43     -0.8990      8.9650     -4.3770      0.0100     78.3900
     44     -0.1230      7.3800     -3.2180      1.6800     78.3900
     45      0.0350      6.3850     -4.1470      1.7700     78.3900
     46     -0.8380      4.8890     -7.1550      1.6800     78.3900
     47     -1.5400      5.5020     -7.5140      0.0100     78.3900
     48     -0.6400      4.0360     -7.6440      0.0100     78.3900
     49     -0.6020      6.2980     -5.3310      1.6800     78.3900
     50     -0.2740      5.1900     -5.9980      1.7700     78.3900
     51      0.6570      4.2920     -5.5490      1.6800     78.3900
     52      0.8460      3.4840     -6.1210      0.0100     78.3900
     53      1.3530      4.3740     -4.3520      1.7700     78.3900
     54      2.1740      3.5100     -4.0360      1.5900     78.3900
     55      0.9720      5.5220     -3.6080      1.7700     78.3900
     56      1.3890      5.9610     -2.3570      1.6800     78.3900
     57      0.7050      7.0640     -2.1620      1.7700     78.3900
     58      0.7640      7.7000     -1.2780      0.0100     78.3900
     59     -2.4600      8.2100     -3.0920      1.7700     78.3900
     60     -2.6810      7.1330     -3.2550      0.0100     78.3900
     61     -3.2950      9.0050     -3.9150      1.5900     78.3900
     62     -4.2090      8.8040     -3.6590      0.0100     78.3900
     63     -2.6170      8.5820     -1.6200      1.7700     78.3900
     64     -2.1330      7.8200     -0.9670      0.0100     78.3900
     65     -3.9670      8.8900     -1.2100      1.5900     78.3900
     66     -4.9590      7.6980     -0.9550      2.1000     78.3900
     67     -4.1970      6.5740     -0.3580      1.5900     78.3900
     68     -6.1130      8.2110     -0.1930      1.5900     78.3900
     69     -5.4790      7.2780     -2.3820      1.5900     78.3900
     70     -6.1390      5.9890     -2.5490      1.7700     78.3900
     71     -7.2450      6.1160     -2.5170      0.0100     78.3900
     72     -5.8680      5.2560     -1.7500      0.0100     78.3900
     73     -5.7580      5.3280     -3.8880      1.7700     78.3900
     74     -6.2390      5.8590     -4.7360      0.0100     78.3900
     75     -4.3170      5.4210     -4.0950      1.5900     78.3900
     76     -3.8260      4.2380     -4.6920      1.7700     78.3900
     77     -3.3070      4.5650     -5.6240      0.0100     78.3900
     78     -2.8610      3.5210     -3.8030      1.6800     78.3900
     79     -2.7010      3.8820     -2.4790      1.7700     78.3900
     80     -3.3540      4.6820     -2.1180      0.0100     78.3900
     81     -2.0790      2.5260     -4.3530      1.7700     78.3900
     82     -2.1540      2.1990     -5.5330      1.5900     78.3900
     83     -1.1850      1.9400     -3.4970      1.6800     78.3900
     84     -0.6090      1.2040     -3.8820      0.0100     78.3900
     85     -0.9500      2.2700     -2.1820      1.7700     78.3900
     86     -0.0820      1.6810     -1.5440      1.5900     78.3900
     87     -1.7940      3.3090     -1.6740      1.7700     78.3900
     88     -1.6810      3.6050     -0.6340      0.0100     78.3900
     89     -5.0350      3.4000     -5.0600      1.7700     78.3900
     90     -4.8160      2.3200     -4.9970      0.0100     78.3900
     91     -5.4760      3.7200     -6.3670      1.5900     78.3900
     92     -6.3600      3.3360     -6.4760      0.0100     78.3900
     93     -6.0530      3.8220     -4.0120      1.7700     78.3900
     94     -5.7850      3.3720     -3.0280      0.0100     78.3900
     95     -7.4260      3.5810     -4.4120      1.5900     78.3900
     96     -8.3260      2.5670     -3.6090      2.1000     78.3900
     97     -8.2590      2.9320     -2.1770      1.5900     78.3900
     98     -9.6710      2.5230     -4.2230      1.5900     78.3900
     99     -7.6490      1.1620     -3.8050      1.5900     78.3900
    100     -7.4470      0.5710     -5.1050      1.7700     78.3900
    101     -7.1190      1.3250     -5.8640      0.0100     78.3900
    102     -8.4010      0.1280     -5.4650      0.0100     78.3900
    103     -6.3940     -0.5480     -5.0430      1.7700     78.3900
    104     -6.2730     -1.0420     -6.0320      0.0100     78.3900
    105     -5.1040      0.0350     -4.6930      1.5900     78.3900
    106     -4.4250     -0.8000     -3.7760      1.7700     78.3900
    107     -3.4180     -0.9820     -4.2120      0.0100     78.3900
    108     -4.2500     -0.1460     -2.4570      1.6800     78.3900
    109     -3.2600     -0.3820     -1.5260      1.7700     78.3900
    110     -0.3820     -2.0370     -0.5190      1.6800     78.3900
    111      0.2520     -1.9990      0.2520      0.0100     78.3900
    112     -0.1550     -2.6440     -1.2830      0.0100     78.3900
    113     -2.2550     -1.2720     -1.6400      1.6800     78.3900
    114     -1.4320     -1.2420     -0.5870      1.7700     78.3900
    115     -1.6020     -0.4030      0.4810      1.6800     78.3900
    116     -0.9220     -0.4240      1.2210      0.0100     78.3900
    117     -2.6170      0.5320      0.6160      1.7700     78.3900
    118     -2.6980      1.2720      1.6020      1.5900     78.3900
    119     -3.5060      0.5000     -0.4900      1.7700     78.3900
    120     -4.6320      1.2660     -0.7480      1.6800     78.3900
    121     -5.0300      0.8590     -1.9260      1.7700     78.3900
    122     -5.8990      1.2460     -2.4480      0.0100     78.3900
    123     -5.2000     -2.1020     -3.7080      1.7700     78.3900
    124     -5.1320     -2.5810     -2.7090      0.0100     78.3900
    125     -4.7590     -2.9900     -4.7290      1.5900     78.3900
    126     -3.7950     -3.0120     -4.7790      0.0100     78.3900
    127     -6.6270     -1.6310     -3.9760      1.7700     78.3900
    128     -7.0260     -1.1080     -3.0770      0.0100     78.3900
    129     -7.5200     -2.6530     -4.4820      1.5900     78.3900
    130     -8.4920     -3.4090     -3.5090      2.1000     78.3900
    131     -8.2480     -2.9620     -2.1120      1.5900     78.3900
    132     -9.8660     -3.2790     -4.0150      1.5900     78.3900
    133     -8.0810     -4.9240     -3.5860      1.5900     78.3900
    134     -8.3200     -5.7240     -4.7640      1.7700     78.3900
    135     -8.2720     -5.1140     -5.6950      0.0100     78.3900
    136     -9.3370     -6.1780     -4.7200      0.0100     78.3900
    137     -7.2690     -6.8350     -4.9030      1.7700     78.3900
    138     -7.4330     -7.4150     -5.8370      0.0100     78.3900
    139     -5.9450     -6.2300     -5.0050      1.5900     78.3900
    140     -5.0110     -7.0120     -4.2760      1.7700     78.3900
    141     -4.1610     -7.2250     -4.9630      0.0100     78.3900
    142     -4.4950     -6.2950     -3.0990      1.6800     78.3900
    143     -3.3710     -6.5940     -2.3740      1.7700     78.3900
    144     -0.5820     -8.5590     -1.7930      1.6800     78.3900
    145     -0.6560     -9.2690     -2.4920      0.0100     78.3900
    146      0.2060     -8.5630     -1.1700      0.0100     78.3900
    147     -2.5240     -7.6170     -2.6000      1.6800     78.3900
    148     -1.5070     -7.6220     -1.7430      1.7700     78.3900
    149     -1.3310     -6.6690     -0.7750      1.6800     78.3900
    150     -0.5270     -6.7360     -0.1710      0.0100     78.3900
    151     -2.1770     -5.6020     -0.5240      1.7700     78.3900
    152     -1.9470     -4.7890      0.3740      1.5900     78.3900
    153     -3.2890     -5.6130     -1.4000      1.7700     78.3900
    154     -4.3570     -4.7380     -1.4900      1.6800     78.3900
    155     -5.0450     -5.1830     -2.5110      1.7700     78.3900
    156     -5.9360     -4.7080     -2.9210      0.0100     78.3900
    157     -5.7090     -8.2990     -3.9060      1.7700     78.3900
    158     -5.3060     -8.7420     -2.9760      0.0100     78.3900
    159     -5.5770     -9.2220     -4.9710      1.5900     78.3900
    160     -6.1200     -9.9860     -4.7490      0.0100     78.3900
    161     -7.1570     -7.8310     -3.7390      1.7700     78.3900
    162     -7.2680     -7.2340     -2.8040      0.0100     78.3900
    163     -8.1660     -8.8680     -3.8730      1.5900     78.3900
    164     -8.6460     -9.6190     -2.5660      2.1000     78.3900
    165     -8.9760     -8.6160     -1.5270      1.5900     78.3900
    166     -9.7120    -10.5850     -2.9270      1.5900     78.3900
    167     -7.3670    -10.4130     -2.1040      1.5900     78.3900
    168     -6.8530    -11.5240     -2.8710      1.7700     78.3900
    169     -6.6410    -11.2340     -3.9210      0.0100     78.3900
    170     -7.5920    -12.3560     -2.9020      0.0100     78.3900
    171     -5.5670    -12.0880     -2.2550      1.7700     78.3900
    172     -5.1810    -12.9460     -2.8450      0.0100     78.3900
    173     -4.5230    -11.0720     -2.2280      1.5900     78.3900
    174     -3.8000    -11.1800     -1.0080      1.7700     78.3900
    175     -2.7350    -11.3190     -1.3050      0.0100     78.3900
    176     -3.9030     -9.9530     -0.1650      1.6800     78.3900
    177     -4.9330     -9.0630     -0.3550      1.7700     78.3900
    178     -5.6450     -9.3160     -1.1340      0.0100     78.3900
    179     -5.0330     -7.9370      0.3660      1.7700     78.3900
    180     -5.8250     -7.2100      0.2030      0.0100     78.3900
    181     -2.9650     -9.7130      0.8330      1.7700     78.3900
    182     -2.0580    -10.5370      1.0210      1.5900     78.3900
    183     -3.0480     -8.5840      1.5760      1.6800     78.3900
    184     -4.0460     -7.7070      1.3640      1.7700     78.3900
    185     -4.0960     -6.5980      2.0990      1.6800     78.3900
    186     -3.4050     -6.4410      2.8070      0.0100     78.3900
    187     -4.7990     -5.9010      1.9570      0.0100     78.3900
    188     -4.2800    -12.4370     -0.2940      1.7700     78.3900
    189     -4.2500    -12.3340      0.8130      0.0100     78.3900
    190     -3.4970    -13.5500     -0.7010      1.5900     78.3900
    191     -3.8900    -14.3710     -0.3600      0.0100     78.3900
    192     -5.7160    -12.5290     -0.7950      1.7700     78.3900
    193     -6.3540    -11.7840     -0.2730      0.0100     78.3900
    194     -6.3000    -13.8410     -0.7190      1.5900     78.3900
    195     -6.3860    -14.1130      0.2140      0.0100     78.3900
    196      3.8570     -4.4000      9.4540      0.0100     78.3900
    197      3.7530     -5.0960      8.7750      1.5900     78.3900
    198      4.6100     -6.1820      9.1530      1.7700     78.3900
    199      4.3480     -6.5170     10.1820      0.0100     78.3900
    200      5.6650     -5.8280      9.1710      0.0100     78.3900
    201      4.5130     -7.3890      8.2110      1.7700     78.3900
    202      5.2280     -8.1810      8.5160      0.0100     78.3900
    203      3.1740     -7.9690      8.2720      1.5900     78.3900
    204      2.7820     -8.3670      6.9620      1.7700     78.3900
    205      2.4930     -9.4410      7.0220      0.0100     78.3900
    206      1.6350     -7.5930      6.4760      1.6800     78.3900
    207      0.8050     -7.9530      5.4530      1.7700     78.3900
    208     -0.0900    -10.1730      2.9540      1.6800     78.3900
    209      0.6060    -10.8850      3.0280      0.0100     78.3900
    210     -0.8120    -10.2710      2.2650      0.0100     78.3900
    211      0.9120     -9.0660      4.7080      1.6800     78.3900
    212     -0.0500     -9.1570      3.7950      1.7700     78.3900
    213     -1.0530     -8.2310      3.6640      1.6800     78.3900
    214     -1.7500     -8.3820      2.9540      0.0100     78.3900
    215     -1.1990     -7.0790      4.4310      1.7700     78.3900
    216     -2.1330     -6.2920      4.2470      1.5900     78.3900
    217     -0.1470     -6.9540      5.3770      1.7700     78.3900
    218      0.1040     -5.9600      6.3160      1.6800     78.3900
    219      1.1820     -6.3790      6.9410      1.7700     78.3900
    220      1.6840     -5.8640      7.7630      0.0100     78.3900
    221      3.9860     -8.2270      6.0580      1.7700     78.3900
    222      3.7100     -7.9810      5.0120      0.0100     78.3900
    223      4.7520     -9.4160      6.0770      1.5900     78.3900
    224      5.5360     -9.2460      5.5410      0.0100     78.3900
    225      4.7300     -7.0790      6.7220      1.7700     78.3900
    226      4.2020     -6.1160      6.5220      0.0100     78.3900
    227      6.1450     -7.0370      6.4280      1.5900     78.3900
    228      6.6650     -6.0710      5.3030      2.1000     78.3900
    229      5.9740     -4.7730      5.4270      1.5900     78.3900
    230      8.1420     -6.0420      5.3460      1.5900     78.3900
    231      6.2030     -6.7660      3.9660      1.5900     78.3900
    232      6.7880     -8.0340      3.5800      1.7700     78.3900
    233      6.6970     -8.7950      4.3880      0.0100     78.3900
    234      7.8750     -7.9100      3.3620      0.0100     78.3900
    235      6.1220     -8.6010      2.3160      1.7700     78.3900
    236      6.6420     -9.5250      1.9810      0.0100     78.3900
    237      4.7410     -8.9670      2.5890      1.5900     78.3900
    238      3.9490     -8.6890      1.4350      1.7700     78.3900
    239      3.4680     -9.6540      1.1520      0.0100     78.3900
    240      2.8940     -7.6680      1.6970      1.6800     78.3900
    241      3.0560     -6.7720      2.7290      1.7700     78.3900
    242      3.9570     -6.8970      3.3270      0.0100     78.3900
    243      2.1330     -5.8420      3.0020      1.7700     78.3900
    244      2.2310     -5.1610      3.8420      0.0100     78.3900
    245      1.7710     -7.5770      0.8780      1.7700     78.3900
    246      1.6400     -8.3670     -0.0700      1.5900     78.3900
    247      0.8350     -6.6310      1.1300      1.6800     78.3900
    248      0.9920     -5.7760      2.1550      1.7700     78.3900
    249      0.0510     -4.8610      2.3770      1.6800     78.3900
    250     -0.7370     -4.8190      1.7550      0.0100     78.3900
    251      0.0740     -4.2510      3.1720      0.0100     78.3900
    252      4.8970     -8.2620      0.3240      1.7700     78.3900
    253      4.4350     -7.5220     -0.3640      0.0100     78.3900
    254      5.3440     -9.3870     -0.4140      1.5900     78.3900
    255      6.0340     -9.0830     -1.0260      0.0100     78.3900
    256      6.0310     -7.6320      1.1310      1.7700     78.3900
    257      5.7180     -6.6430      1.5320      0.0100     78.3900
    258      7.3060     -7.5640      0.4790      1.5900     78.3900
    259      7.5890     -6.6430     -0.7540      2.1000     78.3900
    260      8.7810     -5.8230     -0.4330      1.5900     78.3900
    261      7.6880     -7.5120     -1.9460      1.5900     78.3900
    262      6.3320     -5.6940     -0.8610      1.5900     78.3900
    263      6.0710     -4.9730     -2.0880      1.7700     78.3900
    264      7.0040     -4.5560     -2.5300      0.0100     78.3900
    265      5.4260     -4.0970     -1.8510      0.0100     78.3900
    266      5.3380     -5.8310     -3.1320      1.7700     78.3900
    267      5.9240     -6.7410     -3.3860      0.0100     78.3900
    268      4.0590     -6.2670     -2.5980      1.5900     78.3900
    269      3.1160     -6.3550     -3.6500      1.7700     78.3900
    270      2.7550     -7.4090     -3.6840      0.0100     78.3900
    271      1.9870     -5.4630     -3.4080      1.6800     78.3900
    272      0.0410     -4.4550     -3.5180      1.7700     78.3900
    273      0.7250     -3.8580     -2.4740      1.6800     78.3900
    274      1.8720     -4.4940     -2.4400      1.7700     78.3900
    275      2.6860     -4.2990     -1.7350      0.0100     78.3900
    276     -1.6370     -5.0300     -5.0720      1.6800     78.3900
    277     -0.7750     -5.9320     -5.5480      1.7700     78.3900
[...]
   331   11   8.0   4.08    8.9    0.049230   -0.732040   -0.738336
   332   11   6.0   5.08    9.0   -0.044953    0.421340    0.421164
   333   11   1.0   0.00    0.0    0.000000    0.257016    0.256814
   334   11   7.0   0.00    0.0    0.000000   -0.825055   -0.838528
   335   11   6.0   1.34    2.4   -0.004019    0.170955    0.155390
   336   11   1.0   0.00    0.0    0.000000    0.306636    0.331284
   337   11   6.0   5.80   10.2   -0.035391   -0.397562   -0.408180
   338   11   1.0   0.00    0.0    0.000000    0.273977    0.277200
   339   11   6.0   0.09    0.2    0.000119    1.058729    1.077166
   340   11   8.0   6.48   14.2    0.111323   -0.782308   -0.755085
   341   11   7.0   0.00    0.0    0.000000   -0.860215   -0.861391
   342   11   6.0   0.00    0.0    0.000000    0.729104    0.746725
   343   11   7.0  12.15   23.8   -0.103812   -0.939880   -1.001419
   344   11   1.0   0.00    0.0    0.000000    0.463184    0.507134
   345   11   1.0   0.00    0.0    0.000000    0.447983    0.444933
   346   11   6.0   0.00    0.0    0.000247    0.150111    0.118205
   347   11   1.0   0.00    0.0    0.000000    0.189183    0.221503
   348   11   8.0  16.66   36.4    0.081795   -0.823236   -0.840336
   349   11   1.0   0.00    0.0    0.000000    0.495654    0.522634
   350   11   6.0   0.19    0.3   -0.003512    0.141652    0.109442
   351   11   1.0   0.00    0.0    0.000000    0.241614    0.243449
   352   11   8.0   4.57   10.0    0.057801   -0.790365   -0.797107
   353   11  15.0   9.49   11.9    0.134910    1.599321    1.653620
   354   11   8.0  13.42   29.3    0.300322   -0.891103   -0.889531
   355   11   8.0  17.58   38.4    0.344115   -0.893638   -0.889324
   356   11   8.0   1.15    2.5    0.018350   -0.971179   -0.783931
   357   12   6.0  10.69   18.8   -0.077889    0.206358   -0.020567
   358   12   1.0   0.00    0.0    0.000000    0.153721    0.166305
   359   12   1.0   0.00    0.0    0.000000    0.244933    0.227729
   360   12   6.0   6.60   11.6   -0.045057    0.085641    0.148031
   361   12   1.0   0.00    0.0    0.000000    0.255788    0.227139
   362   12   8.0   3.91    8.6    0.045669   -0.728242   -0.735978
   363   12   6.0   4.06    7.2   -0.044682    0.416458    0.416775
   364   12   1.0   0.00    0.0    0.000000    0.262183    0.255482
   365   12   7.0   0.11    0.2   -0.001283   -0.831908   -0.838761
   366   12   6.0   2.55    4.5   -0.008123    0.201216    0.186247
   367   12   1.0   0.00    0.0    0.000000    0.305124    0.326637
   368   12   6.0   3.55    6.3   -0.015005    1.120768    1.124895
   369   12   8.0  11.18   24.4    0.158854   -0.684085   -0.695882
   370   12   7.0   2.04    4.0    0.004149   -0.937658   -1.018714
   371   12   1.0   0.00    0.0    0.000000    0.484758    0.542299
   372   12   6.0   2.77    4.9   -0.006746    0.891879    0.895728
   373   12   8.0  10.09   22.1    0.131720   -0.730434   -0.712506
   374   12   6.0   6.91   12.2   -0.034294   -0.462018   -0.464728
   375   12   1.0   0.00    0.0    0.000000    0.270135    0.273159
   376   12   6.0   7.16   12.6   -0.063534    0.114021    0.114665
   377   12   1.0   0.00    0.0    0.000000    0.229726    0.228688
   378   12   8.0  20.68   45.2    0.045722   -0.835430   -0.838572
   379   12   1.0   0.00    0.0    0.000000    0.501633    0.501778
   380   12   6.0   4.22    7.5   -0.040216    0.164196    0.146879
   381   12   1.0   0.00    0.0    0.000000    0.223309    0.226038
   382   12   8.0  21.08   46.1   -0.033020   -0.847147   -0.850642
   383   12   1.0   0.00    0.0    0.000000    0.508049    0.507461

 Done with FMO properties.
 CPU     0: STEP CPU TIME=     0.00 TOTAL CPU TIME=      20612.5 (    343.5 MIN)
 TOTAL WALL CLOCK TIME=      45184.4 SECONDS, CPU UTILIZATION IS    45.62%
 CPU     0: STEP CPU TIME=     0.00 TOTAL CPU TIME=      20612.5 (    343.5 MIN)
 TOTAL WALL CLOCK TIME=      45184.5 SECONDS, CPU UTILIZATION IS    45.62%

 Total timing statistics in pairs (CPU,wall) for each rank, sec

    Rank   total     SCF    corr     DFT    CPHF     EFP    solv     ESP    geom
 -------------------------------------------------------------------------------
       1   20612.5   5658.6   7929.9      0.0    0.0   0.0  190.2  6431.4    0.0
       1   45184.5  11904.9  19119.4      0.0    0.0   0.0  500.7 12762.4    0.0
       2   20590.9   5591.2   8029.5      0.0    0.0   0.0  192.3  6379.0    0.0
       2   45184.6  11905.1  19118.9      0.0    0.0   0.0  500.8 12761.3    0.0
       3   20539.8   5635.6   7931.2      0.0    0.0   0.0  191.6  6376.3    0.0
       3   45184.6  11904.7  19118.9      0.0    0.0   0.0  501.0 12761.8    0.0
       4   20685.0   5680.7   8031.0      0.0    0.0   0.0  190.9  6391.8    0.0
       4   45184.6  11906.1  19119.0      0.0    0.0   0.0  499.5 12761.6    0.0
       5   20396.7   5616.2   7797.8      0.0    0.0   0.0  191.9  6373.2    0.0
       5   45184.6  11905.2  19118.8      0.0    0.0   0.0  500.4 12761.8    0.0
       6   20404.2   5611.8   7818.0      0.0    0.0   0.0  190.8  6393.2    0.0
       6   45184.6  11906.4  19118.8      0.0    0.0   0.0  499.4 12761.5    0.0
       7   20288.6   5659.9   7766.7      0.0    0.0   0.0  191.2  6281.0    0.0
       7   45184.6  11905.9  19118.8      0.0    0.0   0.0  499.8 12761.6    0.0
       8   20342.0   5672.4   7802.4      0.0    0.0   0.0  191.0  6276.6    0.0
       8   45184.5  11906.6  19118.8      0.0    0.0   0.0  498.7 12761.5    0.0
       9   20420.4   5654.8   7975.8      0.0    0.0   0.0  187.5  6222.5    0.0
       9   45184.6  11906.6  19118.8      0.0    0.0   0.0  499.1 12761.6    0.0
      10   20552.4   5686.7   8045.9      0.0    0.0   0.0  188.6  6253.9    0.0
      10   45184.6  11906.6  19118.9      0.0    0.0   0.0  499.4 12761.3    0.0
      11   20405.3   5613.6   7985.7      0.0    0.0   0.0  189.1  6225.1    0.0
      11   45184.6  11907.4  19118.8      0.0    0.0   0.0  499.0 12761.1    0.0
      12   20187.8   5610.2   7702.6      0.0    0.0   0.0  189.0  6292.9    0.0
      12   45184.6  11907.4  19118.8      0.0    0.0   0.0  498.1 12761.1    0.0
      13   20378.3   5667.4   7837.9      0.0    0.0   0.0  187.7  6292.0    0.0
      13   45184.6  11907.7  19118.8      0.0    0.0   0.0  498.6 12761.4    0.0
      14   20089.6   5627.4   7687.8      0.0    0.0   0.0  188.1  6221.6    0.0
      14   45184.6  11907.7  19118.8      0.0    0.0   0.0  498.0 12761.2    0.0
      15   20467.6   5740.6   7879.3      0.0    0.0   0.0  187.8  6273.3    0.0
      15   45184.6  11907.9  19118.8      0.0    0.0   0.0  497.9 12761.2    0.0
      16   20299.8   5692.0   7792.5      0.0    0.0   0.0  187.9  6236.0    0.0
      16   45184.5  11908.0  19118.8      0.0    0.0   0.0  497.0 12761.1    0.0
averaged   20416.3   5651.2   7875.9      0.0    0.0   0.0  189.7  6307.5    0.0
averaged   45184.6  11906.5  19118.9      0.0    0.0   0.0  499.2 12761.5    0.0

  FMO  timing statistics in pairs (CPU,wall) for each rank, sec

    Rank  FMOini FMOscf1  FMOdm1 FMOsyn1 FMOscf2  FMOes2 FMOsyn2 FMOscf3 FMOsyn3
 -------------------------------------------------------------------------------
       1    2.5    7688.1    0.4    0.0   12637.7     283.8    0.0    0.0    0.0
       1    6.6   15880.9    3.9    0.0   28721.5     571.3    0.0    0.0    0.0
       2    1.8    7615.6    0.1    0.0   12689.2     284.1    0.0    0.0    0.0
       2    6.6   15880.9    3.9    0.0   28719.9     572.8    0.0    0.0    0.0
       3    2.0    7678.2    0.2    0.0   12567.7     291.6    0.0    0.0    0.0
       3    6.6   15880.9    3.9    0.0   28722.6     570.1    0.0    0.0    0.0
       4    1.8    7676.2    0.0    0.0   12728.7     278.2    0.0    0.0    0.0
       4    6.6   15880.9    3.9    0.0   28721.2     571.5    0.0    0.0    0.0
       5    2.2    7676.0    0.2    0.0   12415.7     302.6    0.0    0.0    0.0
       5    6.6   15880.9    3.9    0.0   28722.2     570.6    0.0    0.0    0.0
       6    1.9    7663.2    0.1    0.0   12460.8     278.3    0.0    0.0    0.0
       6    6.6   15880.9    3.9    0.0   28721.7     571.1    0.0    0.0    0.0
       7    2.0    7655.2    0.2    0.0   12353.4     277.7    0.0    0.0    0.0
       7    6.6   15880.9    3.9    0.0   28721.5     571.3    0.0    0.0    0.0
       8    1.7    7625.9    0.1    0.0   12425.7     288.5    0.0    0.0    0.0
       8    6.6   15880.9    3.9    0.0   28721.3     571.5    0.0    0.0    0.0
       9    2.2    7621.6    0.3    0.0   12530.2     266.1    0.0    0.0    0.0
       9    6.6   15880.9    3.9    0.0   28720.2     572.5    0.0    0.0    0.0
      10    1.7    7628.4    0.1    0.0   12655.0     267.1    0.0    0.0    0.0
      10    6.6   15880.9    3.9    0.0   28722.1     570.7    0.0    0.0    0.0
      11    1.8    7581.1    0.2    0.0   12541.3     280.9    0.0    0.0    0.0
      11    6.6   15880.9    3.9    0.0   28721.4     571.4    0.0    0.0    0.0
      12    1.6    7663.3    0.1    0.0   12239.1     283.7    0.0    0.0    0.0
      12    6.6   15880.9    3.9    0.0   28721.4     571.4    0.0    0.0    0.0
      13    2.0    7664.8    0.2    0.0   12429.4     281.8    0.0    0.0    0.0
      13    6.6   15880.9    3.9    0.0   28720.9     571.9    0.0    0.0    0.0
      14    1.6    7616.3    0.1    0.0   12215.9     255.7    0.0    0.0    0.0
      14    6.6   15880.9    3.9    0.0   28722.3     570.5    0.0    0.0    0.0
      15    1.8    7688.4    0.2    0.0   12501.7     275.5    0.0    0.0    0.0
      15    6.6   15880.9    3.9    0.0   28720.7     572.1    0.0    0.0    0.0
      16    1.7    7624.0    0.0    0.0   12390.8     283.3    0.0    0.0    0.0
      16    6.6   15880.9    3.9    0.0   28721.0     571.8    0.0    0.0    0.0
averaged    1.9    7647.9    0.1    0.0   12486.4     279.9    0.0    0.0    0.0
averaged    6.6   15880.9    3.9    0.0   28721.4     571.4    0.0    0.0    0.0
             62733069  WORDS OF DYNAMIC MEMORY USED
 EXECUTION OF GAMESS TERMINATED NORMALLY Sat Dec  7 22:56:56 2019
 DDI: 263640 bytes (0.3 MB / 0 MWords) used by master data server.

 ----------------------------------------
 CPU timing information for all processes
 ========================================
 0: 20122.808 + 489.737 = 20612.546
 1: 20136.760 + 454.168 = 20590.929
 2: 20067.664 + 472.138 = 20539.802
 3: 20226.797 + 458.232 = 20685.29
 4: 19929.16 + 467.699 = 20396.715
 5: 19957.487 + 446.806 = 20404.294
 6: 19820.569 + 468.20 = 20288.590
 7: 19902.520 + 439.477 = 20341.997
 8: 19949.166 + 471.223 = 20420.390
 9: 20108.629 + 443.821 = 20552.450
 10: 19947.650 + 457.652 = 20405.302
 11: 19761.978 + 425.793 = 20187.771
 12: 19905.375 + 472.922 = 20378.298
 13: 19669.651 + 419.989 = 20089.641
 14: 20023.261 + 444.378 = 20467.640
 15: 19858.465 + 441.326 = 20299.792
 ----------------------------------------
 ddikick.x: exited gracefully.
unset echo
----- accounting info -----
Files used on the master node gollum077.lsa.umich.edu were:
-rw-r--r-- 1 hazwong frank    19078 Dec  7 10:23 /scratch/hazwong/825112/2JSE_4/usrc/2JSE_4_fmo_input.F05
-rw-r--r-- 1 hazwong frank      634 Dec  7 22:56 /scratch/hazwong/825112/2JSE_4/usrc/2JSE_4_fmo_input.F06.001
-rw-r--r-- 1 hazwong frank      634 Dec  7 22:56 /scratch/hazwong/825112/2JSE_4/usrc/2JSE_4_fmo_input.F06.002
-rw-r--r-- 1 hazwong frank      634 Dec  7 22:56 /scratch/hazwong/825112/2JSE_4/usrc/2JSE_4_fmo_input.F06.003
-rw-r--r-- 1 hazwong frank      634 Dec  7 22:56 /scratch/hazwong/825112/2JSE_4/usrc/2JSE_4_fmo_input.F06.004
-rw-r--r-- 1 hazwong frank      634 Dec  7 22:56 /scratch/hazwong/825112/2JSE_4/usrc/2JSE_4_fmo_input.F06.005
-rw-r--r-- 1 hazwong frank      634 Dec  7 22:56 /scratch/hazwong/825112/2JSE_4/usrc/2JSE_4_fmo_input.F06.006
-rw-r--r-- 1 hazwong frank      634 Dec  7 22:56 /scratch/hazwong/825112/2JSE_4/usrc/2JSE_4_fmo_input.F06.007
-rw-r--r-- 1 hazwong frank      634 Dec  7 22:56 /scratch/hazwong/825112/2JSE_4/usrc/2JSE_4_fmo_input.F06.008
-rw-r--r-- 1 hazwong frank      634 Dec  7 22:56 /scratch/hazwong/825112/2JSE_4/usrc/2JSE_4_fmo_input.F06.009
-rw-r--r-- 1 hazwong frank      634 Dec  7 22:56 /scratch/hazwong/825112/2JSE_4/usrc/2JSE_4_fmo_input.F06.010
-rw-r--r-- 1 hazwong frank      634 Dec  7 22:56 /scratch/hazwong/825112/2JSE_4/usrc/2JSE_4_fmo_input.F06.011
-rw-r--r-- 1 hazwong frank      634 Dec  7 22:56 /scratch/hazwong/825112/2JSE_4/usrc/2JSE_4_fmo_input.F06.012
-rw-r--r-- 1 hazwong frank      634 Dec  7 22:56 /scratch/hazwong/825112/2JSE_4/usrc/2JSE_4_fmo_input.F06.013
-rw-r--r-- 1 hazwong frank      634 Dec  7 22:56 /scratch/hazwong/825112/2JSE_4/usrc/2JSE_4_fmo_input.F06.014
-rw-r--r-- 1 hazwong frank      634 Dec  7 22:56 /scratch/hazwong/825112/2JSE_4/usrc/2JSE_4_fmo_input.F06.015
-rw-r--r-- 1 hazwong frank    12735 Dec  7 22:56 /scratch/hazwong/825112/2JSE_4/usrc/2JSE_4_fmo_input.F07
-rw-r--r-- 1 hazwong frank        0 Dec  7 10:23 /scratch/hazwong/825112/2JSE_4/usrc/2JSE_4_fmo_input.F07.001
-rw-r--r-- 1 hazwong frank        0 Dec  7 10:23 /scratch/hazwong/825112/2JSE_4/usrc/2JSE_4_fmo_input.F07.002
-rw-r--r-- 1 hazwong frank        0 Dec  7 10:23 /scratch/hazwong/825112/2JSE_4/usrc/2JSE_4_fmo_input.F07.003
-rw-r--r-- 1 hazwong frank        0 Dec  7 10:23 /scratch/hazwong/825112/2JSE_4/usrc/2JSE_4_fmo_input.F07.004
-rw-r--r-- 1 hazwong frank        0 Dec  7 10:23 /scratch/hazwong/825112/2JSE_4/usrc/2JSE_4_fmo_input.F07.005
-rw-r--r-- 1 hazwong frank        0 Dec  7 10:23 /scratch/hazwong/825112/2JSE_4/usrc/2JSE_4_fmo_input.F07.006
-rw-r--r-- 1 hazwong frank        0 Dec  7 10:23 /scratch/hazwong/825112/2JSE_4/usrc/2JSE_4_fmo_input.F07.007
-rw-r--r-- 1 hazwong frank        0 Dec  7 10:23 /scratch/hazwong/825112/2JSE_4/usrc/2JSE_4_fmo_input.F07.008
-rw-r--r-- 1 hazwong frank        0 Dec  7 10:23 /scratch/hazwong/825112/2JSE_4/usrc/2JSE_4_fmo_input.F07.009
-rw-r--r-- 1 hazwong frank        0 Dec  7 10:23 /scratch/hazwong/825112/2JSE_4/usrc/2JSE_4_fmo_input.F07.010
-rw-r--r-- 1 hazwong frank        0 Dec  7 10:23 /scratch/hazwong/825112/2JSE_4/usrc/2JSE_4_fmo_input.F07.011
-rw-r--r-- 1 hazwong frank        0 Dec  7 10:23 /scratch/hazwong/825112/2JSE_4/usrc/2JSE_4_fmo_input.F07.012
-rw-r--r-- 1 hazwong frank        0 Dec  7 10:23 /scratch/hazwong/825112/2JSE_4/usrc/2JSE_4_fmo_input.F07.013
-rw-r--r-- 1 hazwong frank        0 Dec  7 10:23 /scratch/hazwong/825112/2JSE_4/usrc/2JSE_4_fmo_input.F07.014
-rw-r--r-- 1 hazwong frank        0 Dec  7 10:23 /scratch/hazwong/825112/2JSE_4/usrc/2JSE_4_fmo_input.F07.015
-rw-r--r-- 1 hazwong frank    65440 Dec  7 22:56 /scratch/hazwong/825112/2JSE_4/usrc/2JSE_4_fmo_input.F10.000
-rw-r--r-- 1 hazwong frank        0 Dec  7 10:23 /scratch/hazwong/825112/2JSE_4/usrc/2JSE_4_fmo_input.F26.000
-rw-r--r-- 1 hazwong frank        0 Dec  7 10:23 /scratch/hazwong/825112/2JSE_4/usrc/2JSE_4_fmo_input.F26.001
-rw-r--r-- 1 hazwong frank        0 Dec  7 10:23 /scratch/hazwong/825112/2JSE_4/usrc/2JSE_4_fmo_input.F26.002
-rw-r--r-- 1 hazwong frank        0 Dec  7 10:23 /scratch/hazwong/825112/2JSE_4/usrc/2JSE_4_fmo_input.F26.003
-rw-r--r-- 1 hazwong frank        0 Dec  7 10:23 /scratch/hazwong/825112/2JSE_4/usrc/2JSE_4_fmo_input.F26.004
-rw-r--r-- 1 hazwong frank        0 Dec  7 10:23 /scratch/hazwong/825112/2JSE_4/usrc/2JSE_4_fmo_input.F26.005
-rw-r--r-- 1 hazwong frank        0 Dec  7 10:23 /scratch/hazwong/825112/2JSE_4/usrc/2JSE_4_fmo_input.F26.006
-rw-r--r-- 1 hazwong frank        0 Dec  7 10:23 /scratch/hazwong/825112/2JSE_4/usrc/2JSE_4_fmo_input.F26.007
-rw-r--r-- 1 hazwong frank        0 Dec  7 10:23 /scratch/hazwong/825112/2JSE_4/usrc/2JSE_4_fmo_input.F26.008
-rw-r--r-- 1 hazwong frank        0 Dec  7 10:23 /scratch/hazwong/825112/2JSE_4/usrc/2JSE_4_fmo_input.F26.009
-rw-r--r-- 1 hazwong frank        0 Dec  7 10:23 /scratch/hazwong/825112/2JSE_4/usrc/2JSE_4_fmo_input.F26.010
-rw-r--r-- 1 hazwong frank        0 Dec  7 10:23 /scratch/hazwong/825112/2JSE_4/usrc/2JSE_4_fmo_input.F26.011
-rw-r--r-- 1 hazwong frank        0 Dec  7 10:23 /scratch/hazwong/825112/2JSE_4/usrc/2JSE_4_fmo_input.F26.012
-rw-r--r-- 1 hazwong frank        0 Dec  7 10:23 /scratch/hazwong/825112/2JSE_4/usrc/2JSE_4_fmo_input.F26.013
-rw-r--r-- 1 hazwong frank        0 Dec  7 10:23 /scratch/hazwong/825112/2JSE_4/usrc/2JSE_4_fmo_input.F26.014
-rw-r--r-- 1 hazwong frank        0 Dec  7 10:23 /scratch/hazwong/825112/2JSE_4/usrc/2JSE_4_fmo_input.F26.015
-rw-r--r-- 1 hazwong frank        0 Dec  7 10:23 /scratch/hazwong/825112/2JSE_4/usrc/2JSE_4_fmo_input.F27.000
-rw-r--r-- 1 hazwong frank        0 Dec  7 10:23 /scratch/hazwong/825112/2JSE_4/usrc/2JSE_4_fmo_input.F27.001
-rw-r--r-- 1 hazwong frank        0 Dec  7 10:23 /scratch/hazwong/825112/2JSE_4/usrc/2JSE_4_fmo_input.F27.002
-rw-r--r-- 1 hazwong frank        0 Dec  7 10:23 /scratch/hazwong/825112/2JSE_4/usrc/2JSE_4_fmo_input.F27.003
-rw-r--r-- 1 hazwong frank        0 Dec  7 10:23 /scratch/hazwong/825112/2JSE_4/usrc/2JSE_4_fmo_input.F27.004
-rw-r--r-- 1 hazwong frank        0 Dec  7 10:23 /scratch/hazwong/825112/2JSE_4/usrc/2JSE_4_fmo_input.F27.005
-rw-r--r-- 1 hazwong frank        0 Dec  7 10:23 /scratch/hazwong/825112/2JSE_4/usrc/2JSE_4_fmo_input.F27.006
-rw-r--r-- 1 hazwong frank        0 Dec  7 10:23 /scratch/hazwong/825112/2JSE_4/usrc/2JSE_4_fmo_input.F27.007
-rw-r--r-- 1 hazwong frank        0 Dec  7 10:23 /scratch/hazwong/825112/2JSE_4/usrc/2JSE_4_fmo_input.F27.008
-rw-r--r-- 1 hazwong frank        0 Dec  7 10:23 /scratch/hazwong/825112/2JSE_4/usrc/2JSE_4_fmo_input.F27.009
-rw-r--r-- 1 hazwong frank        0 Dec  7 10:23 /scratch/hazwong/825112/2JSE_4/usrc/2JSE_4_fmo_input.F27.010
-rw-r--r-- 1 hazwong frank        0 Dec  7 10:23 /scratch/hazwong/825112/2JSE_4/usrc/2JSE_4_fmo_input.F27.011
-rw-r--r-- 1 hazwong frank        0 Dec  7 10:23 /scratch/hazwong/825112/2JSE_4/usrc/2JSE_4_fmo_input.F27.012
-rw-r--r-- 1 hazwong frank        0 Dec  7 10:23 /scratch/hazwong/825112/2JSE_4/usrc/2JSE_4_fmo_input.F27.013
-rw-r--r-- 1 hazwong frank        0 Dec  7 10:23 /scratch/hazwong/825112/2JSE_4/usrc/2JSE_4_fmo_input.F27.014
-rw-r--r-- 1 hazwong frank        0 Dec  7 10:23 /scratch/hazwong/825112/2JSE_4/usrc/2JSE_4_fmo_input.F27.015
-rw-r--r-- 1 hazwong frank 24231936 Dec  7 14:48 /scratch/hazwong/825112/2JSE_4/usrc/2JSE_4_fmo_input.F40.000
-rw-r--r-- 1 hazwong frank 24231936 Dec  7 14:48 /scratch/hazwong/825112/2JSE_4/usrc/2JSE_4_fmo_input.F40.001
-rw-r--r-- 1 hazwong frank 24231936 Dec  7 14:48 /scratch/hazwong/825112/2JSE_4/usrc/2JSE_4_fmo_input.F40.002
-rw-r--r-- 1 hazwong frank 24231936 Dec  7 14:48 /scratch/hazwong/825112/2JSE_4/usrc/2JSE_4_fmo_input.F40.003
-rw-r--r-- 1 hazwong frank 24231936 Dec  7 14:48 /scratch/hazwong/825112/2JSE_4/usrc/2JSE_4_fmo_input.F40.004
-rw-r--r-- 1 hazwong frank 24231936 Dec  7 14:48 /scratch/hazwong/825112/2JSE_4/usrc/2JSE_4_fmo_input.F40.005
-rw-r--r-- 1 hazwong frank 24231936 Dec  7 14:48 /scratch/hazwong/825112/2JSE_4/usrc/2JSE_4_fmo_input.F40.006
-rw-r--r-- 1 hazwong frank 24231936 Dec  7 14:48 /scratch/hazwong/825112/2JSE_4/usrc/2JSE_4_fmo_input.F40.007
-rw-r--r-- 1 hazwong frank 24231936 Dec  7 14:48 /scratch/hazwong/825112/2JSE_4/usrc/2JSE_4_fmo_input.F40.008
-rw-r--r-- 1 hazwong frank 24231936 Dec  7 14:48 /scratch/hazwong/825112/2JSE_4/usrc/2JSE_4_fmo_input.F40.009
-rw-r--r-- 1 hazwong frank 24231936 Dec  7 14:48 /scratch/hazwong/825112/2JSE_4/usrc/2JSE_4_fmo_input.F40.010
-rw-r--r-- 1 hazwong frank 24231936 Dec  7 14:48 /scratch/hazwong/825112/2JSE_4/usrc/2JSE_4_fmo_input.F40.011
-rw-r--r-- 1 hazwong frank 24231936 Dec  7 14:48 /scratch/hazwong/825112/2JSE_4/usrc/2JSE_4_fmo_input.F40.012
-rw-r--r-- 1 hazwong frank 24231936 Dec  7 14:48 /scratch/hazwong/825112/2JSE_4/usrc/2JSE_4_fmo_input.F40.013
-rw-r--r-- 1 hazwong frank 24231936 Dec  7 14:48 /scratch/hazwong/825112/2JSE_4/usrc/2JSE_4_fmo_input.F40.014
-rw-r--r-- 1 hazwong frank 24231936 Dec  7 14:48 /scratch/hazwong/825112/2JSE_4/usrc/2JSE_4_fmo_input.F40.015
ls: No match.
ls: No match.
ls: No match.
Sat Dec  7 22:57:00 EST 2019
0.191u 0.105s 12:33:08.16 0.0%	0+0k 1648+144io 32pf+0w
