‘1ANR_6_fmo_input.inp’ -> ‘/scratch/hazwong/824212/./1ANR_6_fmo_input.inp’
‘rungms’ -> ‘/scratch/hazwong/824212/./rungms’
‘gms-files.csh’ -> ‘/scratch/hazwong/824212/./gms-files.csh’
----- GAMESS execution script 'rungms' -----
This job is running on host gollum060.lsa.umich.edu
under operating system Linux at Sat Dec 7 00:11:29 EST 2019
Available scratch disk space (Kbyte units) at beginning of the job is
Filesystem     1K-blocks   Used Available Use% Mounted on
/dev/sda4      426933580 213588 426719992   1% /scratch
GAMESS temporary binary files will be written to /scratch/hazwong/824212/1ANR_6/usrc
GAMESS supplementary output files will be written to /scratch/hazwong/824212/1ANR_6/src
Copying input file 1ANR_6_fmo_input.inp to your run's scratch directory...
cp 1ANR_6_fmo_input.inp /scratch/hazwong/824212/1ANR_6/usrc/1ANR_6_fmo_input.F05
unset echo
setenv OUTPUT /scratch/hazwong/824212/1ANR_6/usrc/1ANR_6_fmo_input.F06
This is a GDDI run, keeping various output files on local disks
setenv PUNCH /scratch/hazwong/824212/1ANR_6/usrc/1ANR_6_fmo_input.F07
unset echo
 
Assuming a single but multicore node.
 
/export/apps/CentOS7/gamess/src/build//ddikick.x /export/apps/CentOS7/gamess/src/build//gamess.R3.x 1ANR_6_fmo_input -ddi 1 16 gollum060.lsa.umich.edu:cpus=16 -scr /scratch/hazwong/824212/1ANR_6/usrc

 Distributed Data Interface kickoff program.
 Initiating 16 compute processes on 1 nodes to run the following command:
 /export/apps/CentOS7/gamess/src/build//gamess.R3.x 1ANR_6_fmo_input 

          ******************************************************
          *         GAMESS VERSION = 30 SEP 2018 (R3)         *
          *             FROM IOWA STATE UNIVERSITY             *
          * M.W.SCHMIDT, K.K.BALDRIDGE, J.A.BOATZ, S.T.ELBERT, *
          *   M.S.GORDON, J.H.JENSEN, S.KOSEKI, N.MATSUNAGA,   *
          *          K.A.NGUYEN, S.J.SU, T.L.WINDUS,           *
          *       TOGETHER WITH M.DUPUIS, J.A.MONTGOMERY       *
          *         J.COMPUT.CHEM.  14, 1347-1363(1993)        *
          **************** 64 BIT LINUX VERSION ****************

  SINCE 1993, STUDENTS AND POSTDOCS WORKING AT IOWA STATE UNIVERSITY
  AND ALSO IN THEIR VARIOUS JOBS AFTER LEAVING ISU HAVE MADE IMPORTANT
  CONTRIBUTIONS TO THE CODE:
     IVANA ADAMOVIC, CHRISTINE AIKENS, YURI ALEXEEV, POOJA ARORA,
     ANDREY ASADCHEV, ROB BELL, PRADIPTA BANDYOPADHYAY, JONATHAN BENTZ,
     BRETT BODE, KURT BRORSEN, CALEB CARLIN, GALINA CHABAN, WEI CHEN,
     CHEOL HO CHOI, PAUL DAY, ALBERT DEFUSCO, NUWAN DESILVA, TIM DUDLEY,
     DMITRI FEDOROV, ALEX FINDLATER, GRAHAM FLETCHER, MARK FREITAG,
     KURT GLAESEMANN, ANASTASIA GUNINA,
     DAN KEMP, GRANT MERRILL, NORIYUKI MINEZAWA, JONATHAN MULLIN,
     TAKESHI NAGATA, SEAN NEDD, HEATHER NETZLOFF, BOSILJKA NJEGIC, RYAN OLSON,
     MIKE PAK, BUU PHAM,
     SPENCER PRUITT, LUKE ROSKOP, JIM SHOEMAKER, LYUDMILA SLIPCHENKO,
     TONY SMITH, SAROM SOK LEANG, JIE SONG, TETSUYA TAKETSUGU, SIMON WEBB,
     PENG XU, SOOHAENG YOO, FEDERICO ZAHARIEV

  ADDITIONAL CODE HAS BEEN PROVIDED BY COLLABORATORS IN OTHER GROUPS:
     IOWA STATE UNIVERSITY:
          JOE IVANIC, AARON WEST, LAIMUTIS BYTAUTAS, KLAUS RUEDENBERG
     UNIVERSITY OF TOKYO: KIMIHIKO HIRAO, TAKAHITO NAKAJIMA,
          TAKAO TSUNEDA, MUNEAKI KAMIYA, SUSUMU YANAGISAWA,
          KIYOSHI YAGI, MAHITO CHIBA, SEIKEN TOKURA, NAOAKI KAWAKAMI
     UNIVERSITY OF AARHUS: FRANK JENSEN
     UNIVERSITY OF IOWA: VISVALDAS KAIRYS, HUI LI
     NATIONAL INST. OF STANDARDS AND TECHNOLOGY: WALT STEVENS, DAVID GARMER
     UNIVERSITY OF PISA: BENEDETTA MENNUCCI, JACOPO TOMASI
     UNIVERSITY OF MEMPHIS: HENRY KURTZ, PRAKASHAN KORAMBATH
     UNIVERSITY OF ALBERTA: TOBY ZENG, MARIUSZ KLOBUKOWSKI
     UNIVERSITY OF NEW ENGLAND: MARK SPACKMAN
     MIE UNIVERSITY: HIROAKI UMEDA
     NAT. INST. OF ADVANCED INDUSTRIAL SCIENCE AND TECHNOLOGY: KAZUO KITAURA
     MICHIGAN STATE UNIVERSITY:
          KAROL KOWALSKI, MARTA WLOCH, JEFFREY GOUR, JESSE LUTZ,
          WEI LI, JUN SHEN, J. EMILIANO DEUSTUA, PIOTR PIECUCH
     UNIVERSITY OF MINNESOTA:
          YINAN SHU
     UNIVERSITY OF SILESIA: MONIKA MUSIAL, STANISLAW KUCHARSKI
     FACULTES UNIVERSITAIRES NOTRE-DAME DE LA PAIX:
          OLIVIER QUINET, BENOIT CHAMPAGNE
     UNIVERSITY OF CALIFORNIA - SANTA BARBARA: BERNARD KIRTMAN
     INSTITUTE FOR MOLECULAR SCIENCE:
          KAZUYA ISHIMURA, MICHIO KATOUDA, AND SHIGERU NAGASE
     UNIVERSITY OF NOTRE DAME: ANNA POMOGAEVA, DAN CHIPMAN
     KYUSHU UNIVERSITY:
          HARUYUKI NAKANO,
          FENG LONG GU, JACEK KORCHOWIEC, MARCIN MAKOWSKI, AND YURIKO AOKI,
          HIROTOSHI MORI AND EISAKU MIYOSHI
     PENNSYLVANIA STATE UNIVERSITY:
          TZVETELIN IORDANOV, CHET SWALINA, JONATHAN SKONE,
          SHARON HAMMES-SCHIFFER
     WASEDA UNIVERSITY:
          MASATO KOBAYASHI, TOMOKO AKAMA, TSUGUKI TOUMA,
          TAKESHI YOSHIKAWA, YASUHIRO IKABATA, JUNJI SEINO,
          YUYA NAKAJIMA, HIROMI NAKAI
     NANJING UNIVERSITY: SHUHUA LI
     UNIVERSITY OF NEBRASKA:
          PEIFENG SU, DEJUN SI, NANDUN THELLAMUREGE, YALI WANG, HUI LI
     UNIVERSITY OF ZURICH: ROBERTO PEVERATI, KIM BALDRIDGE
     N. COPERNICUS UNIVERSITY AND JACKSON STATE UNIVERSITY:
          MARIA BARYSZ
     UNIVERSITY OF COPENHAGEN: Jimmy Kromann, CASPER STEINMANN
     TOKYO INSTITUTE OF TECHNOLOGY: HIROYA NAKATA
     NAGOYA UNIVERSITY: YOSHIO NISHIMOTO, STEPHAN IRLE
     MOSCOW STATE UNIVERSITY: VLADIMIR MIRONOV


 PARALLEL VERSION RUNNING ON       16 PROCESSORS IN        1 NODES.

 EXECUTION OF GAMESS BEGUN Sat Dec  7 00:11:29 2019

            ECHO OF THE FIRST FEW INPUT CARDS -
 INPUT CARD>!*** FMO 5.3 (Gamess) INPUT generated by Facio 22.1.1.32 ***                    
 INPUT CARD> $CONTRL RUNTYP=ENERGY NPRINT=-5 ISPHER=1 MAXIT=200 $END                        
 INPUT CARD> $SYSTEM MWORDS=63 MEMDDI=63 $END                                               
 INPUT CARD> $GDDI NGROUP=1 $END                                                            
 INPUT CARD> $SCF DIRSCF=.TRUE. NPUNCH=0 $END                                               
 INPUT CARD>!*** NumCPU : 2  MemPerNode : 512MB                                             
 INPUT CARD> $PCM SOLVNT=WATER IEF=-10 ICOMP=2 ICAV=1 IDISP=1 IFMO=-1 $END                  
 INPUT CARD> $PCMCAV RADII=SUAHF $END                                                       
 INPUT CARD> $TESCAV NTSALL=60 $END                                                         
 INPUT CARD> $FMOPRP                                                                        
 INPUT CARD>    NAODIR=200                                                                  
 INPUT CARD>    NGRFMO(1)=1, 1, 0, 0, 0,   0, 0, 0, 0, 0                                    
 INPUT CARD>    IPIEDA=1                                                                    
 INPUT CARD>    NPRINT=9                                                                    
 INPUT CARD> $END                                                                           
 INPUT CARD> $FMO                                                                           
 INPUT CARD>      SCFTYP(1)=RHF                                                             
 INPUT CARD>      MODGRD=10                                                                 
 INPUT CARD>      MODMUL=0                                                                  
 INPUT CARD>      MAXCAO=5                                                                  
 INPUT CARD>      MAXBND=12                                                                 
 INPUT CARD>      NLAYER=1                                                                  
 INPUT CARD>      MPLEVL(1)=2                                                               
 INPUT CARD>      NFRAG=10                                                                  
 INPUT CARD>      ICHARG(1)=-1, -1, -1, -1, -1, -1, -1, -1, -1, 0                           
 INPUT CARD>      FRGNAM(1)=F1, F2, F3, F4, F5, F6, F7, F8, F9, F10                         
 INPUT CARD>      indat(1)=0                                                                
 INPUT CARD>               1   -36   0                                                      
 INPUT CARD>               37   -67   0                                                     
 INPUT CARD>               68   -98   0                                                     
 INPUT CARD>               99   -128   0                                                    
 INPUT CARD>               129   -162   0                                                   
 INPUT CARD>               163   -196   0                                                   
 INPUT CARD>               197   -230   0                                                   
 INPUT CARD>               231   -263   0                                                   
 INPUT CARD>               264   -297   0                                                   
 INPUT CARD>               298   -325   0                                                   
 INPUT CARD> $END                                                                           
 INPUT CARD>                                                                                
 INPUT CARD> $FMOBND                                                                        
 INPUT CARD>   -37   36       6-31G*    MINI                                                
 INPUT CARD>   -68   67       6-31G*    MINI                                                
 INPUT CARD>   -99   98       6-31G*    MINI                                                
 INPUT CARD>   -129   128       6-31G*    MINI                                              
 INPUT CARD>   -163   162       6-31G*    MINI                                              
 INPUT CARD>   -197   196       6-31G*    MINI                                              
 INPUT CARD>   -231   230       6-31G*    MINI                                              
 INPUT CARD>   -264   263       6-31G*    MINI                                              
 INPUT CARD>   -298   297       6-31G*    MINI                                              
 INPUT CARD> $END                                                                           


 -------------------------------------------------------------
 GROUP DDI, PROGRAMMED BY: RYAN M. OLSON AND DMITRI G. FEDOROV
        FEDOROV ET AL., J. COMPUT. CHEM., 25 (2004) 872.
 -------------------------------------------------------------

 -------------------------------------------------------
 GDDI: INITIALIZATION COMPLETED FOR GROUP     1 OF     1
 WITH    16 PROCESSES BALTYP=DLB   global rank=        0
 -------------------------------------------------------

   63000000 WORDS OF MEMORY AVAILABLE


     RUN TITLE
     ---------
  FMO calculation                                                                

 THE POINT GROUP OF THE MOLECULE IS C1      
 THE ORDER OF THE PRINCIPAL AXIS IS     0

 ATOM   ATOMIC CHARGE
 H.1-1       1.0
 O.1-1       8.0
 C.1-1       6.0
 N.1-1       7.0
 P.1-1      15.0

     ATOMIC BASIS SET LIBRARY
     ----------------
 THE CONTRACTED PRIMITIVE FUNCTIONS HAVE BEEN UNNORMALIZED
 THE CONTRACTED BASIS FUNCTIONS ARE NOW NORMALIZED TO UNITY

  SHELL TYPE  PRIMITIVE        EXPONENT          CONTRACTION COEFFICIENT(S)

 H.1-1     

      1   S       1            18.7311370    0.033494604338
      1   S       2             2.8253944    0.234726953484
      1   S       3             0.6401217    0.813757326146

      2   S       4             0.1612778    1.000000000000

 O.1-1     

      3   S       5          5484.6716600    0.001831074430
      3   S       6           825.2349460    0.013950172200
      3   S       7           188.0469580    0.068445078098
      3   S       8            52.9645000    0.232714335992
      3   S       9            16.8975704    0.470192897984
      3   S      10             5.7996353    0.358520852987

      4   L      11            15.5396162   -0.110777549525    0.070874268231
      4   L      12             3.5999336   -0.148026262701    0.339752839147
      4   L      13             1.0137618    1.130767015354    0.727158577316

      5   L      14             0.2700058    1.000000000000    1.000000000000

      6   D      15             0.8000000    1.000000000000

 C.1-1     

      7   S      16          3047.5248800    0.001834737132
      7   S      17           457.3695180    0.014037322813
      7   S      18           103.9486850    0.068842622264
      7   S      19            29.2101553    0.232184443216
      7   S      20             9.2866630    0.467941348435
      7   S      21             3.1639270    0.362311985337

      8   L      22             7.8682723   -0.119332419775    0.068999066591
      8   L      23             1.8812885   -0.160854151696    0.316423960957
      8   L      24             0.5442493    1.143456437840    0.744308290898

      9   L      25             0.1687145    1.000000000000    1.000000000000

     10   D      26             0.8000000    1.000000000000

 N.1-1     

     11   S      27          4173.5114600    0.001834772160
     11   S      28           627.4579110    0.013994627002
     11   S      29           142.9020930    0.068586551812
     11   S      30            40.2343293    0.232240873040
     11   S      31            12.8202129    0.469069948082
     11   S      32             4.3904370    0.360455199063

     12   L      33            11.6263619   -0.114961181702    0.067579743878
     12   L      34             2.7162798   -0.169117478561    0.323907295893
     12   L      35             0.7722184    1.145851947027    0.740895139755

     13   L      36             0.2120315    1.000000000000    1.000000000000

     14   D      37             0.8000000    1.000000000000

 P.1-1     

     15   S      38         19413.3000000    0.001851598923
     15   S      39          2909.4200000    0.014206191735
     15   S      40           661.3640000    0.069999459277
     15   S      41           185.7590000    0.240078860331
     15   S      42            59.1943000    0.484761717984
     15   S      43            20.0310000    0.335199804993

     16   L      44           339.4780000   -0.002782170105    0.004564616191
     16   L      45            81.0101000   -0.036049901354    0.033693571881
     16   L      46            25.8780000   -0.116631004382    0.139754883368
     16   L      47             9.4522100    0.096832803638    0.339361716786
     16   L      48             3.6656600    0.614418023082    0.450920623685
     16   L      49             1.4674600    0.403798015170    0.238585800889

     17   L      50             2.1562300   -0.252924113863   -0.017765312733
     17   L      51             0.7489970    0.032851844678    0.274058196433
     17   L      52             0.2831450    1.081254761783    0.785421562957

     18   L      53             0.0998317    1.000000000000    1.000000000000

     19   D      54             0.5500000    1.000000000000

 TOTAL NUMBER OF BASIS SET SHELLS             =   19
 NUMBER OF CARTESIAN GAUSSIAN BASIS FUNCTIONS =   66

     $CONTRL OPTIONS
     ---------------
 SCFTYP=RHF          RUNTYP=ENERGY       EXETYP=RUN     
 MPLEVL=       0     CITYP =NONE         CCTYP =NONE         VBTYP =NONE    
 DFTTYP=NONE         TDDFT =NONE    
 MULT  =       1     ICHARG=       0     NZVAR =       0     COORD =UNIQUE  
 PP    =NONE         RELWFN=NONE         LOCAL =NONE         NUMGRD=       F
 ISPHER=       1     NOSYM =       0     MAXIT =     200     UNITS =ANGS    
 PLTORB=       F     MOLPLT=       F     AIMPAC=       F     FRIEND=        
 NPRINT=      -5     IREST =       0     GEOM  =INPUT   
 NORMF =       0     NORMP =       0     ITOL  =      24     ICUT  =      12
 INTTYP=BEST         GRDTYP=BEST         QMTTOL= 1.0E-06

     $SYSTEM OPTIONS
     ---------------
  REPLICATED MEMORY=    63000000 WORDS (ON EVERY NODE).
 DISTRIBUTED MEMDDI=          63 MILLION WORDS IN AGGREGATE,
 MEMDDI DISTRIBUTED OVER  16 PROCESSORS IS     3937500 WORDS/PROCESSOR.
 TOTAL MEMORY REQUESTED ON EACH PROCESSOR=    66937500 WORDS.
 TIMLIM=      525600.00 MINUTES, OR     365.0 DAYS.
 PARALL= T  BALTYP=  DLB     KDIAG=    0  COREFL= F
 MXSEQ2=     300 MXSEQ3=     150  mem10=         0

 ** LOOKING UP INTERNALLY STORED DATA FOR SOLVENT=WATER    **
 OPTICAL AND PHYSICAL CONSTANTS:
 EPS= 78.390; EPSINF=  1.776; RSOLV=  1.385 A; VMOL=  18.070 ML/MOL;
 TCE= .25700E-03 1/K; STEN= 71.810 DYN/CM;  DSTEN=  0.6500; CMF=  1.2770


     -----------------------------------
     INPUT FOR PCM SOLVATION CALCULATION 
     -----------------------------------
     IEF   =     -10
     ICOMP =       2     IFIELD=       0     ICAV  =       1
     IDISP =       1     IREP  =       0     IDP   =       0

     SOLVNT=WATER        EPS   = 78.3900     EPSINF=  1.7760
     VMOL  = 18.0700     TCE   =  0.00025700 STEN  = 71.8100
     DSTEN =  0.6500     CMF   =  1.2770     RSOLV =  1.3850

     NESFP =       0
     OMEGA = 40.0000     RET   =100.0000     FRO   =  0.7000

     TABS  =298.0000     IPRINT=       0

     --------------------------------
     INPUT FOR ITERATIVE C-PCM METHOD 
     --------------------------------
     IPCMIT  =         1     MXDIIS  =        50
     MXITR1  =       200     MXITR2  =       200
     THRES   = 0.100E-09     IMUL    =         3
     RCUT(1) =   20.0000     RCUT(2) =   50.0000

     IDIRCT  =         1
     IMGABI  =         0     RABI    =    4.0000
     IMGASC  =         0     RASC    =   20.0000
     THRSLS  = 0.500E-03     DENSLS  =    0.0100
     IEFPOL  =         1     REFPOL  =    0.0000

     INPUT FOR ISOTROPIC DIELECTRICS
     -------------------------------
     EPS=    78.39

          ----------------
          PROPERTIES INPUT
          ----------------

     MOMENTS            FIELD           POTENTIAL          DENSITY
 IEMOM =       1   IEFLD =       0   IEPOT =       0   IEDEN =       0
 WHERE =COMASS     WHERE =NUCLEI     WHERE =NUCLEI     WHERE =NUCLEI  
 OUTPUT=BOTH       OUTPUT=BOTH       OUTPUT=NONE       OUTPUT=BOTH    
 IEMINT=       0   IEFINT=       0                     IEDINT=       0
                                                       MORB  =       0
          EXTRAPOLATION IN EFFECT
          SOSCF IN EFFECT
 ORBITAL PRINTING OPTION: NPREO=     1 32767     2     1

     -------------------------------
     INTEGRAL TRANSFORMATION OPTIONS
     -------------------------------
     NWORD  =            0
     CUTOFF = 1.0E-10     MPTRAN =       0
     DIRTRF =       T     AOINTS =DUP     

          ----------------------
          INTEGRAL INPUT OPTIONS
          ----------------------
 NOPK  =       1 NORDER=       0 SCHWRZ=       T

 ..... DONE SETTING UP THE RUN .....
 CPU     0: STEP CPU TIME=     0.04 TOTAL CPU TIME=          0.0 (      0.0 MIN)
 TOTAL WALL CLOCK TIME=          0.1 SECONDS, CPU UTILIZATION IS    57.14%
 CPU     0: STEP CPU TIME=     0.00 TOTAL CPU TIME=          0.0 (      0.0 MIN)
 TOTAL WALL CLOCK TIME=          0.1 SECONDS, CPU UTILIZATION IS    57.14%

                    ----------------------
                    AO INTEGRAL TECHNOLOGY
                    ----------------------
     S,P,L SHELL ROTATED AXIS INTEGRALS, REPROGRAMMED BY
        KAZUYA ISHIMURA (IMS) AND JOSE SIERRA (SYNSTAR).
     S,P,D,L SHELL ROTATED AXIS INTEGRALS PROGRAMMED BY
        KAZUYA ISHIMURA (INSTITUTE FOR MOLECULAR SCIENCE).
     S,P,D,F,G SHELL TO TOTAL QUARTET ANGULAR MOMENTUM SUM 5,
        ERIC PROGRAM BY GRAHAM FLETCHER (ELORET AND NASA ADVANCED
        SUPERCOMPUTING DIVISION, AMES RESEARCH CENTER).
     S,P,D,F,G,L SHELL GENERAL RYS QUADRATURE PROGRAMMED BY
        MICHEL DUPUIS (PACIFIC NORTHWEST NATIONAL LABORATORY).
 Setting modorb=1 flag...
 Setting modorb=1 flag...

          -----------------------
          MP2 CONTROL INFORMATION
          -----------------------
          NACORE =        8  NBCORE =        8
          LMOMP2 =        F  AOINTS = DUP     
          METHOD =        2  NWORD  =               0
          MP2PRP =        F  OSPT   = NONE    
          CUTOFF = 1.00E-12  CPHFBS = BASISAO 
          CODE   = IMS     

          NUMBER OF CORE -A-  ORBITALS =     8
          NUMBER OF CORE -B-  ORBITALS =     8
          NUMBER OF OCC. -A-  ORBITALS =    18
          NUMBER OF OCC. -B-  ORBITALS =    18
          NUMBER OF MOLECULAR ORBITALS =    66
          NUMBER OF   BASIS  FUNCTIONS =    66

 CPU     0: STEP CPU TIME=     0.02 TOTAL CPU TIME=          0.1 (      0.0 MIN)
 TOTAL WALL CLOCK TIME=          0.1 SECONDS, CPU UTILIZATION IS    60.00%
 CPU     0: STEP CPU TIME=     0.00 TOTAL CPU TIME=          0.1 (      0.0 MIN)
 TOTAL WALL CLOCK TIME=          0.1 SECONDS, CPU UTILIZATION IS    60.00%

     INPUT FOR CAVITY DEFINITION 
     ---------------------------
   ATOM               COORDINATES                RADIUS       EPS
      1    -10.5980     -4.8610     18.4160      0.0100     78.3900
      2    -10.6320     -4.0770     17.8360      1.5900     78.3900
      3    -10.9420     -4.5480     16.5220      1.7700     78.3900
      4    -11.9240     -5.0720     16.5510      0.0100     78.3900
      5    -10.1770     -5.2990     16.2120      0.0100     78.3900
      6    -11.0020     -3.4010     15.5120      1.7700     78.3900
      7    -10.8390     -2.4200     16.0130      0.0100     78.3900
      8     -9.9410     -3.5540     14.5330      1.5900     78.3900
      9    -10.3180     -2.8420     13.3770      1.7700     78.3900
     10    -10.1120     -1.7650     13.5780      0.0100     78.3900
     11     -9.5950     -3.2860     12.1700      1.6800     78.3900
     12     -9.7410     -2.8230     10.8790      1.7700     78.3900
     13    -11.2460     -0.7130      8.5570      1.6800     78.3900
     14    -11.9130     -0.2230      9.1120      0.0100     78.3900
     15    -11.3840     -0.7240      7.5640      0.0100     78.3900
     16    -10.5910     -1.8570     10.4600      1.6800     78.3900
     17    -10.4840     -1.6160      9.1510      1.7700     78.3900
     18     -9.6190     -2.2940      8.3380      1.6800     78.3900
     19     -9.6420     -2.0760      7.3570      0.0100     78.3900
     20     -8.7560     -3.3070      8.7350      1.7700     78.3900
     21     -8.0140     -3.8810      7.9330      1.5900     78.3900
     22     -8.8440     -3.5550     10.1260      1.7700     78.3900
     23     -8.1460     -4.4570     10.9180      1.6800     78.3900
     24     -8.6320     -4.2670     12.1210      1.7700     78.3900
     25     -8.3280     -4.8090     13.0200      0.0100     78.3900
     26    -11.7910     -3.0730     13.2340      1.7700     78.3900
     27    -11.9990     -3.9960     12.6460      0.0100     78.3900
     28    -12.3670     -1.9440     12.6220      1.5900     78.3900
     29    -11.9380     -1.8010     11.7580      0.0100     78.3900
     30    -12.2830     -3.2930     14.6780      1.7700     78.3900
     31    -12.7500     -4.3060     14.7040      0.0100     78.3900
     32    -13.1600     -2.2750     15.2040      1.5900     78.3900
     33    -14.6430     -2.5560     15.6360      2.1000     78.3900
     34    -14.9600     -1.6650     16.7720      1.5900     78.3900
     35    -14.8130     -4.0040     15.8880      1.5900     78.3900
     36    -15.5260     -2.1120     14.3970      1.5900     78.3900
     37    -15.4540     -2.7910     13.1300      1.7700     78.3900
     38    -16.1290     -3.6740     13.1480      0.0100     78.3900
     39    -14.4460     -3.1900     12.9420      0.0100     78.3900
     40    -15.8940     -1.8740     11.9750      1.7700     78.3900
     41    -16.4210     -0.9690     12.3420      0.0100     78.3900
     42    -14.7370     -1.4330     11.2000      1.5900     78.3900
     43    -14.8640     -1.8020      9.8370      1.7700     78.3900
     44    -14.6570     -0.8650      9.2680      0.0100     78.3900
     45    -13.8990     -2.8550      9.3930      1.6800     78.3900
     46    -13.3690     -3.7310     10.3030      1.7700     78.3900
     47    -13.6920     -3.5960     11.3260      0.0100     78.3900
     48    -12.4650     -4.6550      9.9540      1.7700     78.3900
     49    -11.9970     -5.3180     10.6790      0.0100     78.3900
     50    -13.5250     -2.9640      8.0540      1.7700     78.3900
     51    -13.9690     -2.1520      7.2360      1.5900     78.3900
     52    -12.6890     -3.9500      7.6650      1.6800     78.3900
     53    -12.1160     -4.7410      8.5790      1.7700     78.3900
     54    -11.1920     -5.6060      8.1790      1.6800     78.3900
     55    -11.0980     -5.7680      7.1940      0.0100     78.3900
     56    -10.7040     -6.1930      8.8220      0.0100     78.3900
     57    -16.3010     -2.1990      9.6070      1.7700     78.3900
     58    -16.3730     -3.0860      8.9480      0.0100     78.3900
     59    -17.0530     -1.1280      9.0750      1.5900     78.3900
     60    -17.9810     -1.3320      9.2620      0.0100     78.3900
     61    -16.7930     -2.6090     10.9810      1.7700     78.3900
     62    -16.5660     -3.6930     11.1120      0.0100     78.3900
     63    -18.1790     -2.2860     11.2150      1.5900     78.3900
     64    -19.2440     -3.4070     11.4260      2.1000     78.3900
     65    -20.5090     -2.7490     11.8130      1.5900     78.3900
     66    -18.6910     -4.4130     12.3500      1.5900     78.3900
     67    -19.3700     -4.0230      9.9760      1.5900     78.3900
     68    -20.6600     -4.3580      9.4050      1.7700     78.3900
     69    -20.9600     -3.5640      8.6820      0.0100     78.3900
     70    -21.4650     -4.3940     10.1800      0.0100     78.3900
     71    -20.7050     -5.7310      8.6890      1.7700     78.3900
     72    -21.6830     -6.2210      8.8910      0.0100     78.3900
     73    -20.5680     -5.5790      7.2630      1.5900     78.3900
     74    -19.1950     -5.5990      6.8960      1.7700     78.3900
     75    -19.1130     -6.2640      6.0070      0.0100     78.3900
     76    -18.7130     -4.2260      6.5530      1.6800     78.3900
     77    -17.4170     -3.8980      6.8400      1.7700     78.3900
     78    -16.7760     -4.6480      7.3070      0.0100     78.3900
     79    -16.9530     -2.6730      6.5960      1.7700     78.3900
     80    -15.9810     -2.3560      6.9060      0.0100     78.3900
     81    -19.4890     -3.3050      5.8230      1.7700     78.3900
     82    -20.6040     -3.6330      5.3960      1.5900     78.3900
     83    -19.0160     -2.0600      5.5760      1.6800     78.3900
     84    -17.7830     -1.7270      5.9670      1.7700     78.3900
     85    -17.3090     -0.5050      5.7410      1.6800     78.3900
     86    -16.4290     -0.2170      6.1190      0.0100     78.3900
     87    -17.8830      0.1770      5.2920      0.0100     78.3900
     88    -18.4390     -6.2340      8.0740      1.7700     78.3900
     89    -17.8540     -5.4840      8.6470      0.0100     78.3900
     90    -17.5760     -7.2800      7.6580      1.5900     78.3900
     91    -17.5190     -7.9060      8.4000      0.0100     78.3900
     92    -19.5660     -6.6760      9.0240      1.7700     78.3900
     93    -19.2920     -6.4410     10.0760      0.0100     78.3900
     94    -19.9920     -8.0380      8.8790      1.5900     78.3900
     95    -19.2330     -9.1760      9.6460      2.1000     78.3900
     96    -18.6850    -10.0350      8.5810      1.5900     78.3900
     97    -20.1780     -9.7110     10.6430      1.5900     78.3900
     98    -18.0280     -8.4280     10.3500      1.5900     78.3900
     99    -16.8080     -9.1030     10.7060      1.7700     78.3900
    100    -15.9430     -8.4670     10.4080      0.0100     78.3900
    101    -16.7100    -10.0420     10.1290      0.0100     78.3900
    102    -16.6550     -9.4220     12.2160      1.7700     78.3900
    103    -15.6450     -9.8320     12.4240      0.0100     78.3900
    104    -16.7800     -8.2050     13.0000      1.5900     78.3900
    105    -17.6080     -8.4250     14.1350      1.7700     78.3900
    106    -16.9850     -8.1260     15.0130      0.0100     78.3900
    107    -18.8530     -7.6080     14.0860      1.6800     78.3900
    108    -19.3920     -7.2330     12.8800      1.7700     78.3900
    109    -18.7130     -7.2910     12.0440      0.0100     78.3900
    110    -19.4960     -7.3000     15.2550      1.7700     78.3900
    111    -19.0570     -7.6410     16.3580      1.5900     78.3900
    112    -20.6590     -6.5860     15.1160      1.6800     78.3900
    113    -21.0980     -6.2830     15.9740      0.0100     78.3900
    114    -21.2650     -6.2030     13.9360      1.7700     78.3900
    115    -22.3060     -5.5470     13.9570      1.5900     78.3900
    116    -20.5700     -6.6110     12.7590      1.7700     78.3900
    117    -20.9390     -6.2800     11.7930      0.0100     78.3900
    118    -17.9050     -9.9130     14.2350      1.7700     78.3900
    119    -18.9560    -10.1150     14.5390      0.0100     78.3900
    120    -17.0190    -10.5410     15.1390      1.5900     78.3900
    121    -16.9830    -11.4710     14.8640      0.0100     78.3900
    122    -17.6810    -10.3910     12.8120      1.7700     78.3900
    123    -18.6120    -10.2020     12.2440      0.0100     78.3900
    124    -17.2110    -11.7570     12.7320      1.5900     78.3900
    125    -18.1820    -12.8800     12.2450      2.1000     78.3900
    126    -19.5700    -12.3590     12.3490      1.5900     78.3900
    127    -17.9020    -14.0840     13.0460      1.5900     78.3900
    128    -17.7880    -13.1510     10.7530      1.5900     78.3900
    129    -16.5060    -13.6620     10.3350      1.7700     78.3900
    130    -16.6790    -14.4790      9.6020      0.0100     78.3900
    131    -15.9290    -14.0970     11.1830      0.0100     78.3900
    132    -15.6170    -12.6180      9.6540      1.7700     78.3900
    133    -16.1560    -12.0730      8.8480      0.0100     78.3900
    134    -15.1870    -11.6730     10.6390      1.5900     78.3900
    135    -13.8810    -11.2260     10.3940      1.7700     78.3900
    136    -13.9590    -10.1460     10.1400      0.0100     78.3900
    137    -13.0680    -11.3970     11.5960      1.6800     78.3900
    138    -11.7830    -10.9780     11.7980      1.7700     78.3900
    139     -8.8940     -9.4410     10.6730      1.6800     78.3900
    140     -7.9870     -9.2180     11.0210      0.0100     78.3900
    141     -9.1470     -9.1640      9.7460      0.0100     78.3900
    142    -11.0150    -10.3120     10.9140      1.6800     78.3900
    143     -9.7970    -10.0690     11.3990      1.7700     78.3900
    144     -9.3880    -10.4500     12.6490      1.6800     78.3900
    145     -8.4620    -10.2040     12.9380      0.0100     78.3900
    146    -10.1680    -11.1160     13.5830      1.7700     78.3900
    147     -9.7320    -11.4200     14.6980      1.5900     78.3900
    148    -11.4650    -11.3880     13.0800      1.7700     78.3900
    149    -12.5350    -12.0400     13.6780      1.6800     78.3900
    150    -13.4720    -12.0080     12.7630      1.7700     78.3900
    151    -14.4850    -12.4100     12.8670      0.0100     78.3900
    152    -13.3470    -12.0020      9.2160      1.7700     78.3900
    153    -12.3070    -12.3590      9.3840      0.0100     78.3900
    154    -13.3860    -11.2220      8.0440      1.5900     78.3900
    155    -13.2320    -11.8370      7.3150      0.0100     78.3900
    156    -14.3060    -13.1930      9.1300      1.7700     78.3900
    157    -13.9940    -13.9820      9.8470      0.0100     78.3900
    158    -14.5250    -13.7300      7.8230      1.5900     78.3900
    159    -13.3880    -14.4420      7.0190      2.1000     78.3900
    160    -13.5530    -15.9070      7.0770      1.5900     78.3900
    161    -12.0670    -13.9140      7.4160      1.5900     78.3900
    162    -13.6410    -13.9830      5.5390      1.5900     78.3900
    163    -14.9820    -13.7140      5.0830      1.7700     78.3900
    164    -14.8440    -13.0510      4.2330      0.0100     78.3900
    165    -15.6080    -13.1410      5.8020      0.0100     78.3900
    166    -15.7030    -14.9840      4.6090      1.7700     78.3900
    167    -14.9470    -15.7310      4.2850      0.0100     78.3900
    168    -16.4970    -15.5570      5.6760      1.5900     78.3900
    169    -17.8730    -15.3480      5.4080      1.7700     78.3900
    170    -18.2830    -16.3600      5.1990      0.0100     78.3900
    171    -18.5500    -14.7520      6.5530      1.6800     78.3900
    172    -19.4970    -15.3540      7.3330      1.7700     78.3900
    173    -21.4240    -18.1110      8.1520      1.6800     78.3900
    174    -22.1170    -18.3530      8.8300      0.0100     78.3900
    175    -21.2060    -18.7440      7.4130      0.0100     78.3900
    176    -19.9680    -16.6070      7.1830      1.6800     78.3900
    177    -20.8480    -16.9250      8.1330      1.7700     78.3900
    178    -21.2410    -16.0610      9.1180      1.6800     78.3900
    179    -21.9070    -16.3760      9.7960      0.0100     78.3900
    180    -20.7930    -14.7600      9.2730      1.7700     78.3900
    181    -21.2370    -14.0680     10.1910      1.5900     78.3900
    182    -19.8500    -14.4100      8.2730      1.7700     78.3900
    183    -19.1580    -13.2320      8.0690      1.6800     78.3900
    184    -18.3780    -13.4820      7.0510      1.7700     78.3900
    185    -17.6540    -12.7810      6.6310      0.0100     78.3900
    186    -18.0110    -14.4820      4.1780      1.7700     78.3900
    187    -18.0700    -13.3970      4.4340      0.0100     78.3900
    188    -19.1220    -14.8620      3.3910      1.5900     78.3900
    189    -18.8700    -15.6910      2.9490      0.0100     78.3900
    190    -16.7020    -14.7560      3.4540      1.7700     78.3900
    191    -16.4600    -13.8200      2.9340      0.0100     78.3900
    192    -16.7440    -15.8680      2.5370      1.5900     78.3900
    193    -15.6760    -15.9920      1.3820      2.1000     78.3900
    194    -16.3080    -15.5320      0.1340      1.5900     78.3900
    195    -15.2000    -17.3930      1.4110      1.5900     78.3900
    196    -14.4980    -15.0220      1.7950      1.5900     78.3900
    197    -14.1410    -13.8560      1.0240      1.7700     78.3900
    198    -13.9190    -14.1440     -0.0280      0.0100     78.3900
    199    -13.1970    -13.4420      1.4400      0.0100     78.3900
    200    -15.1990    -12.7280      1.0280      1.7700     78.3900
    201    -16.2240    -13.1090      0.8410      0.0100     78.3900
    202    -15.1830    -12.0450      2.3010      1.5900     78.3900
    203    -14.8200    -10.7020      2.1820      1.7700     78.3900
    204    -15.5230    -10.1470      2.8450      0.0100     78.3900
    205    -13.4420    -10.4840      2.6500      1.6800     78.3900
    206    -13.0650     -9.9500      3.8630      1.7700     78.3900
    207    -13.8550     -8.5450      6.9410      1.6800     78.3900
    208    -13.3770     -8.4470      7.8090      0.0100     78.3900
    209    -14.8410     -8.6680      6.9570      0.0100     78.3900
    210    -13.8900     -9.5020      4.8330      1.6800     78.3900
    211    -13.2190     -9.0670      5.9030      1.7700     78.3900
    212    -11.8490     -9.1180      6.0060      1.6800     78.3900
    213    -11.4190     -8.7180      6.8200      0.0100     78.3900
    214    -10.9780     -9.5090      4.9950      1.7700     78.3900
    215     -9.7470     -9.4780      5.1300      1.5900     78.3900
    216    -11.6820     -9.9790      3.8590      1.7700     78.3900
    217    -11.2000    -10.5140      2.6740      1.6800     78.3900
    218    -12.2750    -10.8050      1.9910      1.7700     78.3900
    219    -12.2590    -11.2680      1.0020      0.0100     78.3900
    220    -15.0540    -10.3150      0.7490      1.7700     78.3900
    221    -14.3130     -9.5640      0.3980      0.0100     78.3900
    222    -16.3620     -9.7950      0.5750      1.5900     78.3900
    223    -16.6120     -9.9800     -0.3390      0.0100     78.3900
    224    -14.8640    -11.6520      0.0160      1.7700     78.3900
    225    -13.7800    -11.7790     -0.2040      0.0100     78.3900
    226    -15.6960    -11.7970     -1.1450      1.5900     78.3900
    227    -15.1880    -12.4950     -2.4550      2.1000     78.3900
    228    -16.1230    -12.1460     -3.5420      1.5900     78.3900
    229    -14.9690    -13.9350     -2.2210      1.5900     78.3900
    230    -13.7820    -11.8280     -2.7040      1.5900     78.3900
    231    -13.5020    -10.4240     -2.5260      1.7700     78.3900
    232    -12.4880    -10.3240     -2.0770      0.0100     78.3900
    233    -14.2120     -9.9090     -1.8420      0.0100     78.3900
    234    -13.5300     -9.6900     -3.8550      1.7700     78.3900
    235    -12.8790    -10.2110     -4.5890      0.0100     78.3900
    236    -14.8900     -9.6120     -4.3680      1.5900     78.3900
    237    -15.3990     -8.2990     -4.2180      1.7700     78.3900
    238    -15.4780     -7.8920     -5.2500      0.0100     78.3900
    239    -16.7200     -8.2700     -3.5800      1.6800     78.3900
    240    -18.6960     -7.6260     -2.8600      1.7700     78.3900
    241    -18.4910     -8.9050     -2.3440      1.6800     78.3900
    242    -17.3080     -9.2360     -2.8040      1.7700     78.3900
    243    -16.8050    -10.1810     -2.6150      0.0100     78.3900
    244    -19.6450     -5.5060     -3.3680      1.6800     78.3900
    245    -18.5280     -5.2670     -4.0660      1.7700     78.3900
    246    -18.4700     -4.2870     -4.5520      0.0100     78.3900
    247    -17.4720     -6.0560     -4.2700      1.6800     78.3900
    248    -17.6110     -7.2250     -3.6180      1.7700     78.3900
    249    -19.7670     -6.7090     -2.7460      1.7700     78.3900
    250    -20.8970     -6.9720     -2.0650      1.6800     78.3900
    251    -21.0450     -7.8500     -1.6020      0.0100     78.3900
    252    -21.6360     -6.2930     -2.0510      0.0100     78.3900
    253    -14.4020     -7.4970     -3.4350      1.7700     78.3900
    254    -14.6220     -7.4990     -2.3430      0.0100     78.3900
    255    -14.3540     -6.1820     -3.9330      1.5900     78.3900
    256    -13.8240     -6.2180     -4.7430      0.0100     78.3900
    257    -13.0930     -8.2320     -3.7080      1.7700     78.3900
    258    -12.4700     -8.1620     -2.7830      0.0100     78.3900
    259    -12.3960     -7.7680     -4.8880      1.5900     78.3900
    260    -10.8920     -7.3340     -4.7750      2.1000     78.3900
    261    -10.3740     -7.1500     -6.1460      1.5900     78.3900
    262    -10.1600     -8.3110     -3.9380      1.5900     78.3900
    263    -10.9450     -5.9230     -4.0690      1.5900     78.3900
    264    -10.9420     -5.7510     -2.6370      1.7700     78.3900
    265    -10.0320     -5.1770     -2.3570      0.0100     78.3900
    266    -10.8940     -6.7180     -2.0810      0.0100     78.3900
    267    -12.1550     -4.9320     -2.1720      1.7700     78.3900
    268    -12.7890     -4.6070     -3.0230      0.0100     78.3900
    269    -12.9660     -5.7570     -1.2920      1.5900     78.3900
    270    -13.4030     -5.0000     -0.1860      1.7700     78.3900
    271    -14.5090     -5.0980     -0.1480      0.0100     78.3900
    272    -12.8090     -5.5320      1.0450      1.6800     78.3900
    273    -13.1880     -5.2470      2.3240      1.7700     78.3900
    274    -15.1510     -3.4860      4.5210      1.6800     78.3900
    275    -15.1170     -3.2180      5.4790      0.0100     78.3900
    276    -15.7550     -3.0080      3.8810      0.0100     78.3900
    277    -14.1750     -4.4140      2.6820      1.6800     78.3900
    278    -14.2610     -4.2860      4.0000      1.7700     78.3900
    279    -13.4670     -4.9640      4.8880      1.6800     78.3900
    280    -13.5070     -4.7180      5.8610      0.0100     78.3900
    281    -12.4480     -5.8370      4.5400      1.7700     78.3900
    282    -11.7570     -6.3850      5.3980      1.5900     78.3900
    283    -12.3380     -5.9760      3.1330      1.7700     78.3900
    284    -11.4450     -6.7180      2.3760      1.6800     78.3900
    285    -11.7660     -6.4300      1.1400      1.7700     78.3900
    286    -11.2790     -6.8350      0.2500      0.0100     78.3900
    287    -13.0320     -3.5460     -0.4330      1.7700     78.3900
    288    -12.7500     -3.0170      0.5020      0.0100     78.3900
    289    -14.0980     -2.8470     -1.0530      1.5900     78.3900
    290    -13.7310     -2.0120     -1.3830      0.0100     78.3900
    291    -11.8260     -3.6860     -1.3500      1.7700     78.3900
    292    -10.9330     -3.9560     -0.7390      0.0100     78.3900
    293    -11.6180     -2.5650     -2.2300      1.5900     78.3900
    294    -10.4140     -1.5940     -2.0540      2.1000     78.3900
    295    -10.0170     -1.0850     -3.3840      1.5900     78.3900
    296     -9.3650     -2.2520     -1.2450      1.5900     78.3900
    297    -11.0820     -0.4220     -1.2360      1.5900     78.3900
    298    -10.5590     -0.0550      0.0600      1.7700     78.3900
    299     -9.7310      0.6820     -0.0750      0.0100     78.3900
    300    -10.1330     -0.9210      0.6230      0.0100     78.3900
    301    -11.6520      0.5830      0.9240      1.7700     78.3900
    302    -12.3180      1.2480      0.3390      0.0100     78.3900
    303    -12.4610     -0.4620      1.5310      1.5900     78.3900
    304    -12.4770     -0.3070      2.9470      1.7700     78.3900
    305    -13.5470     -0.3850      3.2500      0.0100     78.3900
    306    -11.7000     -1.3680      3.6560      1.6800     78.3900
    307    -11.0910     -2.3740      2.9330      1.7700     78.3900
    308    -11.1900     -2.3280      1.8480      0.0100     78.3900
    309    -10.4000     -3.3480      3.5360      1.7700     78.3900
    310     -9.9080     -4.1450      2.9840      0.0100     78.3900
    311    -11.6190     -1.3800      5.0510      1.7700     78.3900
    312    -12.1900     -0.4990      5.7090      1.5900     78.3900
    313    -10.8870     -2.3340      5.6640      1.6800     78.3900
    314    -10.3180     -3.3150      4.9530      1.7700     78.3900
    315     -9.6530     -4.2700      5.5910      1.6800     78.3900
    316     -9.5390     -4.2130      6.5800      0.0100     78.3900
    317     -9.2120     -5.0280      5.1090      0.0100     78.3900
    318    -11.9720      1.0980      3.2530      1.7700     78.3900
    319    -11.3810      1.1380      4.1920      0.0100     78.3900
    320    -13.0520      2.0130      3.3440      1.5900     78.3900
    321    -12.6930      2.9140      3.4160      0.0100     78.3900
    322    -11.0430      1.3750      2.0810      1.7700     78.3900
    323    -10.0400      0.9330      2.2850      0.0100     78.3900
    324    -10.9120      2.7660      1.7340      1.5900     78.3900
    325    -10.5050      3.2510      2.4730      0.0100     78.3900

     ----------------------------
     INPUT FOR TESSERA DEFINITION
     ----------------------------
     NTSALL  =        60     MTHALL  =         4
     MTHAUT  =         0     AUTFRE  =    2.0000
     NTSFRZ  =        60     KEEPSM  =         0
     AREAKP  =   10.0000     BONDRY  =    1.0000
     AREATL  =    0.0100

     SPHERE     INITS       METHOD
          1        60       FIXPVA
          2        60       FIXPVA
          3        60       FIXPVA
          4        60       FIXPVA
          5        60       FIXPVA
          6        60       FIXPVA
          7        60       FIXPVA
          8        60       FIXPVA
          9        60       FIXPVA
         10        60       FIXPVA
         11        60       FIXPVA
         12        60       FIXPVA
         13        60       FIXPVA
         14        60       FIXPVA
         15        60       FIXPVA
         16        60       FIXPVA
         17        60       FIXPVA
         18        60       FIXPVA
         19        60       FIXPVA
         20        60       FIXPVA
         21        60       FIXPVA
         22        60       FIXPVA
         23        60       FIXPVA
         24        60       FIXPVA
         25        60       FIXPVA
         26        60       FIXPVA
         27        60       FIXPVA
         28        60       FIXPVA
         29        60       FIXPVA
         30        60       FIXPVA
         31        60       FIXPVA
         32        60       FIXPVA
         33        60       FIXPVA
         34        60       FIXPVA
         35        60       FIXPVA
         36        60       FIXPVA
         37        60       FIXPVA
         38        60       FIXPVA
         39        60       FIXPVA
         40        60       FIXPVA
         41        60       FIXPVA
         42        60       FIXPVA
         43        60       FIXPVA
         44        60       FIXPVA
         45        60       FIXPVA
         46        60       FIXPVA
         47        60       FIXPVA
         48        60       FIXPVA
         49        60       FIXPVA
         50        60       FIXPVA
         51        60       FIXPVA
         52        60       FIXPVA
         53        60       FIXPVA
         54        60       FIXPVA
         55        60       FIXPVA
         56        60       FIXPVA
         57        60       FIXPVA
         58        60       FIXPVA
         59        60       FIXPVA
         60        60       FIXPVA
         61        60       FIXPVA
         62        60       FIXPVA
         63        60       FIXPVA
         64        60       FIXPVA
         65        60       FIXPVA
         66        60       FIXPVA
         67        60       FIXPVA
         68        60       FIXPVA
         69        60       FIXPVA
         70        60       FIXPVA
         71        60       FIXPVA
         72        60       FIXPVA
         73        60       FIXPVA
         74        60       FIXPVA
         75        60       FIXPVA
         76        60       FIXPVA
         77        60       FIXPVA
         78        60       FIXPVA
         79        60       FIXPVA
         80        60       FIXPVA
         81        60       FIXPVA
         82        60       FIXPVA
         83        60       FIXPVA
         84        60       FIXPVA
         85        60       FIXPVA
         86        60       FIXPVA
         87        60       FIXPVA
         88        60       FIXPVA
         89        60       FIXPVA
         90        60       FIXPVA
         91        60       FIXPVA
         92        60       FIXPVA
         93        60       FIXPVA
         94        60       FIXPVA
         95        60       FIXPVA
         96        60       FIXPVA
         97        60       FIXPVA
         98        60       FIXPVA
         99        60       FIXPVA
        100        60       FIXPVA
        101        60       FIXPVA
        102        60       FIXPVA
        103        60       FIXPVA
        104        60       FIXPVA
        105        60       FIXPVA
        106        60       FIXPVA
        107        60       FIXPVA
        108        60       FIXPVA
        109        60       FIXPVA
        110        60       FIXPVA
        111        60       FIXPVA
        112        60       FIXPVA
        113        60       FIXPVA
        114        60       FIXPVA
        115        60       FIXPVA
        116        60       FIXPVA
        117        60       FIXPVA
        118        60       FIXPVA
        119        60       FIXPVA
        120        60       FIXPVA
        121        60       FIXPVA
        122        60       FIXPVA
        123        60       FIXPVA
        124        60       FIXPVA
        125        60       FIXPVA
        126        60       FIXPVA
        127        60       FIXPVA
        128        60       FIXPVA
        129        60       FIXPVA
        130        60       FIXPVA
        131        60       FIXPVA
        132        60       FIXPVA
        133        60       FIXPVA
        134        60       FIXPVA
        135        60       FIXPVA
        136        60       FIXPVA
        137        60       FIXPVA
        138        60       FIXPVA
        139        60       FIXPVA
        140        60       FIXPVA
        141        60       FIXPVA
        142        60       FIXPVA
        143        60       FIXPVA
        144        60       FIXPVA
        145        60       FIXPVA
        146        60       FIXPVA
        147        60       FIXPVA
        148        60       FIXPVA
        149        60       FIXPVA
        150        60       FIXPVA
        151        60       FIXPVA
        152        60       FIXPVA
        153        60       FIXPVA
        154        60       FIXPVA
        155        60       FIXPVA
        156        60       FIXPVA
        157        60       FIXPVA
        158        60       FIXPVA
        159        60       FIXPVA
        160        60       FIXPVA
        161        60       FIXPVA
        162        60       FIXPVA
        163        60       FIXPVA
        164        60       FIXPVA
        165        60       FIXPVA
        166        60       FIXPVA
        167        60       FIXPVA
        168        60       FIXPVA
        169        60       FIXPVA
        170        60       FIXPVA
        171        60       FIXPVA
        172        60       FIXPVA
        173        60       FIXPVA
        174        60       FIXPVA
        175        60       FIXPVA
        176        60       FIXPVA
        177        60       FIXPVA
        178        60       FIXPVA
        179        60       FIXPVA
        180        60       FIXPVA
        181        60       FIXPVA
        182        60       FIXPVA
        183        60       FIXPVA
        184        60       FIXPVA
        185        60       FIXPVA
        186        60       FIXPVA
        187        60       FIXPVA
        188        60       FIXPVA
        189        60       FIXPVA
        190        60       FIXPVA
        191        60       FIXPVA
        192        60       FIXPVA
        193        60       FIXPVA
        194        60       FIXPVA
        195        60       FIXPVA
        196        60       FIXPVA
        197        60       FIXPVA
        198        60       FIXPVA
        199        60       FIXPVA
        200        60       FIXPVA
        201        60       FIXPVA
        202        60       FIXPVA
        203        60       FIXPVA
        204        60       FIXPVA
        205        60       FIXPVA
        206        60       FIXPVA
        207        60       FIXPVA
        208        60       FIXPVA
        209        60       FIXPVA
        210        60       FIXPVA
        211        60       FIXPVA
        212        60       FIXPVA
        213        60       FIXPVA
        214        60       FIXPVA
        215        60       FIXPVA
        216        60       FIXPVA
        217        60       FIXPVA
        218        60       FIXPVA
        219        60       FIXPVA
        220        60       FIXPVA
        221        60       FIXPVA
        222        60       FIXPVA
        223        60       FIXPVA
        224        60       FIXPVA
        225        60       FIXPVA
        226        60       FIXPVA
        227        60       FIXPVA
        228        60       FIXPVA
        229        60       FIXPVA
        230        60       FIXPVA
        231        60       FIXPVA
        232        60       FIXPVA
        233        60       FIXPVA
        234        60       FIXPVA
        235        60       FIXPVA
        236        60       FIXPVA
        237        60       FIXPVA
        238        60       FIXPVA
        239        60       FIXPVA
        240        60       FIXPVA
        241        60       FIXPVA
        242        60       FIXPVA
        243        60       FIXPVA
        244        60       FIXPVA
        245        60       FIXPVA
        246        60       FIXPVA
        247        60       FIXPVA
        248        60       FIXPVA
        249        60       FIXPVA
        250        60       FIXPVA
        251        60       FIXPVA
        252        60       FIXPVA
        253        60       FIXPVA
        254        60       FIXPVA
        255        60       FIXPVA
        256        60       FIXPVA
        257        60       FIXPVA
        258        60       FIXPVA
        259        60       FIXPVA
        260        60       FIXPVA
        261        60       FIXPVA
        262        60       FIXPVA
        263        60       FIXPVA
        264        60       FIXPVA
        265        60       FIXPVA
        266        60       FIXPVA
        267        60       FIXPVA
        268        60       FIXPVA
        269        60       FIXPVA
        270        60       FIXPVA
        271        60       FIXPVA
        272        60       FIXPVA
        273        60       FIXPVA
        274        60       FIXPVA
        275        60       FIXPVA
        276        60       FIXPVA
        277        60       FIXPVA
        278        60       FIXPVA
        279        60       FIXPVA
        280        60       FIXPVA
        281        60       FIXPVA
        282        60       FIXPVA
        283        60       FIXPVA
        284        60       FIXPVA
        285        60       FIXPVA
        286        60       FIXPVA
        287        60       FIXPVA
        288        60       FIXPVA
        289        60       FIXPVA
        290        60       FIXPVA
        291        60       FIXPVA
        292        60       FIXPVA
        293        60       FIXPVA
        294        60       FIXPVA
        295        60       FIXPVA
        296        60       FIXPVA
        297        60       FIXPVA
        298        60       FIXPVA
        299        60       FIXPVA
        300        60       FIXPVA
        301        60       FIXPVA
        302        60       FIXPVA
        303        60       FIXPVA
        304        60       FIXPVA
        305        60       FIXPVA
        306        60       FIXPVA
        307        60       FIXPVA
        308        60       FIXPVA
        309        60       FIXPVA
        310        60       FIXPVA
        311        60       FIXPVA
        312        60       FIXPVA
        313        60       FIXPVA
        314        60       FIXPVA
        315        60       FIXPVA
        316        60       FIXPVA
        317        60       FIXPVA
        318        60       FIXPVA
        319        60       FIXPVA
        320        60       FIXPVA
        321        60       FIXPVA
        322        60       FIXPVA
        323        60       FIXPVA
        324        60       FIXPVA
        325        60       FIXPVA

     ------------------------------
      FIXPVA TESSELLATION FOR PCM
         PEIFENG SU AND HUI LI
     UNIVERSITY OF NEBRASKA-LINCOLN
     ------------------------------


 PCM DIMENSIONS: MXSP=   325, MXTS=     13000, MEMORY=        133578

     INPUT FOR CAVITY DEFINITION 
     ---------------------------
   ATOM               COORDINATES                RADIUS       EPS
      1    -10.5980     -4.8610     18.4160      0.0100     78.3900
      2    -10.6320     -4.0770     17.8360      1.5900     78.3900
      3    -10.9420     -4.5480     16.5220      1.7700     78.3900
      4    -11.9240     -5.0720     16.5510      0.0100     78.3900
      5    -10.1770     -5.2990     16.2120      0.0100     78.3900
      6    -11.0020     -3.4010     15.5120      1.7700     78.3900
      7    -10.8390     -2.4200     16.0130      0.0100     78.3900
      8     -9.9410     -3.5540     14.5330      1.5900     78.3900
      9    -10.3180     -2.8420     13.3770      1.7700     78.3900
     10    -10.1120     -1.7650     13.5780      0.0100     78.3900
     11     -9.5950     -3.2860     12.1700      1.6800     78.3900
     12     -9.7410     -2.8230     10.8790      1.7700     78.3900
     13    -11.2460     -0.7130      8.5570      1.6800     78.3900
     14    -11.9130     -0.2230      9.1120      0.0100     78.3900
     15    -11.3840     -0.7240      7.5640      0.0100     78.3900
     16    -10.5910     -1.8570     10.4600      1.6800     78.3900
     17    -10.4840     -1.6160      9.1510      1.7700     78.3900
     18     -9.6190     -2.2940      8.3380      1.6800     78.3900
     19     -9.6420     -2.0760      7.3570      0.0100     78.3900
     20     -8.7560     -3.3070      8.7350      1.7700     78.3900
     21     -8.0140     -3.8810      7.9330      1.5900     78.3900
     22     -8.8440     -3.5550     10.1260      1.7700     78.3900
     23     -8.1460     -4.4570     10.9180      1.6800     78.3900
     24     -8.6320     -4.2670     12.1210      1.7700     78.3900
     25     -8.3280     -4.8090     13.0200      0.0100     78.3900
     26    -11.7910     -3.0730     13.2340      1.7700     78.3900
     27    -11.9990     -3.9960     12.6460      0.0100     78.3900
     28    -12.3670     -1.9440     12.6220      1.5900     78.3900
     29    -11.9380     -1.8010     11.7580      0.0100     78.3900
     30    -12.2830     -3.2930     14.6780      1.7700     78.3900
     31    -12.7500     -4.3060     14.7040      0.0100     78.3900
     32    -13.1600     -2.2750     15.2040      1.5900     78.3900
     33    -14.6430     -2.5560     15.6360      2.1000     78.3900
     34    -14.9600     -1.6650     16.7720      1.5900     78.3900
     35    -14.8130     -4.0040     15.8880      1.5900     78.3900
     36    -15.5260     -2.1120     14.3970      1.5900     78.3900
     37    -15.4540     -2.7910     13.1300      1.7700     78.3900
     38    -16.1290     -3.6740     13.1480      0.0100     78.3900
     39    -14.4460     -3.1900     12.9420      0.0100     78.3900
     40    -15.8940     -1.8740     11.9750      1.7700     78.3900
     41    -16.4210     -0.9690     12.3420      0.0100     78.3900
     42    -14.7370     -1.4330     11.2000      1.5900     78.3900
     43    -14.8640     -1.8020      9.8370      1.7700     78.3900
     44    -14.6570     -0.8650      9.2680      0.0100     78.3900
     45    -13.8990     -2.8550      9.3930      1.6800     78.3900
     46    -13.3690     -3.7310     10.3030      1.7700     78.3900
     47    -13.6920     -3.5960     11.3260      0.0100     78.3900
     48    -12.4650     -4.6550      9.9540      1.7700     78.3900
     49    -11.9970     -5.3180     10.6790      0.0100     78.3900
     50    -13.5250     -2.9640      8.0540      1.7700     78.3900
     51    -13.9690     -2.1520      7.2360      1.5900     78.3900
     52    -12.6890     -3.9500      7.6650      1.6800     78.3900
     53    -12.1160     -4.7410      8.5790      1.7700     78.3900
     54    -11.1920     -5.6060      8.1790      1.6800     78.3900
     55    -11.0980     -5.7680      7.1940      0.0100     78.3900
     56    -10.7040     -6.1930      8.8220      0.0100     78.3900
     57    -16.3010     -2.1990      9.6070      1.7700     78.3900
     58    -16.3730     -3.0860      8.9480      0.0100     78.3900
     59    -17.0530     -1.1280      9.0750      1.5900     78.3900
     60    -17.9810     -1.3320      9.2620      0.0100     78.3900
     61    -16.7930     -2.6090     10.9810      1.7700     78.3900
     62    -16.5660     -3.6930     11.1120      0.0100     78.3900
     63    -18.1790     -2.2860     11.2150      1.5900     78.3900
     64    -19.2440     -3.4070     11.4260      2.1000     78.3900
     65    -20.5090     -2.7490     11.8130      1.5900     78.3900
     66    -18.6910     -4.4130     12.3500      1.5900     78.3900
     67    -19.3700     -4.0230      9.9760      1.5900     78.3900
     68    -20.6600     -4.3580      9.4050      1.7700     78.3900
     69    -20.9600     -3.5640      8.6820      0.0100     78.3900
     70    -21.4650     -4.3940     10.1800      0.0100     78.3900
     71    -20.7050     -5.7310      8.6890      1.7700     78.3900
     72    -21.6830     -6.2210      8.8910      0.0100     78.3900
     73    -20.5680     -5.5790      7.2630      1.5900     78.3900
     74    -19.1950     -5.5990      6.8960      1.7700     78.3900
     75    -19.1130     -6.2640      6.0070      0.0100     78.3900
     76    -18.7130     -4.2260      6.5530      1.6800     78.3900
     77    -17.4170     -3.8980      6.8400      1.7700     78.3900
     78    -16.7760     -4.6480      7.3070      0.0100     78.3900
     79    -16.9530     -2.6730      6.5960      1.7700     78.3900
     80    -15.9810     -2.3560      6.9060      0.0100     78.3900
     81    -19.4890     -3.3050      5.8230      1.7700     78.3900
     82    -20.6040     -3.6330      5.3960      1.5900     78.3900
     83    -19.0160     -2.0600      5.5760      1.6800     78.3900
     84    -17.7830     -1.7270      5.9670      1.7700     78.3900
     85    -17.3090     -0.5050      5.7410      1.6800     78.3900
     86    -16.4290     -0.2170      6.1190      0.0100     78.3900
     87    -17.8830      0.1770      5.2920      0.0100     78.3900
     88    -18.4390     -6.2340      8.0740      1.7700     78.3900
     89    -17.8540     -5.4840      8.6470      0.0100     78.3900
     90    -17.5760     -7.2800      7.6580      1.5900     78.3900
     91    -17.5190     -7.9060      8.4000      0.0100     78.3900
     92    -19.5660     -6.6760      9.0240      1.7700     78.3900
     93    -19.2920     -6.4410     10.0760      0.0100     78.3900
     94    -19.9920     -8.0380      8.8790      1.5900     78.3900
     95    -19.2330     -9.1760      9.6460      2.1000     78.3900
     96    -18.6850    -10.0350      8.5810      1.5900     78.3900
     97    -20.1780     -9.7110     10.6430      1.5900     78.3900
     98    -18.0280     -8.4280     10.3500      1.5900     78.3900
     99    -16.8080     -9.1030     10.7060      1.7700     78.3900
    100    -15.9430     -8.4670     10.4080      0.0100     78.3900
    101    -16.7100    -10.0420     10.1290      0.0100     78.3900
    102    -16.6550     -9.4220     12.2160      1.7700     78.3900
    103    -15.6450     -9.8320     12.4240      0.0100     78.3900
    104    -16.7800     -8.2050     13.0000      1.5900     78.3900
    105    -17.6080     -8.4250     14.1350      1.7700     78.3900
    106    -16.9850     -8.1260     15.0130      0.0100     78.3900
    107    -18.8530     -7.6080     14.0860      1.6800     78.3900
    108    -19.3920     -7.2330     12.8800      1.7700     78.3900
    109    -18.7130     -7.2910     12.0440      0.0100     78.3900
    110    -19.4960     -7.3000     15.2550      1.7700     78.3900
    111    -19.0570     -7.6410     16.3580      1.5900     78.3900
    112    -20.6590     -6.5860     15.1160      1.6800     78.3900
    113    -21.0980     -6.2830     15.9740      0.0100     78.3900
    114    -21.2650     -6.2030     13.9360      1.7700     78.3900
    115    -22.3060     -5.5470     13.9570      1.5900     78.3900
    116    -20.5700     -6.6110     12.7590      1.7700     78.3900
    117    -20.9390     -6.2800     11.7930      0.0100     78.3900
    118    -17.9050     -9.9130     14.2350      1.7700     78.3900
    119    -18.9560    -10.1150     14.5390      0.0100     78.3900
    120    -17.0190    -10.5410     15.1390      1.5900     78.3900
    121    -16.9830    -11.4710     14.8640      0.0100     78.3900
    122    -17.6810    -10.3910     12.8120      1.7700     78.3900
    123    -18.6120    -10.2020     12.2440      0.0100     78.3900
    124    -17.2110    -11.7570     12.7320      1.5900     78.3900
    125    -18.1820    -12.8800     12.2450      2.1000     78.3900
    126    -19.5700    -12.3590     12.3490      1.5900     78.3900
    127    -17.9020    -14.0840     13.0460      1.5900     78.3900
    128    -17.7880    -13.1510     10.7530      1.5900     78.3900
    129    -16.5060    -13.6620     10.3350      1.7700     78.3900
    130    -16.6790    -14.4790      9.6020      0.0100     78.3900
    131    -15.9290    -14.0970     11.1830      0.0100     78.3900
    132    -15.6170    -12.6180      9.6540      1.7700     78.3900
    133    -16.1560    -12.0730      8.8480      0.0100     78.3900
    134    -15.1870    -11.6730     10.6390      1.5900     78.3900
    135    -13.8810    -11.2260     10.3940      1.7700     78.3900
    136    -13.9590    -10.1460     10.1400      0.0100     78.3900
    137    -13.0680    -11.3970     11.5960      1.6800     78.3900
    138    -11.7830    -10.9780     11.7980      1.7700     78.3900
    139     -8.8940     -9.4410     10.6730      1.6800     78.3900
    140     -7.9870     -9.2180     11.0210      0.0100     78.3900
    141     -9.1470     -9.1640      9.7460      0.0100     78.3900
    142    -11.0150    -10.3120     10.9140      1.6800     78.3900
    143     -9.7970    -10.0690     11.3990      1.7700     78.3900
    144     -9.3880    -10.4500     12.6490      1.6800     78.3900
    145     -8.4620    -10.2040     12.9380      0.0100     78.3900
    146    -10.1680    -11.1160     13.5830      1.7700     78.3900
    147     -9.7320    -11.4200     14.6980      1.5900     78.3900
    148    -11.4650    -11.3880     13.0800      1.7700     78.3900
    149    -12.5350    -12.0400     13.6780      1.6800     78.3900
    150    -13.4720    -12.0080     12.7630      1.7700     78.3900
    151    -14.4850    -12.4100     12.8670      0.0100     78.3900
    152    -13.3470    -12.0020      9.2160      1.7700     78.3900
    153    -12.3070    -12.3590      9.3840      0.0100     78.3900
    154    -13.3860    -11.2220      8.0440      1.5900     78.3900
    155    -13.2320    -11.8370      7.3150      0.0100     78.3900
    156    -14.3060    -13.1930      9.1300      1.7700     78.3900
    157    -13.9940    -13.9820      9.8470      0.0100     78.3900
    158    -14.5250    -13.7300      7.8230      1.5900     78.3900
    159    -13.3880    -14.4420      7.0190      2.1000     78.3900
    160    -13.5530    -15.9070      7.0770      1.5900     78.3900
    161    -12.0670    -13.9140      7.4160      1.5900     78.3900
    162    -13.6410    -13.9830      5.5390      1.5900     78.3900
    163    -14.9820    -13.7140      5.0830      1.7700     78.3900
    164    -14.8440    -13.0510      4.2330      0.0100     78.3900
    165    -15.6080    -13.1410      5.8020      0.0100     78.3900
    166    -15.7030    -14.9840      4.6090      1.7700     78.3900
    167    -14.9470    -15.7310      4.2850      0.0100     78.3900
    168    -16.4970    -15.5570      5.6760      1.5900     78.3900
    169    -17.8730    -15.3480      5.4080      1.7700     78.3900
    170    -18.2830    -16.3600      5.1990      0.0100     78.3900
    171    -18.5500    -14.7520      6.5530      1.6800     78.3900
    172    -19.4970    -15.3540      7.3330      1.7700     78.3900
    173    -21.4240    -18.1110      8.1520      1.6800     78.3900
    174    -22.1170    -18.3530      8.8300      0.0100     78.3900
    175    -21.2060    -18.7440      7.4130      0.0100     78.3900
    176    -19.9680    -16.6070      7.1830      1.6800     78.3900
    177    -20.8480    -16.9250      8.1330      1.7700     78.3900
    178    -21.2410    -16.0610      9.1180      1.6800     78.3900
    179    -21.9070    -16.3760      9.7960      0.0100     78.3900
    180    -20.7930    -14.7600      9.2730      1.7700     78.3900
    181    -21.2370    -14.0680     10.1910      1.5900     78.3900
    182    -19.8500    -14.4100      8.2730      1.7700     78.3900
    183    -19.1580    -13.2320      8.0690      1.6800     78.3900
    184    -18.3780    -13.4820      7.0510      1.7700     78.3900
    185    -17.6540    -12.7810      6.6310      0.0100     78.3900
    186    -18.0110    -14.4820      4.1780      1.7700     78.3900
    187    -18.0700    -13.3970      4.4340      0.0100     78.3900
    188    -19.1220    -14.8620      3.3910      1.5900     78.3900
    189    -18.8700    -15.6910      2.9490      0.0100     78.3900
    190    -16.7020    -14.7560      3.4540      1.7700     78.3900
    191    -16.4600    -13.8200      2.9340      0.0100     78.3900
    192    -16.7440    -15.8680      2.5370      1.5900     78.3900
    193    -15.6760    -15.9920      1.3820      2.1000     78.3900
    194    -16.3080    -15.5320      0.1340      1.5900     78.3900
    195    -15.2000    -17.3930      1.4110      1.5900     78.3900
    196    -14.4980    -15.0220      1.7950      1.5900     78.3900
    197    -14.1410    -13.8560      1.0240      1.7700     78.3900
    198    -13.9190    -14.1440     -0.0280      0.0100     78.3900
    199    -13.1970    -13.4420      1.4400      0.0100     78.3900
    200    -15.1990    -12.7280      1.0280      1.7700     78.3900
    201    -16.2240    -13.1090      0.8410      0.0100     78.3900
    202    -15.1830    -12.0450      2.3010      1.5900     78.3900
    203    -14.8200    -10.7020      2.1820      1.7700     78.3900
    204    -15.5230    -10.1470      2.8450      0.0100     78.3900
    205    -13.4420    -10.4840      2.6500      1.6800     78.3900
    206    -13.0650     -9.9500      3.8630      1.7700     78.3900
    207    -13.8550     -8.5450      6.9410      1.6800     78.3900
    208    -13.3770     -8.4470      7.8090      0.0100     78.3900
    209    -14.8410     -8.6680      6.9570      0.0100     78.3900
    210    -13.8900     -9.5020      4.8330      1.6800     78.3900
    211    -13.2190     -9.0670      5.9030      1.7700     78.3900
    212    -11.8490     -9.1180      6.0060      1.6800     78.3900
    213    -11.4190     -8.7180      6.8200      0.0100     78.3900
    214    -10.9780     -9.5090      4.9950      1.7700     78.3900
    215     -9.7470     -9.4780      5.1300      1.5900     78.3900
    216    -11.6820     -9.9790      3.8590      1.7700     78.3900
    217    -11.2000    -10.5140      2.6740      1.6800     78.3900
    218    -12.2750    -10.8050      1.9910      1.7700     78.3900
    219    -12.2590    -11.2680      1.0020      0.0100     78.3900
    220    -15.0540    -10.3150      0.7490      1.7700     78.3900
    221    -14.3130     -9.5640      0.3980      0.0100     78.3900
    222    -16.3620     -9.7950      0.5750      1.5900     78.3900
    223    -16.6120     -9.9800     -0.3390      0.0100     78.3900
    224    -14.8640    -11.6520      0.0160      1.7700     78.3900
    225    -13.7800    -11.7790     -0.2040      0.0100     78.3900
    226    -15.6960    -11.7970     -1.1450      1.5900     78.3900
    227    -15.1880    -12.4950     -2.4550      2.1000     78.3900
    228    -16.1230    -12.1460     -3.5420      1.5900     78.3900
    229    -14.9690    -13.9350     -2.2210      1.5900     78.3900
    230    -13.7820    -11.8280     -2.7040      1.5900     78.3900
    231    -13.5020    -10.4240     -2.5260      1.7700     78.3900
    232    -12.4880    -10.3240     -2.0770      0.0100     78.3900
    233    -14.2120     -9.9090     -1.8420      0.0100     78.3900
    234    -13.5300     -9.6900     -3.8550      1.7700     78.3900
    235    -12.8790    -10.2110     -4.5890      0.0100     78.3900
    236    -14.8900     -9.6120     -4.3680      1.5900     78.3900
    237    -15.3990     -8.2990     -4.2180      1.7700     78.3900
    238    -15.4780     -7.8920     -5.2500      0.0100     78.3900
    239    -16.7200     -8.2700     -3.5800      1.6800     78.3900
    240    -18.6960     -7.6260     -2.8600      1.7700     78.3900
    241    -18.4910     -8.9050     -2.3440      1.6800     78.3900
    242    -17.3080     -9.2360     -2.8040      1.7700     78.3900
    243    -16.8050    -10.1810     -2.6150      0.0100     78.3900
    244    -19.6450     -5.5060     -3.3680      1.6800     78.3900
    245    -18.5280     -5.2670     -4.0660      1.7700     78.3900
    246    -18.4700     -4.2870     -4.5520      0.0100     78.3900
    247    -17.4720     -6.0560     -4.2700      1.6800     78.3900
    248    -17.6110     -7.2250     -3.6180      1.7700     78.3900
    249    -19.7670     -6.7090     -2.7460      1.7700     78.3900
    250    -20.8970     -6.9720     -2.0650      1.6800     78.3900
    251    -21.0450     -7.8500     -1.6020      0.0100     78.3900
    252    -21.6360     -6.2930     -2.0510      0.0100     78.3900
    253    -14.4020     -7.4970     -3.4350      1.7700     78.3900
    254    -14.6220     -7.4990     -2.3430      0.0100     78.3900
    255    -14.3540     -6.1820     -3.9330      1.5900     78.3900
    256    -13.8240     -6.2180     -4.7430      0.0100     78.3900
    257    -13.0930     -8.2320     -3.7080      1.7700     78.3900
    258    -12.4700     -8.1620     -2.7830      0.0100     78.3900
    259    -12.3960     -7.7680     -4.8880      1.5900     78.3900
    260    -10.8920     -7.3340     -4.7750      2.1000     78.3900
    261    -10.3740     -7.1500     -6.1460      1.5900     78.3900
    262    -10.1600     -8.3110     -3.9380      1.5900     78.3900
    263    -10.9450     -5.9230     -4.0690      1.5900     78.3900
    264    -10.9420     -5.7510     -2.6370      1.7700     78.3900
    265    -10.0320     -5.1770     -2.3570      0.0100     78.3900
    266    -10.8940     -6.7180     -2.0810      0.0100     78.3900
    267    -12.1550     -4.9320     -2.1720      1.7700     78.3900
    268    -12.7890     -4.6070     -3.0230      0.0100     78.3900
    269    -12.9660     -5.7570     -1.2920      1.5900     78.3900
    270    -13.4030     -5.0000     -0.1860      1.7700     78.3900
    271    -14.5090     -5.0980     -0.1480      0.0100     78.3900
    272    -12.8090     -5.5320      1.0450      1.6800     78.3900
    273    -13.1880     -5.2470      2.3240      1.7700     78.3900
    274    -15.1510     -3.4860      4.5210      1.6800     78.3900
    275    -15.1170     -3.2180      5.4790      0.0100     78.3900
    276    -15.7550     -3.0080      3.8810      0.0100     78.3900
    277    -14.1750     -4.4140      2.6820      1.6800     78.3900
    278    -14.2610     -4.2860      4.0000      1.7700     78.3900
    279    -13.4670     -4.9640      4.8880      1.6800     78.3900
    280    -13.5070     -4.7180      5.8610      0.0100     78.3900
    281    -12.4480     -5.8370      4.5400      1.7700     78.3900
    282    -11.7570     -6.3850      5.3980      1.5900     78.3900
    283    -12.3380     -5.9760      3.1330      1.7700     78.3900
    284    -11.4450     -6.7180      2.3760      1.6800     78.3900
    285    -11.7660     -6.4300      1.1400      1.7700     78.3900
    286    -11.2790     -6.8350      0.2500      0.0100     78.3900
    287    -13.0320     -3.5460     -0.4330      1.7700     78.3900
    288    -12.7500     -3.0170      0.5020      0.0100     78.3900
    289    -14.0980     -2.8470     -1.0530      1.5900     78.3900
    290    -13.7310     -2.0120     -1.3830      0.0100     78.3900
    291    -11.8260     -3.6860     -1.3500      1.7700     78.3900
    292    -10.9330     -3.9560     -0.7390      0.0100     78.3900
    293    -11.6180     -2.5650     -2.2300      1.5900     78.3900
    294    -10.4140     -1.5940     -2.0540      2.1000     78.3900
    295    -10.0170     -1.0850     -3.3840      1.5900     78.3900
    296     -9.3650     -2.2520     -1.2450      1.5900     78.3900
    297    -11.0820     -0.4220     -1.2360      1.5900     78.3900
    298    -10.5590     -0.0550      0.0600      1.7700     78.3900
    299     -9.7310      0.6820     -0.0750      0.0100     78.3900
    300    -10.1330     -0.9210      0.6230      0.0100     78.3900
    301    -11.6520      0.5830      0.9240      1.7700     78.3900
    302    -12.3180      1.2480      0.3390      0.0100     78.3900
    303    -12.4610     -0.4620      1.5310      1.5900     78.3900
    304    -12.4770     -0.3070      2.9470      1.7700     78.3900
    305    -13.5470     -0.3850      3.2500      0.0100     78.3900
    306    -11.7000     -1.3680      3.6560      1.6800     78.3900
    307    -11.0910     -2.3740      2.9330      1.7700     78.3900
    308    -11.1900     -2.3280      1.8480      0.0100     78.3900
    309    -10.4000     -3.3480      3.5360      1.7700     78.3900
    310     -9.9080     -4.1450      2.9840      0.0100     78.3900
    311    -11.6190     -1.3800      5.0510      1.7700     78.3900
    312    -12.1900     -0.4990      5.7090      1.5900     78.3900
    313    -10.8870     -2.3340      5.6640      1.6800     78.3900
    314    -10.3180     -3.3150      4.9530      1.7700     78.3900
    315     -9.6530     -4.2700      5.5910      1.6800     78.3900
    316     -9.5390     -4.2130      6.5800      0.0100     78.3900
    317     -9.2120     -5.0280      5.1090      0.0100     78.3900
    318    -11.9720      1.0980      3.2530      1.7700     78.3900
    319    -11.3810      1.1380      4.1920      0.0100     78.3900
    320    -13.0520      2.0130      3.3440      1.5900     78.3900
    321    -12.6930      2.9140      3.4160      0.0100     78.3900
    322    -11.0430      1.3750      2.0810      1.7700     78.3900
    323    -10.0400      0.9330      2.2850      0.0100     78.3900
    324    -10.9120      2.7660      1.7340      1.5900     78.3900
    325    -10.5050      3.2510      2.4730      0.0100     78.3900

 CREATION OF A NEW CAVITY WITH THE ORIGINAL SPHERE
 SIZES FOR THE COMPUTATION OF THE CAVITATION ENERGY.

     INPUT FOR CAVITY DEFINITION 
     ---------------------------
   ATOM               COORDINATES                RADIUS       EPS
      1    -10.5980     -4.8610     18.4160      0.0100     78.3900
      2    -10.6320     -4.0770     17.8360      1.5900     78.3900
      3    -10.9420     -4.5480     16.5220      1.7700     78.3900
      4    -11.9240     -5.0720     16.5510      0.0100     78.3900
      5    -10.1770     -5.2990     16.2120      0.0100     78.3900
      6    -11.0020     -3.4010     15.5120      1.7700     78.3900
      7    -10.8390     -2.4200     16.0130      0.0100     78.3900
      8     -9.9410     -3.5540     14.5330      1.5900     78.3900
      9    -10.3180     -2.8420     13.3770      1.7700     78.3900
     10    -10.1120     -1.7650     13.5780      0.0100     78.3900
     11     -9.5950     -3.2860     12.1700      1.6800     78.3900
     12     -9.7410     -2.8230     10.8790      1.7700     78.3900
     13    -11.2460     -0.7130      8.5570      1.6800     78.3900
     14    -11.9130     -0.2230      9.1120      0.0100     78.3900
     15    -11.3840     -0.7240      7.5640      0.0100     78.3900
     16    -10.5910     -1.8570     10.4600      1.6800     78.3900
     17    -10.4840     -1.6160      9.1510      1.7700     78.3900
     18     -9.6190     -2.2940      8.3380      1.6800     78.3900
     19     -9.6420     -2.0760      7.3570      0.0100     78.3900
     20     -8.7560     -3.3070      8.7350      1.7700     78.3900
     21     -8.0140     -3.8810      7.9330      1.5900     78.3900
     22     -8.8440     -3.5550     10.1260      1.7700     78.3900
     23     -8.1460     -4.4570     10.9180      1.6800     78.3900
     24     -8.6320     -4.2670     12.1210      1.7700     78.3900
     25     -8.3280     -4.8090     13.0200      0.0100     78.3900
     26    -11.7910     -3.0730     13.2340      1.7700     78.3900
     27    -11.9990     -3.9960     12.6460      0.0100     78.3900
     28    -12.3670     -1.9440     12.6220      1.5900     78.3900
     29    -11.9380     -1.8010     11.7580      0.0100     78.3900
     30    -12.2830     -3.2930     14.6780      1.7700     78.3900
     31    -12.7500     -4.3060     14.7040      0.0100     78.3900
     32    -13.1600     -2.2750     15.2040      1.5900     78.3900
     33    -14.6430     -2.5560     15.6360      2.1000     78.3900
     34    -14.9600     -1.6650     16.7720      1.5900     78.3900
     35    -14.8130     -4.0040     15.8880      1.5900     78.3900
     36    -15.5260     -2.1120     14.3970      1.5900     78.3900
[...]
 ASC ITERATION=   1 CONVERGED TO  0.452825E+02
 ASC ITERATION=   2 CONVERGED TO  0.201716E+04
 ASC ITERATION=   3 CONVERGED TO  0.399994E+01
 ASC ITERATION=   4 CONVERGED TO  0.183801E+01
 ASC ITERATION=   5 CONVERGED TO  0.150845E+01
 ASC ITERATION=   6 CONVERGED TO  0.812507E+00
 ASC ITERATION=   7 CONVERGED TO  0.413121E+00
 ASC ITERATION=   8 CONVERGED TO  0.249175E+00
 ASC ITERATION=   9 CONVERGED TO  0.179993E+00
 ASC ITERATION=  10 CONVERGED TO  0.119699E+00
 ASC ITERATION=  11 CONVERGED TO  0.596697E-01
 ASC ITERATION=  12 CONVERGED TO  0.352320E-01
 ASC ITERATION=  13 CONVERGED TO  0.180187E-01
 ASC ITERATION=  14 CONVERGED TO  0.116024E-01
 ASC ITERATION=  15 CONVERGED TO  0.610020E-02
 ASC ITERATION=  16 CONVERGED TO  0.248378E-02
 ASC ITERATION=  17 CONVERGED TO  0.159707E-02
 ASC ITERATION=  18 CONVERGED TO  0.118800E-02
 ASC ITERATION=  19 CONVERGED TO  0.617481E-03
 ASC ITERATION=  20 CONVERGED TO  0.282242E-03
 ASC ITERATION=  21 CONVERGED TO  0.147931E-03
 ASC ITERATION=  22 CONVERGED TO  0.756450E-04
 ASC ITERATION=  23 CONVERGED TO  0.491897E-04
 ASC ITERATION=  24 CONVERGED TO  0.285499E-04
 ASC ITERATION=  25 CONVERGED TO  0.198306E-04
 ASC ITERATION=  26 CONVERGED TO  0.102599E-04
 ASC ITERATION=  27 CONVERGED TO  0.511934E-05
 ASC ITERATION=  28 CONVERGED TO  0.305533E-05
 ASC ITERATION=  29 CONVERGED TO  0.175048E-05
 ASC ITERATION=  30 CONVERGED TO  0.106279E-05
 ASC ITERATION=  31 CONVERGED TO  0.440728E-06
 ASC ITERATION=  32 CONVERGED TO  0.257229E-06
 ASC ITERATION=  33 CONVERGED TO  0.142028E-06
 ASC ITERATION=  34 CONVERGED TO  0.911652E-07
 ASC ITERATION=  35 CONVERGED TO  0.453171E-07
 ASC ITERATION=  36 CONVERGED TO  0.237552E-07
 ASC ITERATION=  37 CONVERGED TO  0.128386E-07
 ASC ITERATION=  38 CONVERGED TO  0.638562E-08
 ASC ITERATION=  39 CONVERGED TO  0.337260E-08
 ASC ITERATION=  40 CONVERGED TO  0.200239E-08
 ASC ITERATION=  41 CONVERGED TO  0.788154E-09
 ASC ITERATION=  42 CONVERGED TO  0.406054E-09
 ASC ITERATION=  43 CONVERGED TO  0.233299E-09
 ASC ITERATION=  44 CONVERGED TO  0.127688E-09
 ASC ITERATION=  45 CONVERGED TO  0.189483E-09
 ASC ITERATION=  46 CONVERGED TO  0.487518E-09
 ASC ITERATION=  47 CONVERGED TO  0.216128E-09
 ASC ITERATION=  48 CONVERGED TO  0.152226E-09
 ASC ITERATION=  49 CONVERGED TO  0.381133E-09
 ASC ITERATION=  50 CONVERGED TO  0.506351E-09
 ASC ITERATION=  51 CONVERGED TO  0.289154E-09
 ASC ITERATION=  52 CONVERGED TO  0.578144E-10

 THE ASC EQUATIONS FOR PHASE=1 CONVERGED IN  52 ITERATIONS.

 PCM ASC=      8.8263752086 normalised to=      8.8851894374
 Nuclear factor=   1.0028274929, electronic factor=   1.0028481866

 CPU     0: STEP CPU TIME=     0.36 TOTAL CPU TIME=        672.8 (     11.2 MIN)
 TOTAL WALL CLOCK TIME=       1399.1 SECONDS, CPU UTILIZATION IS    48.09%


 ------------------------------------------------------------------------------
 FMO iter  1.1,      0 fragment(s) converged, maxD 0.553402944 maxE************
 ------------------------------------------------------------------------------

 RHF      monomer      1 corr= NONE       , L1=   403, L0=   378 ID=      1


 AO spaces for     1     0     0 n-mer: L1=   403, L0=   378

 DIRECT SCF CALCULATION, SCHWRZ=T   FDIFF=T,  DIRTHR=  0.00E+00 NITDIR=10

                                                                                   NONZERO     BLOCKS
 ITER EX DEM     TOTAL ENERGY        E CHANGE  DENSITY CHANGE     ORB. GRAD      INTEGRALS    SKIPPED
   1  0  0    -1542.5221286930 -1542.5221286930   0.062775146   0.000000000      969026163   22257367
          ---------------START SECOND ORDER SCF---------------
   2  1  0    -1542.5413706400    -0.0192419470   0.036740129   0.006759426      933782134   23238204
   3  2  0    -1542.5431903222    -0.0018196822   0.011461777   0.003667401      899099187   23737410
   4  3  0    -1542.5434771039    -0.0002867817   0.003600175   0.000463575      862094355   24155499
   5  4  0    -1542.5432888508     0.0001882531   0.001178910   0.000417923      822079666   24537345
   6  5  0    -1542.5432236962     0.0000651546   0.000222771   0.000141938      787501972   24889784
   7  6  0    -1542.5432508352    -0.0000271390   0.000152056   0.000065989      745534457   25260612
   8  7  0    -1542.5432564589    -0.0000056237   0.000060428   0.000033682      706874931   25603011
   9  8  0    -1542.5432542355     0.0000022234   0.000018277   0.000013255      658154084   26066470
  10  9  0    -1542.5432531117     0.0000011239   0.000007968   0.000001852      626254366   26305272
  11 10  0    -1542.5432532546    -0.0000001430   0.000003928   0.000000902      578512280   26696551
  12 11  0    -1542.5432534257    -0.0000001710   0.000001026   0.000000323      527245260   27144895
  13 12  0    -1542.5432534505    -0.0000000248   0.000000233   0.000000142      486188705   27463247
  14 13  0    -1542.5432534521    -0.0000000016   0.000000174   0.000000069      432233358   27905876
  15 14  0    -1542.5432534487     0.0000000034   0.000000046   0.000000022      402171173   28160018

          -----------------
          DENSITY CONVERGED
          -----------------
     TIME TO FORM FOCK OPERATORS=      33.2 SECONDS (       2.2 SEC/ITER)
     FOCK TIME ON FIRST ITERATION=       3.5, LAST ITERATION=       1.2
     TIME TO SOLVE SCF EQUATIONS=       0.7 SECONDS (       0.0 SEC/ITER)

 FINAL RHF ENERGY IS    -1542.5432534487 AFTER  15 ITERATIONS
 ...... END OF RHF CALCULATION ......
 CPU     0: STEP CPU TIME=    63.90 TOTAL CPU TIME=        736.7 (     12.3 MIN)
 TOTAL WALL CLOCK TIME=       1533.2 SECONDS, CPU UTILIZATION IS    48.05%
 DONE PCM POT.
 CPU     0: STEP CPU TIME=     0.45 TOTAL CPU TIME=        737.1 (     12.3 MIN)
 TOTAL WALL CLOCK TIME=       1534.5 SECONDS, CPU UTILIZATION IS    48.04%

 Iter=  2 iFrag=      1 EFMO= -1597.597018069, DD= 0.070897931, DE=-0.442394852


 RHF      monomer      6 corr= NONE       , L1=   386, L0=   362 ID=      2


 AO spaces for     6     0     0 n-mer: L1=   386, L0=   362

 DIRECT SCF CALCULATION, SCHWRZ=T   FDIFF=T,  DIRTHR=  0.00E+00 NITDIR=10

                                                                                   NONZERO     BLOCKS
 ITER EX DEM     TOTAL ENERGY        E CHANGE  DENSITY CHANGE     ORB. GRAD      INTEGRALS    SKIPPED
   1  0  0    -1452.6267817438 -1452.6267817438   0.050104758   0.000000000      868582691   17930946
          ---------------START SECOND ORDER SCF---------------
   2  1  0    -1452.6523965491    -0.0256148053   0.033838274   0.006082116      839837333   18661721
   3  2  0    -1452.6552225614    -0.0028260123   0.011279857   0.005012380      809865614   19069200
   4  3  0    -1452.6549936832     0.0002288783   0.003826622   0.001280186      781034239   19397690
   5  4  0    -1452.6546087684     0.0003849148   0.001419620   0.000669518      752623397   19670240
   6  5  0    -1452.6545281557     0.0000806126   0.000612627   0.000222334      724531179   19932652
   7  6  0    -1452.6545832081    -0.0000550524   0.000367946   0.000084911      691601450   20213330
   8  7  0    -1452.6546000784    -0.0000168703   0.000070725   0.000026865      667511280   20423559
   9  8  0    -1452.6545938138     0.0000062646   0.000030264   0.000013195      618376913   20846994
  10  9  0    -1452.6545907699     0.0000030439   0.000008929   0.000004809      587177484   21098204
  11 10  0    -1452.6545905704     0.0000001995   0.000004653   0.000001612      540623048   21507827
  12 11  0    -1452.6545909490    -0.0000003786   0.000001516   0.000000508      507113572   21777335
  13 12  0    -1452.6545909959    -0.0000000470   0.000000608   0.000000156      467460473   22097303
  14 13  0    -1452.6545909948     0.0000000012   0.000000274   0.000000062      423007953   22447881
  15 14  0    -1452.6545909895     0.0000000053   0.000000056   0.000000031      386075851   22746792

          -----------------
          DENSITY CONVERGED
          -----------------
     TIME TO FORM FOCK OPERATORS=      31.8 SECONDS (       2.1 SEC/ITER)
     FOCK TIME ON FIRST ITERATION=       3.0, LAST ITERATION=       1.2
     TIME TO SOLVE SCF EQUATIONS=       0.6 SECONDS (       0.0 SEC/ITER)

 FINAL RHF ENERGY IS    -1452.6545909895 AFTER  15 ITERATIONS
 ...... END OF RHF CALCULATION ......
 CPU     0: STEP CPU TIME=    58.25 TOTAL CPU TIME=        795.4 (     13.3 MIN)
 TOTAL WALL CLOCK TIME=       1653.7 SECONDS, CPU UTILIZATION IS    48.10%
 DONE PCM POT.
 CPU     0: STEP CPU TIME=     0.42 TOTAL CPU TIME=        795.8 (     13.3 MIN)
 TOTAL WALL CLOCK TIME=       1654.8 SECONDS, CPU UTILIZATION IS    48.09%

 Iter=  2 iFrag=      6 EFMO= -1507.512692269, DD= 0.056492191, DE=-0.486249326


 RHF      monomer      9 corr= NONE       , L1=   386, L0=   362 ID=      3


 AO spaces for     9     0     0 n-mer: L1=   386, L0=   362

 DIRECT SCF CALCULATION, SCHWRZ=T   FDIFF=T,  DIRTHR=  0.00E+00 NITDIR=10

                                                                                   NONZERO     BLOCKS
 ITER EX DEM     TOTAL ENERGY        E CHANGE  DENSITY CHANGE     ORB. GRAD      INTEGRALS    SKIPPED
   1  0  0    -1461.2066051752 -1461.2066051752   0.069321139   0.000000000      905817803   17562902
          ---------------START SECOND ORDER SCF---------------
   2  1  0    -1461.2318448119    -0.0252396367   0.034954380   0.005118805      865827085   18494615
   3  2  0    -1461.2337206994    -0.0018758875   0.013153607   0.002174957      827653893   18970804
   4  3  0    -1461.2341806224    -0.0004599230   0.003314753   0.000418353      789541684   19360347
   5  4  0    -1461.2340915549     0.0000890675   0.000711927   0.000173467      757018118   19665406
   6  5  0    -1461.2340872111     0.0000043437   0.000171417   0.000095684      717098664   20017018
   7  6  0    -1461.2340967807    -0.0000095695   0.000080669   0.000029277      676343819   20368982
   8  7  0    -1461.2340966859     0.0000000947   0.000039778   0.000012740      640535839   20676028
   9  8  0    -1461.2340965747     0.0000001112   0.000014806   0.000007162      597686848   21061917
  10  9  0    -1461.2340962902     0.0000002845   0.000004584   0.000001940      568222982   21288402
  11 10  0    -1461.2340962730     0.0000000171   0.000002127   0.000000752      513216946   21738369
  12 11  0    -1461.2340962963    -0.0000000233   0.000000577   0.000000262      485831639   21979073
  13 12  0    -1461.2340963104    -0.0000000141   0.000000275   0.000000133      437858310   22348266
  14 13  0    -1461.2340963111    -0.0000000007   0.000000145   0.000000053      403026066   22629938
  15 14  0    -1461.2340963118    -0.0000000007   0.000000000   0.000000010      361554551   22971919

          -----------------
          DENSITY CONVERGED
          -----------------
     TIME TO FORM FOCK OPERATORS=      29.5 SECONDS (       2.0 SEC/ITER)
     FOCK TIME ON FIRST ITERATION=       3.2, LAST ITERATION=       1.2
     TIME TO SOLVE SCF EQUATIONS=       0.6 SECONDS (       0.0 SEC/ITER)

 FINAL RHF ENERGY IS    -1461.2340963118 AFTER  15 ITERATIONS
 ...... END OF RHF CALCULATION ......
 CPU     0: STEP CPU TIME=    59.70 TOTAL CPU TIME=        855.5 (     14.3 MIN)
 TOTAL WALL CLOCK TIME=       1781.0 SECONDS, CPU UTILIZATION IS    48.03%
 DONE PCM POT.
 CPU     0: STEP CPU TIME=     0.43 TOTAL CPU TIME=        855.9 (     14.3 MIN)
 TOTAL WALL CLOCK TIME=       1782.2 SECONDS, CPU UTILIZATION IS    48.03%

 Iter=  2 iFrag=      9 EFMO= -1507.437933654, DD= 0.079165420, DE=-0.406254723


 RHF      monomer      5 corr= NONE       , L1=   386, L0=   362 ID=      4


 AO spaces for     5     0     0 n-mer: L1=   386, L0=   362

 DIRECT SCF CALCULATION, SCHWRZ=T   FDIFF=T,  DIRTHR=  0.00E+00 NITDIR=10

                                                                                   NONZERO     BLOCKS
 ITER EX DEM     TOTAL ENERGY        E CHANGE  DENSITY CHANGE     ORB. GRAD      INTEGRALS    SKIPPED
   1  0  0    -1457.4286761673 -1457.4286761673   0.075494332   0.000000000      903560909   17623746
          ---------------START SECOND ORDER SCF---------------
   2  1  0    -1457.4510379423    -0.0223617750   0.035665237   0.005900188      868361140   18476722
   3  2  0    -1457.4526260449    -0.0015881027   0.013805486   0.003136262      831690220   18930854
   4  3  0    -1457.4526083689     0.0000176760   0.003574526   0.000631077      796477824   19296165
   5  4  0    -1457.4523924435     0.0002159255   0.000683109   0.000231995      763444632   19617207
   6  5  0    -1457.4523608854     0.0000315581   0.000238691   0.000102921      726980772   19962492
   7  6  0    -1457.4523758025    -0.0000149171   0.000113820   0.000055372      691700261   20250355
   8  7  0    -1457.4523805976    -0.0000047952   0.000054133   0.000018928      662216827   20512784
   9  8  0    -1457.4523774657     0.0000031320   0.000018899   0.000012009      619404041   20917562
  10  9  0    -1457.4523760869     0.0000013788   0.000005060   0.000002398      592079405   21109892
  11 10  0    -1457.4523761176    -0.0000000307   0.000003095   0.000000898      541695980   21539100
  12 11  0    -1457.4523763565    -0.0000002389   0.000000947   0.000000358      508053294   21828996
  13 12  0    -1457.4523763637    -0.0000000072   0.000000370   0.000000103      457003820   22216599
  14 13  0    -1457.4523763659    -0.0000000023   0.000000211   0.000000080      420025309   22526481

          ----------------
          ENERGY CONVERGED
          ----------------
     TIME TO FORM FOCK OPERATORS=      29.9 SECONDS (       2.1 SEC/ITER)
     FOCK TIME ON FIRST ITERATION=       3.2, LAST ITERATION=       1.4
     TIME TO SOLVE SCF EQUATIONS=       0.6 SECONDS (       0.0 SEC/ITER)

 FINAL RHF ENERGY IS    -1457.4523763659 AFTER  14 ITERATIONS
 ...... END OF RHF CALCULATION ......
 CPU     0: STEP CPU TIME=    61.35 TOTAL CPU TIME=        917.3 (     15.3 MIN)
 TOTAL WALL CLOCK TIME=       1909.2 SECONDS, CPU UTILIZATION IS    48.04%
 DONE PCM POT.
 CPU     0: STEP CPU TIME=     0.41 TOTAL CPU TIME=        917.7 (     15.3 MIN)
 TOTAL WALL CLOCK TIME=       1910.4 SECONDS, CPU UTILIZATION IS    48.04%

 Iter=  2 iFrag=      5 EFMO= -1507.494374474, DD= 0.085945050, DE=-0.442523655


 RHF      monomer      7 corr= NONE       , L1=   386, L0=   362 ID=      5


 AO spaces for     7     0     0 n-mer: L1=   386, L0=   362

 DIRECT SCF CALCULATION, SCHWRZ=T   FDIFF=T,  DIRTHR=  0.00E+00 NITDIR=10

                                                                                   NONZERO     BLOCKS
 ITER EX DEM     TOTAL ENERGY        E CHANGE  DENSITY CHANGE     ORB. GRAD      INTEGRALS    SKIPPED
   1  0  0    -1450.6751479704 -1450.6751479704   0.085700960   0.000000000      899398907   17581058
          ---------------START SECOND ORDER SCF---------------
   2  1  0    -1450.7008769400    -0.0257289696   0.035457423   0.004715566      867130535   18428094
   3  2  0    -1450.7031515359    -0.0022745959   0.014575198   0.003053507      836485047   18842439
   4  3  0    -1450.7035075075    -0.0003559716   0.004603825   0.000595157      801108804   19237763
   5  4  0    -1450.7033965734     0.0001109342   0.001027750   0.000418346      772476934   19515037
   6  5  0    -1450.7033847822     0.0000117912   0.000234459   0.000187806      741002185   19815708
   7  6  0    -1450.7034079856    -0.0000232034   0.000137018   0.000063490      702156212   20152378
   8  7  0    -1450.7034116647    -0.0000036791   0.000053359   0.000027504      675452702   20389410
   9  8  0    -1450.7034096428     0.0000020219   0.000021668   0.000009631      636422709   20751243
  10  9  0    -1450.7034088478     0.0000007950   0.000007777   0.000002213      602631433   21008313
  11 10  0    -1450.7034087529     0.0000000949   0.000003142   0.000000911      550106616   21435619
  12 11  0    -1450.7034088637    -0.0000001108   0.000000866   0.000000276      512557186   21755709
  13 12  0    -1450.7034088743    -0.0000000106   0.000000329   0.000000122      466381042   22112649
  14 13  0    -1450.7034088772    -0.0000000029   0.000000211   0.000000045      427071772   22441061
  15 14  0    -1450.7034088799    -0.0000000027   0.000000089   0.000000027      386501620   22765040

          -----------------
          DENSITY CONVERGED
          -----------------
     TIME TO FORM FOCK OPERATORS=      32.5 SECONDS (       2.2 SEC/ITER)
     FOCK TIME ON FIRST ITERATION=       3.6, LAST ITERATION=       1.2
     TIME TO SOLVE SCF EQUATIONS=       0.6 SECONDS (       0.0 SEC/ITER)

 FINAL RHF ENERGY IS    -1450.7034088799 AFTER  15 ITERATIONS
 ...... END OF RHF CALCULATION ......
 CPU     0: STEP CPU TIME=    73.60 TOTAL CPU TIME=        991.3 (     16.5 MIN)
 TOTAL WALL CLOCK TIME=       2058.3 SECONDS, CPU UTILIZATION IS    48.16%
 DONE PCM POT.
 CPU     0: STEP CPU TIME=     0.42 TOTAL CPU TIME=        991.7 (     16.5 MIN)
 TOTAL WALL CLOCK TIME=       2059.4 SECONDS, CPU UTILIZATION IS    48.15%

 Iter=  2 iFrag=      7 EFMO= -1507.451673251, DD= 0.097173244, DE=-0.457038489


 RHF      monomer      8 corr= NONE       , L1=   371, L0=   348 ID=      6


 AO spaces for     8     0     0 n-mer: L1=   371, L0=   348

 DIRECT SCF CALCULATION, SCHWRZ=T   FDIFF=T,  DIRTHR=  0.00E+00 NITDIR=10

                                                                                   NONZERO     BLOCKS
 ITER EX DEM     TOTAL ENERGY        E CHANGE  DENSITY CHANGE     ORB. GRAD      INTEGRALS    SKIPPED
   1  0  0    -1387.1244088348 -1387.1244088348   0.087960665   0.000000000      797856758   15074154
          ---------------START SECOND ORDER SCF---------------
   2  1  0    -1387.1471641568    -0.0227553220   0.034675590   0.006907481      771515384   15849085
   3  2  0    -1387.1488481246    -0.0016839677   0.013719876   0.002638000      743557983   16239116
   4  3  0    -1387.1489758821    -0.0001277576   0.003522605   0.000821941      715999882   16556680
   5  4  0    -1387.1488409785     0.0001349036   0.000581156   0.000422495      690883853   16810945
   6  5  0    -1387.1488105367     0.0000304418   0.000349250   0.000259968      662242497   17095769
   7  6  0    -1387.1488176071    -0.0000070704   0.000256149   0.000068160      634117473   17352742
   8  7  0    -1387.1488194164    -0.0000018094   0.000049239   0.000026525      611043602   17556321
   9  8  0    -1387.1488188339     0.0000005825   0.000020699   0.000007656      578417706   17845110
  10  9  0    -1387.1488176648     0.0000011691   0.000006818   0.000002740      542912666   18141877
  11 10  0    -1387.1488176248     0.0000000400   0.000002493   0.000001230      500986516   18515607
  12 11  0    -1387.1488177272    -0.0000001024   0.000001121   0.000000640      468856371   18796895
  13 12  0    -1387.1488177631    -0.0000000359   0.000000264   0.000000222      426167064   19142826
  14 13  0    -1387.1488177696    -0.0000000065   0.000000152   0.000000088      393233414   19410868
  15 14  0    -1387.1488177661     0.0000000035   0.000000041   0.000000023      358404872   19714437

          -----------------
          DENSITY CONVERGED
          -----------------
     TIME TO FORM FOCK OPERATORS=      29.1 SECONDS (       1.9 SEC/ITER)
     FOCK TIME ON FIRST ITERATION=       3.0, LAST ITERATION=       1.1
     TIME TO SOLVE SCF EQUATIONS=       0.6 SECONDS (       0.0 SEC/ITER)

 FINAL RHF ENERGY IS    -1387.1488177661 AFTER  15 ITERATIONS
 ...... END OF RHF CALCULATION ......
 CPU     0: STEP CPU TIME=    45.55 TOTAL CPU TIME=       1037.3 (     17.3 MIN)
 TOTAL WALL CLOCK TIME=       2154.7 SECONDS, CPU UTILIZATION IS    48.14%
 DONE PCM POT.
 CPU     0: STEP CPU TIME=     0.40 TOTAL CPU TIME=       1037.7 (     17.3 MIN)
 TOTAL WALL CLOCK TIME=       2155.7 SECONDS, CPU UTILIZATION IS    48.14%

 Iter=  2 iFrag=      8 EFMO= -1432.584839485, DD= 0.100586927, DE=-0.415857681


 RHF      monomer      3 corr= NONE       , L1=   341, L0=   320 ID=      7

