‘1ANR_2_fmo_input.inp’ -> ‘/scratch/hazwong/824214/./1ANR_2_fmo_input.inp’
‘rungms’ -> ‘/scratch/hazwong/824214/./rungms’
‘gms-files.csh’ -> ‘/scratch/hazwong/824214/./gms-files.csh’
----- GAMESS execution script 'rungms' -----
This job is running on host gollum056.lsa.umich.edu
under operating system Linux at Sat Dec 7 00:11:29 EST 2019
Available scratch disk space (Kbyte units) at beginning of the job is
Filesystem     1K-blocks  Used Available Use% Mounted on
/dev/sda4      426933580 33468 426900112   1% /scratch
GAMESS temporary binary files will be written to /scratch/hazwong/824214/1ANR_2/usrc
GAMESS supplementary output files will be written to /scratch/hazwong/824214/1ANR_2/src
Copying input file 1ANR_2_fmo_input.inp to your run's scratch directory...
cp 1ANR_2_fmo_input.inp /scratch/hazwong/824214/1ANR_2/usrc/1ANR_2_fmo_input.F05
unset echo
This is a GDDI run, keeping various output files on local disks
setenv OUTPUT /scratch/hazwong/824214/1ANR_2/usrc/1ANR_2_fmo_input.F06
setenv PUNCH /scratch/hazwong/824214/1ANR_2/usrc/1ANR_2_fmo_input.F07
unset echo
 
Assuming a single but multicore node.
 
/export/apps/CentOS7/gamess/src/build//ddikick.x /export/apps/CentOS7/gamess/src/build//gamess.R3.x 1ANR_2_fmo_input -ddi 1 16 gollum056.lsa.umich.edu:cpus=16 -scr /scratch/hazwong/824214/1ANR_2/usrc

 Distributed Data Interface kickoff program.
 Initiating 16 compute processes on 1 nodes to run the following command:
 /export/apps/CentOS7/gamess/src/build//gamess.R3.x 1ANR_2_fmo_input 

          ******************************************************
          *         GAMESS VERSION = 30 SEP 2018 (R3)         *
          *             FROM IOWA STATE UNIVERSITY             *
          * M.W.SCHMIDT, K.K.BALDRIDGE, J.A.BOATZ, S.T.ELBERT, *
          *   M.S.GORDON, J.H.JENSEN, S.KOSEKI, N.MATSUNAGA,   *
          *          K.A.NGUYEN, S.J.SU, T.L.WINDUS,           *
          *       TOGETHER WITH M.DUPUIS, J.A.MONTGOMERY       *
          *         J.COMPUT.CHEM.  14, 1347-1363(1993)        *
          **************** 64 BIT LINUX VERSION ****************

  SINCE 1993, STUDENTS AND POSTDOCS WORKING AT IOWA STATE UNIVERSITY
  AND ALSO IN THEIR VARIOUS JOBS AFTER LEAVING ISU HAVE MADE IMPORTANT
  CONTRIBUTIONS TO THE CODE:
     IVANA ADAMOVIC, CHRISTINE AIKENS, YURI ALEXEEV, POOJA ARORA,
     ANDREY ASADCHEV, ROB BELL, PRADIPTA BANDYOPADHYAY, JONATHAN BENTZ,
     BRETT BODE, KURT BRORSEN, CALEB CARLIN, GALINA CHABAN, WEI CHEN,
     CHEOL HO CHOI, PAUL DAY, ALBERT DEFUSCO, NUWAN DESILVA, TIM DUDLEY,
     DMITRI FEDOROV, ALEX FINDLATER, GRAHAM FLETCHER, MARK FREITAG,
     KURT GLAESEMANN, ANASTASIA GUNINA,
     DAN KEMP, GRANT MERRILL, NORIYUKI MINEZAWA, JONATHAN MULLIN,
     TAKESHI NAGATA, SEAN NEDD, HEATHER NETZLOFF, BOSILJKA NJEGIC, RYAN OLSON,
     MIKE PAK, BUU PHAM,
     SPENCER PRUITT, LUKE ROSKOP, JIM SHOEMAKER, LYUDMILA SLIPCHENKO,
     TONY SMITH, SAROM SOK LEANG, JIE SONG, TETSUYA TAKETSUGU, SIMON WEBB,
     PENG XU, SOOHAENG YOO, FEDERICO ZAHARIEV

  ADDITIONAL CODE HAS BEEN PROVIDED BY COLLABORATORS IN OTHER GROUPS:
     IOWA STATE UNIVERSITY:
          JOE IVANIC, AARON WEST, LAIMUTIS BYTAUTAS, KLAUS RUEDENBERG
     UNIVERSITY OF TOKYO: KIMIHIKO HIRAO, TAKAHITO NAKAJIMA,
          TAKAO TSUNEDA, MUNEAKI KAMIYA, SUSUMU YANAGISAWA,
          KIYOSHI YAGI, MAHITO CHIBA, SEIKEN TOKURA, NAOAKI KAWAKAMI
     UNIVERSITY OF AARHUS: FRANK JENSEN
     UNIVERSITY OF IOWA: VISVALDAS KAIRYS, HUI LI
     NATIONAL INST. OF STANDARDS AND TECHNOLOGY: WALT STEVENS, DAVID GARMER
     UNIVERSITY OF PISA: BENEDETTA MENNUCCI, JACOPO TOMASI
     UNIVERSITY OF MEMPHIS: HENRY KURTZ, PRAKASHAN KORAMBATH
     UNIVERSITY OF ALBERTA: TOBY ZENG, MARIUSZ KLOBUKOWSKI
     UNIVERSITY OF NEW ENGLAND: MARK SPACKMAN
     MIE UNIVERSITY: HIROAKI UMEDA
     NAT. INST. OF ADVANCED INDUSTRIAL SCIENCE AND TECHNOLOGY: KAZUO KITAURA
     MICHIGAN STATE UNIVERSITY:
          KAROL KOWALSKI, MARTA WLOCH, JEFFREY GOUR, JESSE LUTZ,
          WEI LI, JUN SHEN, J. EMILIANO DEUSTUA, PIOTR PIECUCH
     UNIVERSITY OF MINNESOTA:
          YINAN SHU
     UNIVERSITY OF SILESIA: MONIKA MUSIAL, STANISLAW KUCHARSKI
     FACULTES UNIVERSITAIRES NOTRE-DAME DE LA PAIX:
          OLIVIER QUINET, BENOIT CHAMPAGNE
     UNIVERSITY OF CALIFORNIA - SANTA BARBARA: BERNARD KIRTMAN
     INSTITUTE FOR MOLECULAR SCIENCE:
          KAZUYA ISHIMURA, MICHIO KATOUDA, AND SHIGERU NAGASE
     UNIVERSITY OF NOTRE DAME: ANNA POMOGAEVA, DAN CHIPMAN
     KYUSHU UNIVERSITY:
          HARUYUKI NAKANO,
          FENG LONG GU, JACEK KORCHOWIEC, MARCIN MAKOWSKI, AND YURIKO AOKI,
          HIROTOSHI MORI AND EISAKU MIYOSHI
     PENNSYLVANIA STATE UNIVERSITY:
          TZVETELIN IORDANOV, CHET SWALINA, JONATHAN SKONE,
          SHARON HAMMES-SCHIFFER
     WASEDA UNIVERSITY:
          MASATO KOBAYASHI, TOMOKO AKAMA, TSUGUKI TOUMA,
          TAKESHI YOSHIKAWA, YASUHIRO IKABATA, JUNJI SEINO,
          YUYA NAKAJIMA, HIROMI NAKAI
     NANJING UNIVERSITY: SHUHUA LI
     UNIVERSITY OF NEBRASKA:
          PEIFENG SU, DEJUN SI, NANDUN THELLAMUREGE, YALI WANG, HUI LI
     UNIVERSITY OF ZURICH: ROBERTO PEVERATI, KIM BALDRIDGE
     N. COPERNICUS UNIVERSITY AND JACKSON STATE UNIVERSITY:
          MARIA BARYSZ
     UNIVERSITY OF COPENHAGEN: Jimmy Kromann, CASPER STEINMANN
     TOKYO INSTITUTE OF TECHNOLOGY: HIROYA NAKATA
     NAGOYA UNIVERSITY: YOSHIO NISHIMOTO, STEPHAN IRLE
     MOSCOW STATE UNIVERSITY: VLADIMIR MIRONOV


 PARALLEL VERSION RUNNING ON       16 PROCESSORS IN        1 NODES.

 EXECUTION OF GAMESS BEGUN Sat Dec  7 00:11:30 2019

            ECHO OF THE FIRST FEW INPUT CARDS -
 INPUT CARD>!*** FMO 5.3 (Gamess) INPUT generated by Facio 22.1.1.32 ***                    
 INPUT CARD> $CONTRL RUNTYP=ENERGY NPRINT=-5 ISPHER=1 MAXIT=200 $END                        
 INPUT CARD> $SYSTEM MWORDS=63 MEMDDI=63 $END                                               
 INPUT CARD> $GDDI NGROUP=1 $END                                                            
 INPUT CARD> $SCF DIRSCF=.TRUE. NPUNCH=0 $END                                               
 INPUT CARD>!*** NumCPU : 2  MemPerNode : 512MB                                             
 INPUT CARD> $PCM SOLVNT=WATER IEF=-10 ICOMP=2 ICAV=1 IDISP=1 IFMO=-1 $END                  
 INPUT CARD> $PCMCAV RADII=SUAHF $END                                                       
 INPUT CARD> $TESCAV NTSALL=60 $END                                                         
 INPUT CARD> $FMOPRP                                                                        
 INPUT CARD>    NAODIR=200                                                                  
 INPUT CARD>    NGRFMO(1)=1, 1, 0, 0, 0,   0, 0, 0, 0, 0                                    
 INPUT CARD>    IPIEDA=1                                                                    
 INPUT CARD>    NPRINT=9                                                                    
 INPUT CARD> $END                                                                           
 INPUT CARD> $FMO                                                                           
 INPUT CARD>      SCFTYP(1)=RHF                                                             
 INPUT CARD>      MODGRD=10                                                                 
 INPUT CARD>      MODMUL=0                                                                  
 INPUT CARD>      MAXCAO=5                                                                  
 INPUT CARD>      MAXBND=12                                                                 
 INPUT CARD>      NLAYER=1                                                                  
 INPUT CARD>      MPLEVL(1)=2                                                               
 INPUT CARD>      NFRAG=10                                                                  
 INPUT CARD>      ICHARG(1)=-1, -1, -1, -1, -1, -1, -1, -1, -1, 0                           
 INPUT CARD>      FRGNAM(1)=F1, F2, F3, F4, F5, F6, F7, F8, F9, F10                         
 INPUT CARD>      indat(1)=0                                                                
 INPUT CARD>               1   -36   0                                                      
 INPUT CARD>               37   -67   0                                                     
 INPUT CARD>               68   -98   0                                                     
 INPUT CARD>               99   -128   0                                                    
 INPUT CARD>               129   -162   0                                                   
 INPUT CARD>               163   -196   0                                                   
 INPUT CARD>               197   -230   0                                                   
 INPUT CARD>               231   -263   0                                                   
 INPUT CARD>               264   -297   0                                                   
 INPUT CARD>               298   -325   0                                                   
 INPUT CARD> $END                                                                           
 INPUT CARD>                                                                                
 INPUT CARD> $FMOBND                                                                        
 INPUT CARD>   -37   36       6-31G*    MINI                                                
 INPUT CARD>   -68   67       6-31G*    MINI                                                
 INPUT CARD>   -99   98       6-31G*    MINI                                                
 INPUT CARD>   -129   128       6-31G*    MINI                                              
 INPUT CARD>   -163   162       6-31G*    MINI                                              
 INPUT CARD>   -197   196       6-31G*    MINI                                              
 INPUT CARD>   -231   230       6-31G*    MINI                                              
 INPUT CARD>   -264   263       6-31G*    MINI                                              
 INPUT CARD>   -298   297       6-31G*    MINI                                              
 INPUT CARD> $END                                                                           


 -------------------------------------------------------------
 GROUP DDI, PROGRAMMED BY: RYAN M. OLSON AND DMITRI G. FEDOROV
        FEDOROV ET AL., J. COMPUT. CHEM., 25 (2004) 872.
 -------------------------------------------------------------

 -------------------------------------------------------
 GDDI: INITIALIZATION COMPLETED FOR GROUP     1 OF     1
 WITH    16 PROCESSES BALTYP=DLB   global rank=        0
 -------------------------------------------------------

   63000000 WORDS OF MEMORY AVAILABLE


     RUN TITLE
     ---------
  FMO calculation                                                                

 THE POINT GROUP OF THE MOLECULE IS C1      
 THE ORDER OF THE PRINCIPAL AXIS IS     0

 ATOM   ATOMIC CHARGE
 H.1-1       1.0
 O.1-1       8.0
 C.1-1       6.0
 N.1-1       7.0
 P.1-1      15.0

     ATOMIC BASIS SET LIBRARY
     ----------------
 THE CONTRACTED PRIMITIVE FUNCTIONS HAVE BEEN UNNORMALIZED
 THE CONTRACTED BASIS FUNCTIONS ARE NOW NORMALIZED TO UNITY

  SHELL TYPE  PRIMITIVE        EXPONENT          CONTRACTION COEFFICIENT(S)

 H.1-1     

      1   S       1            18.7311370    0.033494604338
      1   S       2             2.8253944    0.234726953484
      1   S       3             0.6401217    0.813757326146

      2   S       4             0.1612778    1.000000000000

 O.1-1     

      3   S       5          5484.6716600    0.001831074430
      3   S       6           825.2349460    0.013950172200
      3   S       7           188.0469580    0.068445078098
      3   S       8            52.9645000    0.232714335992
      3   S       9            16.8975704    0.470192897984
      3   S      10             5.7996353    0.358520852987

      4   L      11            15.5396162   -0.110777549525    0.070874268231
      4   L      12             3.5999336   -0.148026262701    0.339752839147
      4   L      13             1.0137618    1.130767015354    0.727158577316

      5   L      14             0.2700058    1.000000000000    1.000000000000

      6   D      15             0.8000000    1.000000000000

 C.1-1     

      7   S      16          3047.5248800    0.001834737132
      7   S      17           457.3695180    0.014037322813
      7   S      18           103.9486850    0.068842622264
      7   S      19            29.2101553    0.232184443216
      7   S      20             9.2866630    0.467941348435
      7   S      21             3.1639270    0.362311985337

      8   L      22             7.8682723   -0.119332419775    0.068999066591
      8   L      23             1.8812885   -0.160854151696    0.316423960957
      8   L      24             0.5442493    1.143456437840    0.744308290898

      9   L      25             0.1687145    1.000000000000    1.000000000000

     10   D      26             0.8000000    1.000000000000

 N.1-1     

     11   S      27          4173.5114600    0.001834772160
     11   S      28           627.4579110    0.013994627002
     11   S      29           142.9020930    0.068586551812
     11   S      30            40.2343293    0.232240873040
     11   S      31            12.8202129    0.469069948082
     11   S      32             4.3904370    0.360455199063

     12   L      33            11.6263619   -0.114961181702    0.067579743878
     12   L      34             2.7162798   -0.169117478561    0.323907295893
     12   L      35             0.7722184    1.145851947027    0.740895139755

     13   L      36             0.2120315    1.000000000000    1.000000000000

     14   D      37             0.8000000    1.000000000000

 P.1-1     

     15   S      38         19413.3000000    0.001851598923
     15   S      39          2909.4200000    0.014206191735
     15   S      40           661.3640000    0.069999459277
     15   S      41           185.7590000    0.240078860331
     15   S      42            59.1943000    0.484761717984
     15   S      43            20.0310000    0.335199804993

     16   L      44           339.4780000   -0.002782170105    0.004564616191
     16   L      45            81.0101000   -0.036049901354    0.033693571881
     16   L      46            25.8780000   -0.116631004382    0.139754883368
     16   L      47             9.4522100    0.096832803638    0.339361716786
     16   L      48             3.6656600    0.614418023082    0.450920623685
     16   L      49             1.4674600    0.403798015170    0.238585800889

     17   L      50             2.1562300   -0.252924113863   -0.017765312733
     17   L      51             0.7489970    0.032851844678    0.274058196433
     17   L      52             0.2831450    1.081254761783    0.785421562957

     18   L      53             0.0998317    1.000000000000    1.000000000000

     19   D      54             0.5500000    1.000000000000

 TOTAL NUMBER OF BASIS SET SHELLS             =   19
 NUMBER OF CARTESIAN GAUSSIAN BASIS FUNCTIONS =   66

     $CONTRL OPTIONS
     ---------------
 SCFTYP=RHF          RUNTYP=ENERGY       EXETYP=RUN     
 MPLEVL=       0     CITYP =NONE         CCTYP =NONE         VBTYP =NONE    
 DFTTYP=NONE         TDDFT =NONE    
 MULT  =       1     ICHARG=       0     NZVAR =       0     COORD =UNIQUE  
 PP    =NONE         RELWFN=NONE         LOCAL =NONE         NUMGRD=       F
 ISPHER=       1     NOSYM =       0     MAXIT =     200     UNITS =ANGS    
 PLTORB=       F     MOLPLT=       F     AIMPAC=       F     FRIEND=        
 NPRINT=      -5     IREST =       0     GEOM  =INPUT   
 NORMF =       0     NORMP =       0     ITOL  =      24     ICUT  =      12
 INTTYP=BEST         GRDTYP=BEST         QMTTOL= 1.0E-06

     $SYSTEM OPTIONS
     ---------------
  REPLICATED MEMORY=    63000000 WORDS (ON EVERY NODE).
 DISTRIBUTED MEMDDI=          63 MILLION WORDS IN AGGREGATE,
 MEMDDI DISTRIBUTED OVER  16 PROCESSORS IS     3937500 WORDS/PROCESSOR.
 TOTAL MEMORY REQUESTED ON EACH PROCESSOR=    66937500 WORDS.
 TIMLIM=      525600.00 MINUTES, OR     365.0 DAYS.
 PARALL= T  BALTYP=  DLB     KDIAG=    0  COREFL= F
 MXSEQ2=     300 MXSEQ3=     150  mem10=         0

 ** LOOKING UP INTERNALLY STORED DATA FOR SOLVENT=WATER    **
 OPTICAL AND PHYSICAL CONSTANTS:
 EPS= 78.390; EPSINF=  1.776; RSOLV=  1.385 A; VMOL=  18.070 ML/MOL;
 TCE= .25700E-03 1/K; STEN= 71.810 DYN/CM;  DSTEN=  0.6500; CMF=  1.2770


     -----------------------------------
     INPUT FOR PCM SOLVATION CALCULATION 
     -----------------------------------
     IEF   =     -10
     ICOMP =       2     IFIELD=       0     ICAV  =       1
     IDISP =       1     IREP  =       0     IDP   =       0

     SOLVNT=WATER        EPS   = 78.3900     EPSINF=  1.7760
     VMOL  = 18.0700     TCE   =  0.00025700 STEN  = 71.8100
     DSTEN =  0.6500     CMF   =  1.2770     RSOLV =  1.3850

     NESFP =       0
     OMEGA = 40.0000     RET   =100.0000     FRO   =  0.7000

     TABS  =298.0000     IPRINT=       0

     --------------------------------
     INPUT FOR ITERATIVE C-PCM METHOD 
     --------------------------------
     IPCMIT  =         1     MXDIIS  =        50
     MXITR1  =       200     MXITR2  =       200
     THRES   = 0.100E-09     IMUL    =         3
     RCUT(1) =   20.0000     RCUT(2) =   50.0000

     IDIRCT  =         1
     IMGABI  =         0     RABI    =    4.0000
     IMGASC  =         0     RASC    =   20.0000
     THRSLS  = 0.500E-03     DENSLS  =    0.0100
     IEFPOL  =         1     REFPOL  =    0.0000

     INPUT FOR ISOTROPIC DIELECTRICS
     -------------------------------
     EPS=    78.39

          ----------------
          PROPERTIES INPUT
          ----------------

     MOMENTS            FIELD           POTENTIAL          DENSITY
 IEMOM =       1   IEFLD =       0   IEPOT =       0   IEDEN =       0
 WHERE =COMASS     WHERE =NUCLEI     WHERE =NUCLEI     WHERE =NUCLEI  
 OUTPUT=BOTH       OUTPUT=BOTH       OUTPUT=NONE       OUTPUT=BOTH    
 IEMINT=       0   IEFINT=       0                     IEDINT=       0
                                                       MORB  =       0
          EXTRAPOLATION IN EFFECT
          SOSCF IN EFFECT
 ORBITAL PRINTING OPTION: NPREO=     1 32767     2     1

     -------------------------------
     INTEGRAL TRANSFORMATION OPTIONS
     -------------------------------
     NWORD  =            0
     CUTOFF = 1.0E-10     MPTRAN =       0
     DIRTRF =       T     AOINTS =DUP     

          ----------------------
          INTEGRAL INPUT OPTIONS
          ----------------------
 NOPK  =       1 NORDER=       0 SCHWRZ=       T

 ..... DONE SETTING UP THE RUN .....
 CPU     0: STEP CPU TIME=     0.03 TOTAL CPU TIME=          0.0 (      0.0 MIN)
 TOTAL WALL CLOCK TIME=          0.1 SECONDS, CPU UTILIZATION IS    42.86%
 CPU     0: STEP CPU TIME=     0.00 TOTAL CPU TIME=          0.0 (      0.0 MIN)
 TOTAL WALL CLOCK TIME=          0.1 SECONDS, CPU UTILIZATION IS    42.86%

                    ----------------------
                    AO INTEGRAL TECHNOLOGY
                    ----------------------
     S,P,L SHELL ROTATED AXIS INTEGRALS, REPROGRAMMED BY
        KAZUYA ISHIMURA (IMS) AND JOSE SIERRA (SYNSTAR).
     S,P,D,L SHELL ROTATED AXIS INTEGRALS PROGRAMMED BY
        KAZUYA ISHIMURA (INSTITUTE FOR MOLECULAR SCIENCE).
     S,P,D,F,G SHELL TO TOTAL QUARTET ANGULAR MOMENTUM SUM 5,
        ERIC PROGRAM BY GRAHAM FLETCHER (ELORET AND NASA ADVANCED
        SUPERCOMPUTING DIVISION, AMES RESEARCH CENTER).
     S,P,D,F,G,L SHELL GENERAL RYS QUADRATURE PROGRAMMED BY
        MICHEL DUPUIS (PACIFIC NORTHWEST NATIONAL LABORATORY).
 Setting modorb=1 flag...
 Setting modorb=1 flag...

          -----------------------
          MP2 CONTROL INFORMATION
          -----------------------
          NACORE =        8  NBCORE =        8
          LMOMP2 =        F  AOINTS = DUP     
          METHOD =        2  NWORD  =               0
          MP2PRP =        F  OSPT   = NONE    
          CUTOFF = 1.00E-12  CPHFBS = BASISAO 
          CODE   = IMS     

          NUMBER OF CORE -A-  ORBITALS =     8
          NUMBER OF CORE -B-  ORBITALS =     8
          NUMBER OF OCC. -A-  ORBITALS =    18
          NUMBER OF OCC. -B-  ORBITALS =    18
          NUMBER OF MOLECULAR ORBITALS =    66
          NUMBER OF   BASIS  FUNCTIONS =    66

 CPU     0: STEP CPU TIME=     0.03 TOTAL CPU TIME=          0.1 (      0.0 MIN)
 TOTAL WALL CLOCK TIME=          0.1 SECONDS, CPU UTILIZATION IS    60.00%
 CPU     0: STEP CPU TIME=     0.00 TOTAL CPU TIME=          0.1 (      0.0 MIN)
 TOTAL WALL CLOCK TIME=          0.1 SECONDS, CPU UTILIZATION IS    60.00%

     INPUT FOR CAVITY DEFINITION 
     ---------------------------
   ATOM               COORDINATES                RADIUS       EPS
      1     -5.2410     -1.6250      8.1200      0.0100     78.3900
      2     -6.1470     -1.2710      8.0240      1.5900     78.3900
      3     -6.2000     -0.0290      8.7450      1.7700     78.3900
      4     -5.4300      0.6650      8.3350      0.0100     78.3900
      5     -5.9580     -0.2170      9.8120      0.0100     78.3900
      6     -7.5710      0.6530      8.6840      1.7700     78.3900
      7     -7.5770      1.5870      9.2830      0.0100     78.3900
      8     -7.8830      1.0160      7.3080      1.5900     78.3900
      9     -9.2700      0.8120      7.0760      1.7700     78.3900
     10     -9.6700      1.7810      6.6990      0.0100     78.3900
     11     -9.4990     -0.2210      6.0550      1.6800     78.3900
     12    -10.6580     -0.4230      5.3590      1.7700     78.3900
     13    -13.9380      0.4440      4.6880      1.6800     78.3900
     14    -14.1060      1.1870      5.3330      0.0100     78.3900
     15    -14.6790      0.1490      4.0780      0.0100     78.3900
     16    -11.7950      0.2760      5.5070      1.6800     78.3900
     17    -12.7500     -0.1260      4.6740      1.7700     78.3900
     18    -12.5710     -1.1280      3.7560      1.6800     78.3900
     19    -13.3430     -1.3620      3.1520      0.0100     78.3900
     20    -11.4020     -1.8540      3.5650      1.7700     78.3900
     21    -11.3280     -2.7360      2.7020      1.5900     78.3900
     22    -10.3910     -1.4560      4.4810      1.7700     78.3900
     23     -9.0900     -1.9180      4.6440      1.6800     78.3900
     24     -8.5970     -1.1520      5.5910      1.7700     78.3900
     25     -7.5840     -1.2070      5.9960      0.0100     78.3900
     26     -9.9080      0.4730      8.4040      1.7700     78.3900
     27    -10.7870     -0.1970      8.3000      0.0100     78.3900
     28    -10.2860      1.6610      9.0690      1.5900     78.3900
     29    -10.5120      1.3980      9.9700      0.0100     78.3900
     30     -8.7570     -0.2160      9.1300      1.7700     78.3900
     31     -8.5890     -1.2270      8.7020      0.0100     78.3900
     32     -8.8520     -0.2230     10.5730      1.5900     78.3900
     33     -9.5790     -1.4180     11.3050      2.1000     78.3900
     34     -8.9820     -2.6970     10.8590      1.5900     78.3900
     35     -9.5740     -1.1530     12.7580      1.5900     78.3900
     36    -11.0610     -1.3340     10.7750      1.5900     78.3900
     37    -11.9370     -0.2790     11.2570      1.7700     78.3900
     38    -11.5330      0.7320     11.0240      0.0100     78.3900
     39    -12.0470     -0.3380     12.3660      0.0100     78.3900
     40    -13.3470     -0.3860     10.6530      1.7700     78.3900
     41    -14.0070      0.4260     11.0240      0.0100     78.3900
     42    -13.2950     -0.2680      9.2040      1.5900     78.3900
     43    -14.2510     -1.1540      8.6280      1.7700     78.3900
     44    -14.9330     -0.4970      8.0380      0.0100     78.3900
     45    -13.6420     -2.1510      7.7060      1.6800     78.3900
     46    -12.3160     -2.4840      7.8400      1.7700     78.3900
     47    -11.7790     -1.9850      8.6480      0.0100     78.3900
     48    -11.7270     -3.3480      7.0040      1.7700     78.3900
     49    -10.6700     -3.5980      7.0750      0.0100     78.3900
     50    -14.4120     -2.7670      6.7210      1.7700     78.3900
     51    -15.6190     -2.4920      6.6320      1.5900     78.3900
     52    -13.8320     -3.6400      5.8640      1.6800     78.3900
     53    -12.5240     -3.9260      5.9750      1.7700     78.3900
     54    -11.9720     -4.7610      5.0990      1.6800     78.3900
     55    -12.5290     -5.1480      4.3590      0.0100     78.3900
     56    -10.9920     -4.9750      5.1120      0.0100     78.3900
     57    -15.0450     -1.7830      9.7610      1.7700     78.3900
     58    -15.3520     -2.8300      9.5470      0.0100     78.3900
     59    -16.1830     -0.9950     10.0550      1.5900     78.3900
     60    -16.6030     -1.3900     10.8360      0.0100     78.3900
     61    -14.0390     -1.7280     10.9070      1.7700     78.3900
     62    -13.2590     -2.5100     10.7680      0.0100     78.3900
     63    -14.6020     -1.7420     12.2440      1.5900     78.3900
     64    -15.0940     -3.1330     12.8120      2.1000     78.3900
     65    -14.1740     -4.1860     12.3410      1.5900     78.3900
     66    -15.2910     -3.0080     14.2720      1.5900     78.3900
     67    -16.5060     -3.3360     12.1390      1.5900     78.3900
     68    -17.2200     -4.5840     12.3380      1.7700     78.3900
     69    -17.7130     -4.5920     13.3390      0.0100     78.3900
     70    -16.5280     -5.4600     12.3060      0.0100     78.3900
     71    -18.3000     -4.7710     11.2510      1.7700     78.3900
     72    -19.0980     -4.0020     11.3570      0.0100     78.3900
     73    -17.7010     -4.6700      9.9190      1.5900     78.3900
     74    -17.5960     -5.9620      9.3450      1.7700     78.3900
     75    -18.4050     -5.9770      8.5740      0.0100     78.3900
     76    -16.2640     -6.2080      8.7400      1.6800     78.3900
     77    -15.1320     -5.9460      9.4780      1.7700     78.3900
     78    -15.2870     -5.4980     10.4640      0.0100     78.3900
     79    -13.9120     -6.1730      8.9690      1.7700     78.3900
     80    -13.0020     -5.9440      9.5150      0.0100     78.3900
     81    -16.1510     -6.7950      7.4810      1.7700     78.3900
     82    -17.1820     -7.1230      6.8730      1.5900     78.3900
     83    -14.9300     -7.0120      6.9500      1.6800     78.3900
     84    -13.8260     -6.7390      7.6640      1.7700     78.3900
     85    -12.6350     -6.9900      7.1150      1.6800     78.3900
     86    -12.6040     -7.2880      6.1650      0.0100     78.3900
     87    -11.7770     -6.7350      7.5620      0.0100     78.3900
     88    -17.9340     -6.9750     10.4180      1.7700     78.3900
     89    -17.0390     -7.2510     11.0200      0.0100     78.3900
     90    -18.5220     -8.1250      9.8530      1.5900     78.3900
     91    -18.0900     -8.2380      9.0020      0.0100     78.3900
     92    -18.9080     -6.1860     11.2720      1.7700     78.3900
     93    -18.8310     -6.5620     12.3190      0.0100     78.3900
     94    -20.2530     -6.1970     10.7580      1.5900     78.3900
     95    -21.4860     -6.7170     11.5700      2.1000     78.3900
     96    -22.1990     -5.5320     12.0930      1.5900     78.3900
     97    -22.2820     -7.6030     10.6900      1.5900     78.3900
     98    -20.9170     -7.5340     12.7940      1.5900     78.3900
     99    -21.3510     -8.8840     13.0460      1.7700     78.3900
    100    -21.2000     -9.5330     12.1550      0.0100     78.3900
    101    -22.4350     -8.8860     13.3090      0.0100     78.3900
    102    -20.5560     -9.4790     14.2100      1.7700     78.3900
    103    -20.5400     -8.8000     15.0870      0.0100     78.3900
    104    -21.2110    -10.7100     14.6360      1.5900     78.3900
    105    -20.2320    -11.7070     14.9120      1.7700     78.3900
    106    -20.4490    -12.0890     15.9380      0.0100     78.3900
    107    -20.2860    -12.8330     13.9270      1.6800     78.3900
    108    -21.0660    -12.7570     12.7900      1.7700     78.3900
    109    -21.6010    -11.8180     12.6330      0.0100     78.3900
    110    -19.5740    -13.9800     14.2070      1.7700     78.3900
    111    -18.8940    -14.1070     15.2200      1.5900     78.3900
    112    -19.6930    -14.9840     13.2800      1.6800     78.3900
    113    -19.2230    -15.8420     13.5110      0.0100     78.3900
    114    -20.4980    -14.9980     12.1620      1.7700     78.3900
    115    -20.5630    -16.0030     11.4550      1.5900     78.3900
    116    -21.2050    -13.7770     11.9310      1.7700     78.3900
    117    -21.8490    -13.7070     11.0580      0.0100     78.3900
    118    -18.8850    -11.0060     14.9150      1.7700     78.3900
    119    -18.0700    -11.6880     14.5910      0.0100     78.3900
    120    -18.5970    -10.4860     16.2050      1.5900     78.3900
    121    -17.8290     -9.8830     16.1210      0.0100     78.3900
    122    -19.1170     -9.9010     13.8780      1.7700     78.3900
    123    -19.1490    -10.3260     12.8520      0.0100     78.3900
    124    -18.2380     -8.7620     13.9210      1.5900     78.3900
    125    -16.6970     -8.8460     14.1700      2.1000     78.3900
    126    -16.0110     -7.8020     13.3860      1.5900     78.3900
    127    -16.5250     -8.8370     15.6420      1.5900     78.3900
    128    -16.2550    -10.2530     13.6400      1.5900     78.3900
    129    -15.1320    -10.9440     14.2390      1.7700     78.3900
    130    -15.4240    -11.3940     15.2180      0.0100     78.3900
    131    -14.2780    -10.2510     14.4370      0.0100     78.3900
    132    -14.6280    -12.0480     13.2990      1.7700     78.3900
    133    -13.7640    -12.5920     13.7360      0.0100     78.3900
    134    -15.6830    -13.0250     13.0710      1.5900     78.3900
    135    -15.6440    -13.4530     11.7160      1.7700     78.3900
    136    -15.5270    -14.5610     11.7330      0.0100     78.3900
    137    -16.8880    -13.1110     11.0180      1.6800     78.3900
    138    -17.4500    -13.7940      9.9760      1.7700     78.3900
    139    -17.3890    -16.4030      7.7070      1.6800     78.3900
    140    -17.9790    -16.7960      7.0050      0.0100     78.3900
    141    -16.5410    -16.8670      7.9550      0.0100     78.3900
    142    -16.9540    -14.9020      9.3980      1.6800     78.3900
    143    -17.7330    -15.3430      8.4110      1.7700     78.3900
    144    -18.9270    -14.7590      8.0720      1.6800     78.3900
    145    -19.4660    -15.1800      7.3380      0.0100     78.3900
    146    -19.4760    -13.6350      8.6760      1.7700     78.3900
    147    -20.5670    -13.1710      8.3300      1.5900     78.3900
    148    -18.6230    -13.1210      9.6870      1.7700     78.3900
    149    -18.7740    -12.0120     10.5080      1.6800     78.3900
    150    -17.7180    -12.0480     11.2810      1.7700     78.3900
    151    -17.4860    -11.3340     12.0700      0.0100     78.3900
    152    -14.4290    -12.8320     11.0600      1.7700     78.3900
    153    -14.6030    -12.5660      9.9930      0.0100     78.3900
    154    -13.3120    -13.7020     11.1590      1.5900     78.3900
    155    -12.5650    -13.2230     10.7670      0.0100     78.3900
    156    -14.2400    -11.5670     11.8910      1.7700     78.3900
    157    -14.9890    -10.7970     11.6000      0.0100     78.3900
    158    -12.9010    -11.0390     11.9010      1.5900     78.3900
    159    -12.3960    -10.1810     10.6800      2.1000     78.3900
    160    -13.4540     -9.2060     10.3340      1.5900     78.3900
    161    -11.0510     -9.6580     11.0150      1.5900     78.3900
    162    -12.2440    -11.2380      9.5090      1.5900     78.3900
    163    -12.4630    -10.8040      8.1410      1.7700     78.3900
    164    -11.6630    -10.0890      7.8390      0.0100     78.3900
    165    -13.4340    -10.2710      8.0350      0.0100     78.3900
    166    -12.4680    -11.9880      7.1460      1.7700     78.3900
    167    -11.5050    -12.5370      7.2090      0.0100     78.3900
    168    -13.5250    -12.9550      7.4640      1.5900     78.3900
    169    -14.1830    -13.3650      6.2630      1.7700     78.3900
    170    -14.2030    -14.4750      6.3000      0.0100     78.3900
    171    -15.5750    -12.8670      6.1270      1.6800     78.3900
    172    -16.2250    -11.8860      6.8340      1.7700     78.3900
    173    -16.1110     -9.5480      9.3470      1.6800     78.3900
    174    -16.7270     -9.0710      9.9680      0.0100     78.3900
    175    -15.1340     -9.6130      9.5840      0.0100     78.3900
    176    -15.7070    -11.1640      7.8270      1.6800     78.3900
    177    -16.5390    -10.3180      8.3620      1.7700     78.3900
    178    -17.8270    -10.1560      7.9050      1.6800     78.3900
    179    -18.4800     -9.6140      8.4400      0.0100     78.3900
    180    -18.4030    -10.8690      6.8610      1.7700     78.3900
    181    -19.5640    -10.6520      6.5060      1.5900     78.3900
    182    -17.4910    -11.8050      6.3010      1.7700     78.3900
    183    -17.6510    -12.7200      5.2720      1.6800     78.3900
    184    -16.4840    -13.3170      5.1970      1.7700     78.3900
    185    -16.2260    -14.1030      4.4840      0.0100     78.3900
    186    -13.3310    -12.9010      5.1120      1.7700     78.3900
    187    -13.9300    -12.6730      4.2020      0.0100     78.3900
    188    -12.3440    -13.8720      4.8120      1.5900     78.3900
    189    -11.7310    -13.4630      4.1830      0.0100     78.3900
    190    -12.7120    -11.6190      5.6710      1.7700     78.3900
    191    -13.4640    -10.7990      5.6730      0.0100     78.3900
    192    -11.4720    -11.2250      5.0510      1.5900     78.3900
    193    -11.4420    -10.5520      3.6270      2.1000     78.3900
    194    -12.1070     -9.2410      3.7570      1.5900     78.3900
    195    -10.0360    -10.5940      3.1520      1.5900     78.3900
    196    -12.2880    -11.5070      2.7020      1.5900     78.3900
    197    -12.9350    -11.0100      1.5090      1.7700     78.3900
    198    -12.1680    -10.6640      0.7780      0.0100     78.3900
    199    -13.6040    -10.1520      1.7400      0.0100     78.3900
    200    -13.7590    -12.1350      0.8490      1.7700     78.3900
    201    -13.1620    -13.0730      0.8520      0.0100     78.3900
    202    -15.0160    -12.3750      1.5470      1.5900     78.3900
    203    -16.1080    -11.9550      0.7320      1.7700     78.3900
    204    -16.5560    -12.9000      0.3480      0.0100     78.3900
    205    -17.1260    -11.1730      1.4590      1.6800     78.3900
    206    -16.9260    -10.3040      2.4970      1.7700     78.3900
    207    -14.7490     -8.7270      4.6430      1.6800     78.3900
    208    -14.7790     -8.0920      5.4160      0.0100     78.3900
    209    -13.8630     -9.0150      4.2570      0.0100     78.3900
    210    -15.7470    -10.0100      3.0580      1.6800     78.3900
    211    -15.8370     -9.1420      4.0340      1.7700     78.3900
    212    -17.0250     -8.5820      4.4310      1.6800     78.3900
    213    -17.0260     -7.9580      5.2220      0.0100     78.3900
    214    -18.2660     -8.8490      3.8580      1.7700     78.3900
    215    -19.3050     -8.3040      4.2450      1.5900     78.3900
    216    -18.1700     -9.8000      2.8090      1.7700     78.3900
    217    -19.1500    -10.3310      1.9740      1.6800     78.3900
    218    -18.4730    -11.1290      1.1730      1.7700     78.3900
    219    -18.9030    -11.7210      0.3610      0.0100     78.3900
    220    -15.5530    -11.1690     -0.4210      1.7700     78.3900
    221    -15.4320    -10.0940     -0.1510      0.0100     78.3900
    222    -16.4190    -11.3330     -1.5350      1.5900     78.3900
    223    -16.2200    -10.7220     -2.2660      0.0100     78.3900
    224    -14.1780    -11.8210     -0.5980      1.7700     78.3900
    225    -13.4600    -11.0630     -0.9830      0.0100     78.3900
    226    -14.2210    -13.0040     -1.4150      1.5900     78.3900
    227    -13.1380    -13.3660     -2.4820      2.1000     78.3900
    228    -11.9790    -13.9580     -1.7750      1.5900     78.3900
    229    -13.7830    -14.1850     -3.5370      1.5900     78.3900
    230    -12.6740    -11.9990     -3.1320      1.5900     78.3900
    231    -13.5000    -11.2370     -4.0370      1.7700     78.3900
    232    -14.4410    -11.7700     -4.3120      0.0100     78.3900
    233    -12.9210    -11.0830     -4.9780      0.0100     78.3900
    234    -13.8820     -9.8710     -3.4460      1.7700     78.3900
    235    -14.5670    -10.0070     -2.5940      0.0100     78.3900
    236    -12.7200     -9.1560     -2.9550      1.5900     78.3900
    237    -12.5000     -8.0100     -3.7520      1.7700     78.3900
    238    -12.8740     -7.1460     -3.1560      0.0100     78.3900
    239    -11.0810     -7.8540     -4.0470      1.6800     78.3900
    240     -9.0780     -7.0150     -4.3710      1.7700     78.3900
    241     -8.9390     -8.3970     -4.4780      1.6800     78.3900
    242    -10.1580     -8.8460     -4.2810      1.7700     78.3900
    243    -10.4520     -9.9010     -4.2790      0.0100     78.3900
    244     -8.6110     -4.6910     -4.2700      1.6800     78.3900
    245     -9.9150     -4.5240     -4.0210      1.7700     78.3900
    246    -10.2290     -3.4820     -3.8900      0.0100     78.3900
    247    -10.8900     -5.4330     -3.9300      1.6800     78.3900
    248    -10.3950     -6.6710     -4.1080      1.7700     78.3900
    249     -8.1470     -5.9560     -4.4460      1.7700     78.3900
    250     -6.8350     -6.1320     -4.6870      1.6800     78.3900
    251     -6.4290     -7.0410     -4.8220      0.0100     78.3900
    252     -6.2240     -5.3370     -4.7000      0.0100     78.3900
    253    -13.3450     -8.1600     -4.9940      1.7700     78.3900
    254    -12.8270     -8.7840     -5.7560      0.0100     78.3900
    255    -13.7130     -6.9120     -5.5380      1.5900     78.3900
    256    -14.3320     -6.5000     -4.9120      0.0100     78.3900
    257    -14.5500     -8.9130     -4.4390      1.7700     78.3900
    258    -14.9880     -9.5150     -5.2750      0.0100     78.3900
    259    -15.5280     -8.0620     -3.7780      1.5900     78.3900
    260    -17.0490     -8.4220     -3.9610      2.1000     78.3900
    261    -17.4730     -7.9680     -5.3070      1.5900     78.3900
    262    -17.2150     -9.8620     -3.6580      1.5900     78.3900
    263    -17.7770     -7.5670     -2.8530      1.5900     78.3900
    264    -19.2330     -7.5660     -2.8240      1.7700     78.3900
    265    -19.6400     -8.6030     -2.8160      0.0100     78.3900
    266    -19.6430     -7.0430     -3.7200      0.0100     78.3900
    267    -19.7980     -6.8730     -1.5730      1.7700     78.3900
    268    -20.9070     -6.9080     -1.5640      0.0100     78.3900
    269    -19.3440     -7.5720     -0.3850      1.5900     78.3900
    270    -19.0670     -6.6370      0.6460      1.7700     78.3900
    271    -19.6570     -6.9530      1.5350      0.0100     78.3900
    272    -17.6410     -6.6510      0.9940      1.6800     78.3900
    273    -17.0510     -5.9840      2.0330      1.7700     78.3900
    274    -17.2690     -3.8230      4.7380      1.6800     78.3900
    275    -18.2450     -3.6100      4.7710      0.0100     78.3900
    276    -16.6530     -3.3980      5.4070      0.0100     78.3900
    277    -17.6770     -5.1830      2.9160      1.6800     78.3900
    278    -16.8400     -4.6630      3.8120      1.7700     78.3900
    279    -15.5020     -4.9460      3.8370      1.6800     78.3900
    280    -14.9400     -4.5120      4.5530      0.0100     78.3900
    281    -14.8290     -5.7760      2.9500      1.7700     78.3900
    282    -13.6130     -5.9570      3.0590      1.5900     78.3900
    283    -15.7100     -6.3130      1.9700      1.7700     78.3900
    284    -15.4610     -7.1690      0.9020      1.6800     78.3900
    285    -16.6390     -7.3450      0.3520      1.7700     78.3900
    286    -16.8570     -7.9670     -0.5230      0.0100     78.3900
    287    -19.5230     -5.2740      0.1630      1.7700     78.3900
    288    -18.8910     -4.4460      0.5490      0.0100     78.3900
    289    -20.8700     -5.0480      0.5330      1.5900     78.3900
    290    -21.1660     -4.2700      0.0450      0.0100     78.3900
    291    -19.3610     -5.4230     -1.3460      1.7700     78.3900
    292    -18.2780     -5.3930     -1.6040      0.0100     78.3900
    293    -20.1760     -4.5250     -2.1320      1.5900     78.3900
    294    -19.4930     -3.3760     -2.9640      2.1000     78.3900
    295    -18.1700     -3.8000     -3.4640      1.5900     78.3900
    296    -20.4550     -2.8640     -3.9630      1.5900     78.3900
    297    -19.2570     -2.2510     -1.8890      1.5900     78.3900
    298    -20.3970     -1.6090     -1.2730      1.7700     78.3900
    299    -21.1080     -2.3550     -0.8490      0.0100     78.3900
    300    -20.9500     -1.0020     -2.0260      0.0100     78.3900
    301    -19.9560     -0.6630     -0.1510      1.7700     78.3900
    302    -20.8160     -0.0810      0.2410      0.0100     78.3900
    303    -19.4220     -1.4350      0.9590      1.5900     78.3900
    304    -18.3100     -0.7440      1.5160      1.7700     78.3900
    305    -18.5430     -0.6110      2.5980      0.0100     78.3900
    306    -17.0410     -1.5080      1.3770      1.6800     78.3900
    307    -16.9330     -2.5110      0.4380      1.7700     78.3900
    308    -17.8270     -2.7170     -0.1530      0.0100     78.3900
    309    -15.8030     -3.2110      0.2890      1.7700     78.3900
    310    -15.7090     -4.0200     -0.4320      0.0100     78.3900
    311    -15.9440     -1.1880      2.1700      1.7700     78.3900
    312    -16.0390     -0.2640      2.9910      1.5900     78.3900
    313    -14.7920     -1.8810      2.0320      1.6800     78.3900
    314    -14.7010     -2.8640      1.1200      1.7700     78.3900
    315    -13.5560     -3.5270      1.0070      1.6800     78.3900
    316    -12.7890     -3.3020      1.6140      0.0100     78.3900
    317    -13.4520     -4.3020      0.3810      0.0100     78.3900
    318    -18.2400      0.6250      0.8520      1.7700     78.3900
    319    -17.1950      0.9890      0.7590      0.0100     78.3900
    320    -19.0150      1.5660      1.5810      1.5900     78.3900
    321    -19.0820      2.3840      1.0580      0.0100     78.3900
    322    -18.8340      0.3230     -0.5190      1.7700     78.3900
    323    -18.0880     -0.2010     -1.1580      0.0100     78.3900
    324    -19.3800      1.4670     -1.1990      1.5900     78.3900
    325    -18.6680      2.0800     -1.4600      0.0100     78.3900

     ----------------------------
     INPUT FOR TESSERA DEFINITION
     ----------------------------
     NTSALL  =        60     MTHALL  =         4
     MTHAUT  =         0     AUTFRE  =    2.0000
     NTSFRZ  =        60     KEEPSM  =         0
     AREAKP  =   10.0000     BONDRY  =    1.0000
     AREATL  =    0.0100

     SPHERE     INITS       METHOD
          1        60       FIXPVA
          2        60       FIXPVA
          3        60       FIXPVA
          4        60       FIXPVA
          5        60       FIXPVA
          6        60       FIXPVA
          7        60       FIXPVA
          8        60       FIXPVA
          9        60       FIXPVA
         10        60       FIXPVA
         11        60       FIXPVA
         12        60       FIXPVA
         13        60       FIXPVA
         14        60       FIXPVA
         15        60       FIXPVA
         16        60       FIXPVA
         17        60       FIXPVA
         18        60       FIXPVA
         19        60       FIXPVA
         20        60       FIXPVA
         21        60       FIXPVA
         22        60       FIXPVA
         23        60       FIXPVA
         24        60       FIXPVA
         25        60       FIXPVA
         26        60       FIXPVA
         27        60       FIXPVA
         28        60       FIXPVA
         29        60       FIXPVA
         30        60       FIXPVA
         31        60       FIXPVA
         32        60       FIXPVA
         33        60       FIXPVA
         34        60       FIXPVA
         35        60       FIXPVA
         36        60       FIXPVA
         37        60       FIXPVA
         38        60       FIXPVA
         39        60       FIXPVA
         40        60       FIXPVA
         41        60       FIXPVA
         42        60       FIXPVA
         43        60       FIXPVA
         44        60       FIXPVA
         45        60       FIXPVA
         46        60       FIXPVA
         47        60       FIXPVA
         48        60       FIXPVA
         49        60       FIXPVA
         50        60       FIXPVA
         51        60       FIXPVA
         52        60       FIXPVA
         53        60       FIXPVA
         54        60       FIXPVA
         55        60       FIXPVA
         56        60       FIXPVA
         57        60       FIXPVA
         58        60       FIXPVA
         59        60       FIXPVA
         60        60       FIXPVA
         61        60       FIXPVA
         62        60       FIXPVA
         63        60       FIXPVA
         64        60       FIXPVA
         65        60       FIXPVA
         66        60       FIXPVA
         67        60       FIXPVA
         68        60       FIXPVA
         69        60       FIXPVA
         70        60       FIXPVA
         71        60       FIXPVA
         72        60       FIXPVA
         73        60       FIXPVA
         74        60       FIXPVA
         75        60       FIXPVA
         76        60       FIXPVA
         77        60       FIXPVA
         78        60       FIXPVA
         79        60       FIXPVA
         80        60       FIXPVA
         81        60       FIXPVA
         82        60       FIXPVA
         83        60       FIXPVA
         84        60       FIXPVA
         85        60       FIXPVA
         86        60       FIXPVA
         87        60       FIXPVA
         88        60       FIXPVA
         89        60       FIXPVA
         90        60       FIXPVA
         91        60       FIXPVA
         92        60       FIXPVA
         93        60       FIXPVA
         94        60       FIXPVA
         95        60       FIXPVA
         96        60       FIXPVA
         97        60       FIXPVA
         98        60       FIXPVA
         99        60       FIXPVA
        100        60       FIXPVA
        101        60       FIXPVA
        102        60       FIXPVA
        103        60       FIXPVA
        104        60       FIXPVA
        105        60       FIXPVA
        106        60       FIXPVA
        107        60       FIXPVA
        108        60       FIXPVA
        109        60       FIXPVA
        110        60       FIXPVA
        111        60       FIXPVA
        112        60       FIXPVA
        113        60       FIXPVA
        114        60       FIXPVA
        115        60       FIXPVA
        116        60       FIXPVA
        117        60       FIXPVA
        118        60       FIXPVA
        119        60       FIXPVA
        120        60       FIXPVA
        121        60       FIXPVA
        122        60       FIXPVA
        123        60       FIXPVA
        124        60       FIXPVA
        125        60       FIXPVA
        126        60       FIXPVA
        127        60       FIXPVA
        128        60       FIXPVA
        129        60       FIXPVA
        130        60       FIXPVA
        131        60       FIXPVA
        132        60       FIXPVA
        133        60       FIXPVA
        134        60       FIXPVA
        135        60       FIXPVA
        136        60       FIXPVA
        137        60       FIXPVA
        138        60       FIXPVA
        139        60       FIXPVA
        140        60       FIXPVA
        141        60       FIXPVA
        142        60       FIXPVA
        143        60       FIXPVA
        144        60       FIXPVA
        145        60       FIXPVA
        146        60       FIXPVA
        147        60       FIXPVA
        148        60       FIXPVA
        149        60       FIXPVA
        150        60       FIXPVA
        151        60       FIXPVA
        152        60       FIXPVA
        153        60       FIXPVA
        154        60       FIXPVA
        155        60       FIXPVA
        156        60       FIXPVA
        157        60       FIXPVA
        158        60       FIXPVA
        159        60       FIXPVA
        160        60       FIXPVA
        161        60       FIXPVA
        162        60       FIXPVA
        163        60       FIXPVA
        164        60       FIXPVA
        165        60       FIXPVA
        166        60       FIXPVA
        167        60       FIXPVA
        168        60       FIXPVA
        169        60       FIXPVA
        170        60       FIXPVA
        171        60       FIXPVA
        172        60       FIXPVA
        173        60       FIXPVA
        174        60       FIXPVA
        175        60       FIXPVA
        176        60       FIXPVA
        177        60       FIXPVA
        178        60       FIXPVA
        179        60       FIXPVA
        180        60       FIXPVA
        181        60       FIXPVA
        182        60       FIXPVA
        183        60       FIXPVA
        184        60       FIXPVA
        185        60       FIXPVA
        186        60       FIXPVA
        187        60       FIXPVA
        188        60       FIXPVA
        189        60       FIXPVA
        190        60       FIXPVA
        191        60       FIXPVA
        192        60       FIXPVA
        193        60       FIXPVA
        194        60       FIXPVA
        195        60       FIXPVA
        196        60       FIXPVA
        197        60       FIXPVA
        198        60       FIXPVA
        199        60       FIXPVA
        200        60       FIXPVA
        201        60       FIXPVA
        202        60       FIXPVA
        203        60       FIXPVA
        204        60       FIXPVA
        205        60       FIXPVA
        206        60       FIXPVA
        207        60       FIXPVA
        208        60       FIXPVA
        209        60       FIXPVA
        210        60       FIXPVA
        211        60       FIXPVA
        212        60       FIXPVA
        213        60       FIXPVA
        214        60       FIXPVA
        215        60       FIXPVA
        216        60       FIXPVA
        217        60       FIXPVA
        218        60       FIXPVA
        219        60       FIXPVA
        220        60       FIXPVA
        221        60       FIXPVA
        222        60       FIXPVA
        223        60       FIXPVA
        224        60       FIXPVA
        225        60       FIXPVA
        226        60       FIXPVA
        227        60       FIXPVA
        228        60       FIXPVA
        229        60       FIXPVA
        230        60       FIXPVA
        231        60       FIXPVA
        232        60       FIXPVA
        233        60       FIXPVA
        234        60       FIXPVA
        235        60       FIXPVA
        236        60       FIXPVA
        237        60       FIXPVA
        238        60       FIXPVA
        239        60       FIXPVA
        240        60       FIXPVA
        241        60       FIXPVA
        242        60       FIXPVA
        243        60       FIXPVA
        244        60       FIXPVA
        245        60       FIXPVA
        246        60       FIXPVA
        247        60       FIXPVA
        248        60       FIXPVA
        249        60       FIXPVA
        250        60       FIXPVA
        251        60       FIXPVA
        252        60       FIXPVA
        253        60       FIXPVA
        254        60       FIXPVA
        255        60       FIXPVA
        256        60       FIXPVA
        257        60       FIXPVA
        258        60       FIXPVA
        259        60       FIXPVA
        260        60       FIXPVA
        261        60       FIXPVA
        262        60       FIXPVA
        263        60       FIXPVA
        264        60       FIXPVA
        265        60       FIXPVA
        266        60       FIXPVA
        267        60       FIXPVA
        268        60       FIXPVA
        269        60       FIXPVA
        270        60       FIXPVA
        271        60       FIXPVA
        272        60       FIXPVA
        273        60       FIXPVA
        274        60       FIXPVA
        275        60       FIXPVA
        276        60       FIXPVA
        277        60       FIXPVA
        278        60       FIXPVA
        279        60       FIXPVA
        280        60       FIXPVA
        281        60       FIXPVA
        282        60       FIXPVA
        283        60       FIXPVA
        284        60       FIXPVA
        285        60       FIXPVA
        286        60       FIXPVA
        287        60       FIXPVA
        288        60       FIXPVA
        289        60       FIXPVA
        290        60       FIXPVA
        291        60       FIXPVA
        292        60       FIXPVA
        293        60       FIXPVA
        294        60       FIXPVA
        295        60       FIXPVA
        296        60       FIXPVA
        297        60       FIXPVA
        298        60       FIXPVA
        299        60       FIXPVA
        300        60       FIXPVA
        301        60       FIXPVA
        302        60       FIXPVA
        303        60       FIXPVA
        304        60       FIXPVA
        305        60       FIXPVA
        306        60       FIXPVA
        307        60       FIXPVA
        308        60       FIXPVA
        309        60       FIXPVA
        310        60       FIXPVA
        311        60       FIXPVA
        312        60       FIXPVA
        313        60       FIXPVA
        314        60       FIXPVA
        315        60       FIXPVA
        316        60       FIXPVA
        317        60       FIXPVA
        318        60       FIXPVA
        319        60       FIXPVA
        320        60       FIXPVA
        321        60       FIXPVA
        322        60       FIXPVA
        323        60       FIXPVA
        324        60       FIXPVA
        325        60       FIXPVA

     ------------------------------
      FIXPVA TESSELLATION FOR PCM
         PEIFENG SU AND HUI LI
     UNIVERSITY OF NEBRASKA-LINCOLN
     ------------------------------


 PCM DIMENSIONS: MXSP=   325, MXTS=     13000, MEMORY=        133578

     INPUT FOR CAVITY DEFINITION 
     ---------------------------
   ATOM               COORDINATES                RADIUS       EPS
      1     -5.2410     -1.6250      8.1200      0.0100     78.3900
      2     -6.1470     -1.2710      8.0240      1.5900     78.3900
      3     -6.2000     -0.0290      8.7450      1.7700     78.3900
      4     -5.4300      0.6650      8.3350      0.0100     78.3900
      5     -5.9580     -0.2170      9.8120      0.0100     78.3900
      6     -7.5710      0.6530      8.6840      1.7700     78.3900
      7     -7.5770      1.5870      9.2830      0.0100     78.3900
      8     -7.8830      1.0160      7.3080      1.5900     78.3900
      9     -9.2700      0.8120      7.0760      1.7700     78.3900
     10     -9.6700      1.7810      6.6990      0.0100     78.3900
     11     -9.4990     -0.2210      6.0550      1.6800     78.3900
     12    -10.6580     -0.4230      5.3590      1.7700     78.3900
     13    -13.9380      0.4440      4.6880      1.6800     78.3900
     14    -14.1060      1.1870      5.3330      0.0100     78.3900
     15    -14.6790      0.1490      4.0780      0.0100     78.3900
     16    -11.7950      0.2760      5.5070      1.6800     78.3900
     17    -12.7500     -0.1260      4.6740      1.7700     78.3900
     18    -12.5710     -1.1280      3.7560      1.6800     78.3900
     19    -13.3430     -1.3620      3.1520      0.0100     78.3900
     20    -11.4020     -1.8540      3.5650      1.7700     78.3900
     21    -11.3280     -2.7360      2.7020      1.5900     78.3900
     22    -10.3910     -1.4560      4.4810      1.7700     78.3900
     23     -9.0900     -1.9180      4.6440      1.6800     78.3900
     24     -8.5970     -1.1520      5.5910      1.7700     78.3900
     25     -7.5840     -1.2070      5.9960      0.0100     78.3900
     26     -9.9080      0.4730      8.4040      1.7700     78.3900
     27    -10.7870     -0.1970      8.3000      0.0100     78.3900
     28    -10.2860      1.6610      9.0690      1.5900     78.3900
     29    -10.5120      1.3980      9.9700      0.0100     78.3900
     30     -8.7570     -0.2160      9.1300      1.7700     78.3900
     31     -8.5890     -1.2270      8.7020      0.0100     78.3900
     32     -8.8520     -0.2230     10.5730      1.5900     78.3900
     33     -9.5790     -1.4180     11.3050      2.1000     78.3900
     34     -8.9820     -2.6970     10.8590      1.5900     78.3900
     35     -9.5740     -1.1530     12.7580      1.5900     78.3900
     36    -11.0610     -1.3340     10.7750      1.5900     78.3900
     37    -11.9370     -0.2790     11.2570      1.7700     78.3900
     38    -11.5330      0.7320     11.0240      0.0100     78.3900
     39    -12.0470     -0.3380     12.3660      0.0100     78.3900
     40    -13.3470     -0.3860     10.6530      1.7700     78.3900
     41    -14.0070      0.4260     11.0240      0.0100     78.3900
     42    -13.2950     -0.2680      9.2040      1.5900     78.3900
     43    -14.2510     -1.1540      8.6280      1.7700     78.3900
     44    -14.9330     -0.4970      8.0380      0.0100     78.3900
     45    -13.6420     -2.1510      7.7060      1.6800     78.3900
     46    -12.3160     -2.4840      7.8400      1.7700     78.3900
     47    -11.7790     -1.9850      8.6480      0.0100     78.3900
     48    -11.7270     -3.3480      7.0040      1.7700     78.3900
     49    -10.6700     -3.5980      7.0750      0.0100     78.3900
     50    -14.4120     -2.7670      6.7210      1.7700     78.3900
     51    -15.6190     -2.4920      6.6320      1.5900     78.3900
     52    -13.8320     -3.6400      5.8640      1.6800     78.3900
     53    -12.5240     -3.9260      5.9750      1.7700     78.3900
     54    -11.9720     -4.7610      5.0990      1.6800     78.3900
     55    -12.5290     -5.1480      4.3590      0.0100     78.3900
     56    -10.9920     -4.9750      5.1120      0.0100     78.3900
     57    -15.0450     -1.7830      9.7610      1.7700     78.3900
     58    -15.3520     -2.8300      9.5470      0.0100     78.3900
     59    -16.1830     -0.9950     10.0550      1.5900     78.3900
     60    -16.6030     -1.3900     10.8360      0.0100     78.3900
     61    -14.0390     -1.7280     10.9070      1.7700     78.3900
     62    -13.2590     -2.5100     10.7680      0.0100     78.3900
     63    -14.6020     -1.7420     12.2440      1.5900     78.3900
     64    -15.0940     -3.1330     12.8120      2.1000     78.3900
     65    -14.1740     -4.1860     12.3410      1.5900     78.3900
     66    -15.2910     -3.0080     14.2720      1.5900     78.3900
     67    -16.5060     -3.3360     12.1390      1.5900     78.3900
     68    -17.2200     -4.5840     12.3380      1.7700     78.3900
     69    -17.7130     -4.5920     13.3390      0.0100     78.3900
     70    -16.5280     -5.4600     12.3060      0.0100     78.3900
     71    -18.3000     -4.7710     11.2510      1.7700     78.3900
     72    -19.0980     -4.0020     11.3570      0.0100     78.3900
     73    -17.7010     -4.6700      9.9190      1.5900     78.3900
     74    -17.5960     -5.9620      9.3450      1.7700     78.3900
     75    -18.4050     -5.9770      8.5740      0.0100     78.3900
     76    -16.2640     -6.2080      8.7400      1.6800     78.3900
     77    -15.1320     -5.9460      9.4780      1.7700     78.3900
     78    -15.2870     -5.4980     10.4640      0.0100     78.3900
     79    -13.9120     -6.1730      8.9690      1.7700     78.3900
     80    -13.0020     -5.9440      9.5150      0.0100     78.3900
     81    -16.1510     -6.7950      7.4810      1.7700     78.3900
     82    -17.1820     -7.1230      6.8730      1.5900     78.3900
     83    -14.9300     -7.0120      6.9500      1.6800     78.3900
     84    -13.8260     -6.7390      7.6640      1.7700     78.3900
     85    -12.6350     -6.9900      7.1150      1.6800     78.3900
     86    -12.6040     -7.2880      6.1650      0.0100     78.3900
     87    -11.7770     -6.7350      7.5620      0.0100     78.3900
     88    -17.9340     -6.9750     10.4180      1.7700     78.3900
     89    -17.0390     -7.2510     11.0200      0.0100     78.3900
     90    -18.5220     -8.1250      9.8530      1.5900     78.3900
     91    -18.0900     -8.2380      9.0020      0.0100     78.3900
     92    -18.9080     -6.1860     11.2720      1.7700     78.3900
     93    -18.8310     -6.5620     12.3190      0.0100     78.3900
     94    -20.2530     -6.1970     10.7580      1.5900     78.3900
     95    -21.4860     -6.7170     11.5700      2.1000     78.3900
     96    -22.1990     -5.5320     12.0930      1.5900     78.3900
     97    -22.2820     -7.6030     10.6900      1.5900     78.3900
     98    -20.9170     -7.5340     12.7940      1.5900     78.3900
     99    -21.3510     -8.8840     13.0460      1.7700     78.3900
    100    -21.2000     -9.5330     12.1550      0.0100     78.3900
    101    -22.4350     -8.8860     13.3090      0.0100     78.3900
    102    -20.5560     -9.4790     14.2100      1.7700     78.3900
    103    -20.5400     -8.8000     15.0870      0.0100     78.3900
    104    -21.2110    -10.7100     14.6360      1.5900     78.3900
    105    -20.2320    -11.7070     14.9120      1.7700     78.3900
    106    -20.4490    -12.0890     15.9380      0.0100     78.3900
    107    -20.2860    -12.8330     13.9270      1.6800     78.3900
    108    -21.0660    -12.7570     12.7900      1.7700     78.3900
    109    -21.6010    -11.8180     12.6330      0.0100     78.3900
    110    -19.5740    -13.9800     14.2070      1.7700     78.3900
    111    -18.8940    -14.1070     15.2200      1.5900     78.3900
    112    -19.6930    -14.9840     13.2800      1.6800     78.3900
    113    -19.2230    -15.8420     13.5110      0.0100     78.3900
    114    -20.4980    -14.9980     12.1620      1.7700     78.3900
    115    -20.5630    -16.0030     11.4550      1.5900     78.3900
    116    -21.2050    -13.7770     11.9310      1.7700     78.3900
    117    -21.8490    -13.7070     11.0580      0.0100     78.3900
    118    -18.8850    -11.0060     14.9150      1.7700     78.3900
    119    -18.0700    -11.6880     14.5910      0.0100     78.3900
    120    -18.5970    -10.4860     16.2050      1.5900     78.3900
    121    -17.8290     -9.8830     16.1210      0.0100     78.3900
    122    -19.1170     -9.9010     13.8780      1.7700     78.3900
    123    -19.1490    -10.3260     12.8520      0.0100     78.3900
    124    -18.2380     -8.7620     13.9210      1.5900     78.3900
    125    -16.6970     -8.8460     14.1700      2.1000     78.3900
    126    -16.0110     -7.8020     13.3860      1.5900     78.3900
    127    -16.5250     -8.8370     15.6420      1.5900     78.3900
    128    -16.2550    -10.2530     13.6400      1.5900     78.3900
    129    -15.1320    -10.9440     14.2390      1.7700     78.3900
    130    -15.4240    -11.3940     15.2180      0.0100     78.3900
    131    -14.2780    -10.2510     14.4370      0.0100     78.3900
    132    -14.6280    -12.0480     13.2990      1.7700     78.3900
    133    -13.7640    -12.5920     13.7360      0.0100     78.3900
    134    -15.6830    -13.0250     13.0710      1.5900     78.3900
    135    -15.6440    -13.4530     11.7160      1.7700     78.3900
    136    -15.5270    -14.5610     11.7330      0.0100     78.3900
    137    -16.8880    -13.1110     11.0180      1.6800     78.3900
    138    -17.4500    -13.7940      9.9760      1.7700     78.3900
    139    -17.3890    -16.4030      7.7070      1.6800     78.3900
    140    -17.9790    -16.7960      7.0050      0.0100     78.3900
    141    -16.5410    -16.8670      7.9550      0.0100     78.3900
    142    -16.9540    -14.9020      9.3980      1.6800     78.3900
    143    -17.7330    -15.3430      8.4110      1.7700     78.3900
    144    -18.9270    -14.7590      8.0720      1.6800     78.3900
    145    -19.4660    -15.1800      7.3380      0.0100     78.3900
    146    -19.4760    -13.6350      8.6760      1.7700     78.3900
    147    -20.5670    -13.1710      8.3300      1.5900     78.3900
    148    -18.6230    -13.1210      9.6870      1.7700     78.3900
    149    -18.7740    -12.0120     10.5080      1.6800     78.3900
    150    -17.7180    -12.0480     11.2810      1.7700     78.3900
    151    -17.4860    -11.3340     12.0700      0.0100     78.3900
    152    -14.4290    -12.8320     11.0600      1.7700     78.3900
    153    -14.6030    -12.5660      9.9930      0.0100     78.3900
    154    -13.3120    -13.7020     11.1590      1.5900     78.3900
    155    -12.5650    -13.2230     10.7670      0.0100     78.3900
    156    -14.2400    -11.5670     11.8910      1.7700     78.3900
    157    -14.9890    -10.7970     11.6000      0.0100     78.3900
    158    -12.9010    -11.0390     11.9010      1.5900     78.3900
    159    -12.3960    -10.1810     10.6800      2.1000     78.3900
    160    -13.4540     -9.2060     10.3340      1.5900     78.3900
    161    -11.0510     -9.6580     11.0150      1.5900     78.3900
    162    -12.2440    -11.2380      9.5090      1.5900     78.3900
    163    -12.4630    -10.8040      8.1410      1.7700     78.3900
    164    -11.6630    -10.0890      7.8390      0.0100     78.3900
    165    -13.4340    -10.2710      8.0350      0.0100     78.3900
    166    -12.4680    -11.9880      7.1460      1.7700     78.3900
    167    -11.5050    -12.5370      7.2090      0.0100     78.3900
    168    -13.5250    -12.9550      7.4640      1.5900     78.3900
    169    -14.1830    -13.3650      6.2630      1.7700     78.3900
    170    -14.2030    -14.4750      6.3000      0.0100     78.3900
    171    -15.5750    -12.8670      6.1270      1.6800     78.3900
    172    -16.2250    -11.8860      6.8340      1.7700     78.3900
    173    -16.1110     -9.5480      9.3470      1.6800     78.3900
    174    -16.7270     -9.0710      9.9680      0.0100     78.3900
    175    -15.1340     -9.6130      9.5840      0.0100     78.3900
    176    -15.7070    -11.1640      7.8270      1.6800     78.3900
    177    -16.5390    -10.3180      8.3620      1.7700     78.3900
    178    -17.8270    -10.1560      7.9050      1.6800     78.3900
    179    -18.4800     -9.6140      8.4400      0.0100     78.3900
    180    -18.4030    -10.8690      6.8610      1.7700     78.3900
    181    -19.5640    -10.6520      6.5060      1.5900     78.3900
    182    -17.4910    -11.8050      6.3010      1.7700     78.3900
    183    -17.6510    -12.7200      5.2720      1.6800     78.3900
    184    -16.4840    -13.3170      5.1970      1.7700     78.3900
    185    -16.2260    -14.1030      4.4840      0.0100     78.3900
    186    -13.3310    -12.9010      5.1120      1.7700     78.3900
    187    -13.9300    -12.6730      4.2020      0.0100     78.3900
    188    -12.3440    -13.8720      4.8120      1.5900     78.3900
    189    -11.7310    -13.4630      4.1830      0.0100     78.3900
    190    -12.7120    -11.6190      5.6710      1.7700     78.3900
    191    -13.4640    -10.7990      5.6730      0.0100     78.3900
    192    -11.4720    -11.2250      5.0510      1.5900     78.3900
    193    -11.4420    -10.5520      3.6270      2.1000     78.3900
    194    -12.1070     -9.2410      3.7570      1.5900     78.3900
    195    -10.0360    -10.5940      3.1520      1.5900     78.3900
    196    -12.2880    -11.5070      2.7020      1.5900     78.3900
    197    -12.9350    -11.0100      1.5090      1.7700     78.3900
    198    -12.1680    -10.6640      0.7780      0.0100     78.3900
    199    -13.6040    -10.1520      1.7400      0.0100     78.3900
    200    -13.7590    -12.1350      0.8490      1.7700     78.3900
    201    -13.1620    -13.0730      0.8520      0.0100     78.3900
    202    -15.0160    -12.3750      1.5470      1.5900     78.3900
    203    -16.1080    -11.9550      0.7320      1.7700     78.3900
    204    -16.5560    -12.9000      0.3480      0.0100     78.3900
    205    -17.1260    -11.1730      1.4590      1.6800     78.3900
    206    -16.9260    -10.3040      2.4970      1.7700     78.3900
    207    -14.7490     -8.7270      4.6430      1.6800     78.3900
    208    -14.7790     -8.0920      5.4160      0.0100     78.3900
    209    -13.8630     -9.0150      4.2570      0.0100     78.3900
    210    -15.7470    -10.0100      3.0580      1.6800     78.3900
    211    -15.8370     -9.1420      4.0340      1.7700     78.3900
    212    -17.0250     -8.5820      4.4310      1.6800     78.3900
    213    -17.0260     -7.9580      5.2220      0.0100     78.3900
    214    -18.2660     -8.8490      3.8580      1.7700     78.3900
    215    -19.3050     -8.3040      4.2450      1.5900     78.3900
    216    -18.1700     -9.8000      2.8090      1.7700     78.3900
    217    -19.1500    -10.3310      1.9740      1.6800     78.3900
    218    -18.4730    -11.1290      1.1730      1.7700     78.3900
    219    -18.9030    -11.7210      0.3610      0.0100     78.3900
    220    -15.5530    -11.1690     -0.4210      1.7700     78.3900
    221    -15.4320    -10.0940     -0.1510      0.0100     78.3900
    222    -16.4190    -11.3330     -1.5350      1.5900     78.3900
    223    -16.2200    -10.7220     -2.2660      0.0100     78.3900
    224    -14.1780    -11.8210     -0.5980      1.7700     78.3900
    225    -13.4600    -11.0630     -0.9830      0.0100     78.3900
    226    -14.2210    -13.0040     -1.4150      1.5900     78.3900
    227    -13.1380    -13.3660     -2.4820      2.1000     78.3900
    228    -11.9790    -13.9580     -1.7750      1.5900     78.3900
    229    -13.7830    -14.1850     -3.5370      1.5900     78.3900
    230    -12.6740    -11.9990     -3.1320      1.5900     78.3900
    231    -13.5000    -11.2370     -4.0370      1.7700     78.3900
    232    -14.4410    -11.7700     -4.3120      0.0100     78.3900
    233    -12.9210    -11.0830     -4.9780      0.0100     78.3900
    234    -13.8820     -9.8710     -3.4460      1.7700     78.3900
    235    -14.5670    -10.0070     -2.5940      0.0100     78.3900
    236    -12.7200     -9.1560     -2.9550      1.5900     78.3900
    237    -12.5000     -8.0100     -3.7520      1.7700     78.3900
    238    -12.8740     -7.1460     -3.1560      0.0100     78.3900
    239    -11.0810     -7.8540     -4.0470      1.6800     78.3900
    240     -9.0780     -7.0150     -4.3710      1.7700     78.3900
    241     -8.9390     -8.3970     -4.4780      1.6800     78.3900
    242    -10.1580     -8.8460     -4.2810      1.7700     78.3900
    243    -10.4520     -9.9010     -4.2790      0.0100     78.3900
    244     -8.6110     -4.6910     -4.2700      1.6800     78.3900
    245     -9.9150     -4.5240     -4.0210      1.7700     78.3900
    246    -10.2290     -3.4820     -3.8900      0.0100     78.3900
    247    -10.8900     -5.4330     -3.9300      1.6800     78.3900
    248    -10.3950     -6.6710     -4.1080      1.7700     78.3900
    249     -8.1470     -5.9560     -4.4460      1.7700     78.3900
    250     -6.8350     -6.1320     -4.6870      1.6800     78.3900
    251     -6.4290     -7.0410     -4.8220      0.0100     78.3900
    252     -6.2240     -5.3370     -4.7000      0.0100     78.3900
    253    -13.3450     -8.1600     -4.9940      1.7700     78.3900
    254    -12.8270     -8.7840     -5.7560      0.0100     78.3900
    255    -13.7130     -6.9120     -5.5380      1.5900     78.3900
    256    -14.3320     -6.5000     -4.9120      0.0100     78.3900
    257    -14.5500     -8.9130     -4.4390      1.7700     78.3900
    258    -14.9880     -9.5150     -5.2750      0.0100     78.3900
    259    -15.5280     -8.0620     -3.7780      1.5900     78.3900
    260    -17.0490     -8.4220     -3.9610      2.1000     78.3900
    261    -17.4730     -7.9680     -5.3070      1.5900     78.3900
    262    -17.2150     -9.8620     -3.6580      1.5900     78.3900
    263    -17.7770     -7.5670     -2.8530      1.5900     78.3900
    264    -19.2330     -7.5660     -2.8240      1.7700     78.3900
    265    -19.6400     -8.6030     -2.8160      0.0100     78.3900
    266    -19.6430     -7.0430     -3.7200      0.0100     78.3900
    267    -19.7980     -6.8730     -1.5730      1.7700     78.3900
    268    -20.9070     -6.9080     -1.5640      0.0100     78.3900
    269    -19.3440     -7.5720     -0.3850      1.5900     78.3900
    270    -19.0670     -6.6370      0.6460      1.7700     78.3900
    271    -19.6570     -6.9530      1.5350      0.0100     78.3900
    272    -17.6410     -6.6510      0.9940      1.6800     78.3900
    273    -17.0510     -5.9840      2.0330      1.7700     78.3900
    274    -17.2690     -3.8230      4.7380      1.6800     78.3900
    275    -18.2450     -3.6100      4.7710      0.0100     78.3900
    276    -16.6530     -3.3980      5.4070      0.0100     78.3900
    277    -17.6770     -5.1830      2.9160      1.6800     78.3900
    278    -16.8400     -4.6630      3.8120      1.7700     78.3900
    279    -15.5020     -4.9460      3.8370      1.6800     78.3900
    280    -14.9400     -4.5120      4.5530      0.0100     78.3900
    281    -14.8290     -5.7760      2.9500      1.7700     78.3900
    282    -13.6130     -5.9570      3.0590      1.5900     78.3900
    283    -15.7100     -6.3130      1.9700      1.7700     78.3900
    284    -15.4610     -7.1690      0.9020      1.6800     78.3900
    285    -16.6390     -7.3450      0.3520      1.7700     78.3900
    286    -16.8570     -7.9670     -0.5230      0.0100     78.3900
    287    -19.5230     -5.2740      0.1630      1.7700     78.3900
    288    -18.8910     -4.4460      0.5490      0.0100     78.3900
    289    -20.8700     -5.0480      0.5330      1.5900     78.3900
    290    -21.1660     -4.2700      0.0450      0.0100     78.3900
    291    -19.3610     -5.4230     -1.3460      1.7700     78.3900
    292    -18.2780     -5.3930     -1.6040      0.0100     78.3900
    293    -20.1760     -4.5250     -2.1320      1.5900     78.3900
    294    -19.4930     -3.3760     -2.9640      2.1000     78.3900
    295    -18.1700     -3.8000     -3.4640      1.5900     78.3900
    296    -20.4550     -2.8640     -3.9630      1.5900     78.3900
    297    -19.2570     -2.2510     -1.8890      1.5900     78.3900
    298    -20.3970     -1.6090     -1.2730      1.7700     78.3900
    299    -21.1080     -2.3550     -0.8490      0.0100     78.3900
    300    -20.9500     -1.0020     -2.0260      0.0100     78.3900
    301    -19.9560     -0.6630     -0.1510      1.7700     78.3900
    302    -20.8160     -0.0810      0.2410      0.0100     78.3900
    303    -19.4220     -1.4350      0.9590      1.5900     78.3900
    304    -18.3100     -0.7440      1.5160      1.7700     78.3900
    305    -18.5430     -0.6110      2.5980      0.0100     78.3900
    306    -17.0410     -1.5080      1.3770      1.6800     78.3900
    307    -16.9330     -2.5110      0.4380      1.7700     78.3900
    308    -17.8270     -2.7170     -0.1530      0.0100     78.3900
    309    -15.8030     -3.2110      0.2890      1.7700     78.3900
    310    -15.7090     -4.0200     -0.4320      0.0100     78.3900
    311    -15.9440     -1.1880      2.1700      1.7700     78.3900
    312    -16.0390     -0.2640      2.9910      1.5900     78.3900
    313    -14.7920     -1.8810      2.0320      1.6800     78.3900
    314    -14.7010     -2.8640      1.1200      1.7700     78.3900
    315    -13.5560     -3.5270      1.0070      1.6800     78.3900
    316    -12.7890     -3.3020      1.6140      0.0100     78.3900
    317    -13.4520     -4.3020      0.3810      0.0100     78.3900
    318    -18.2400      0.6250      0.8520      1.7700     78.3900
    319    -17.1950      0.9890      0.7590      0.0100     78.3900
    320    -19.0150      1.5660      1.5810      1.5900     78.3900
    321    -19.0820      2.3840      1.0580      0.0100     78.3900
    322    -18.8340      0.3230     -0.5190      1.7700     78.3900
    323    -18.0880     -0.2010     -1.1580      0.0100     78.3900
    324    -19.3800      1.4670     -1.1990      1.5900     78.3900
    325    -18.6680      2.0800     -1.4600      0.0100     78.3900

 CREATION OF A NEW CAVITY WITH THE ORIGINAL SPHERE
 SIZES FOR THE COMPUTATION OF THE CAVITATION ENERGY.

     INPUT FOR CAVITY DEFINITION 
     ---------------------------
   ATOM               COORDINATES                RADIUS       EPS
      1     -5.2410     -1.6250      8.1200      0.0100     78.3900
      2     -6.1470     -1.2710      8.0240      1.5900     78.3900
      3     -6.2000     -0.0290      8.7450      1.7700     78.3900
      4     -5.4300      0.6650      8.3350      0.0100     78.3900
      5     -5.9580     -0.2170      9.8120      0.0100     78.3900
      6     -7.5710      0.6530      8.6840      1.7700     78.3900
      7     -7.5770      1.5870      9.2830      0.0100     78.3900
      8     -7.8830      1.0160      7.3080      1.5900     78.3900
      9     -9.2700      0.8120      7.0760      1.7700     78.3900
     10     -9.6700      1.7810      6.6990      0.0100     78.3900
     11     -9.4990     -0.2210      6.0550      1.6800     78.3900
     12    -10.6580     -0.4230      5.3590      1.7700     78.3900
     13    -13.9380      0.4440      4.6880      1.6800     78.3900
     14    -14.1060      1.1870      5.3330      0.0100     78.3900
     15    -14.6790      0.1490      4.0780      0.0100     78.3900
     16    -11.7950      0.2760      5.5070      1.6800     78.3900
     17    -12.7500     -0.1260      4.6740      1.7700     78.3900
     18    -12.5710     -1.1280      3.7560      1.6800     78.3900
     19    -13.3430     -1.3620      3.1520      0.0100     78.3900
     20    -11.4020     -1.8540      3.5650      1.7700     78.3900
     21    -11.3280     -2.7360      2.7020      1.5900     78.3900
     22    -10.3910     -1.4560      4.4810      1.7700     78.3900
     23     -9.0900     -1.9180      4.6440      1.6800     78.3900
     24     -8.5970     -1.1520      5.5910      1.7700     78.3900
     25     -7.5840     -1.2070      5.9960      0.0100     78.3900
     26     -9.9080      0.4730      8.4040      1.7700     78.3900
     27    -10.7870     -0.1970      8.3000      0.0100     78.3900
     28    -10.2860      1.6610      9.0690      1.5900     78.3900
     29    -10.5120      1.3980      9.9700      0.0100     78.3900
     30     -8.7570     -0.2160      9.1300      1.7700     78.3900
     31     -8.5890     -1.2270      8.7020      0.0100     78.3900
     32     -8.8520     -0.2230     10.5730      1.5900     78.3900
     33     -9.5790     -1.4180     11.3050      2.1000     78.3900
     34     -8.9820     -2.6970     10.8590      1.5900     78.3900
     35     -9.5740     -1.1530     12.7580      1.5900     78.3900
     36    -11.0610     -1.3340     10.7750      1.5900     78.3900
[...]
 ASC ITERATION=   6 CONVERGED TO  0.649589E+00
 ASC ITERATION=   7 CONVERGED TO  0.512802E+00
 ASC ITERATION=   8 CONVERGED TO  0.304977E+00
 ASC ITERATION=   9 CONVERGED TO  0.126547E+00
 ASC ITERATION=  10 CONVERGED TO  0.114044E+00
 ASC ITERATION=  11 CONVERGED TO  0.655119E-01
 ASC ITERATION=  12 CONVERGED TO  0.344280E-01
 ASC ITERATION=  13 CONVERGED TO  0.183388E-01
 ASC ITERATION=  14 CONVERGED TO  0.115002E-01
 ASC ITERATION=  15 CONVERGED TO  0.592497E-02
 ASC ITERATION=  16 CONVERGED TO  0.265250E-02
 ASC ITERATION=  17 CONVERGED TO  0.189947E-02
 ASC ITERATION=  18 CONVERGED TO  0.759473E-03
 ASC ITERATION=  19 CONVERGED TO  0.546022E-03
 ASC ITERATION=  20 CONVERGED TO  0.386086E-03
 ASC ITERATION=  21 CONVERGED TO  0.183954E-03
 ASC ITERATION=  22 CONVERGED TO  0.928939E-04
 ASC ITERATION=  23 CONVERGED TO  0.548141E-04
 ASC ITERATION=  24 CONVERGED TO  0.337383E-04
 ASC ITERATION=  25 CONVERGED TO  0.229770E-04
 ASC ITERATION=  26 CONVERGED TO  0.114056E-04
 ASC ITERATION=  27 CONVERGED TO  0.704864E-05
 ASC ITERATION=  28 CONVERGED TO  0.389541E-05
 ASC ITERATION=  29 CONVERGED TO  0.229295E-05
 ASC ITERATION=  30 CONVERGED TO  0.121629E-05
 ASC ITERATION=  31 CONVERGED TO  0.479275E-06
 ASC ITERATION=  32 CONVERGED TO  0.297361E-06
 ASC ITERATION=  33 CONVERGED TO  0.156500E-06
 ASC ITERATION=  34 CONVERGED TO  0.790435E-07
 ASC ITERATION=  35 CONVERGED TO  0.429209E-07
 ASC ITERATION=  36 CONVERGED TO  0.219201E-07
 ASC ITERATION=  37 CONVERGED TO  0.120449E-07
 ASC ITERATION=  38 CONVERGED TO  0.724481E-08
 ASC ITERATION=  39 CONVERGED TO  0.388671E-08
 ASC ITERATION=  40 CONVERGED TO  0.245715E-08
 ASC ITERATION=  41 CONVERGED TO  0.146040E-08
 ASC ITERATION=  42 CONVERGED TO  0.659237E-09
 ASC ITERATION=  43 CONVERGED TO  0.353861E-09
 ASC ITERATION=  44 CONVERGED TO  0.139886E-09
 ASC ITERATION=  45 CONVERGED TO  0.315000E-09
 ASC ITERATION=  46 CONVERGED TO  0.146249E-09
 ASC ITERATION=  47 CONVERGED TO  0.166264E-09
 ASC ITERATION=  48 CONVERGED TO  0.669446E-09
 ASC ITERATION=  49 CONVERGED TO  0.206057E-09
 ASC ITERATION=  50 CONVERGED TO  0.240738E-09
 ASC ITERATION=  51 CONVERGED TO  0.524980E-08
 ASC ITERATION=  52 CONVERGED TO  0.695328E-10

 THE ASC EQUATIONS FOR PHASE=1 CONVERGED IN  52 ITERATIONS.

 PCM ASC=      8.8219574810 normalised to=      8.8851894374
 Nuclear factor=   1.0027532339, electronic factor=   1.0027770340

 CPU     0: STEP CPU TIME=     0.29 TOTAL CPU TIME=        658.7 (     11.0 MIN)
 TOTAL WALL CLOCK TIME=       1370.5 SECONDS, CPU UTILIZATION IS    48.06%


 ------------------------------------------------------------------------------
 FMO iter  1.1,      0 fragment(s) converged, maxD 0.531803823 maxE************
 ------------------------------------------------------------------------------

 RHF      monomer      1 corr= NONE       , L1=   403, L0=   378 ID=      1


 AO spaces for     1     0     0 n-mer: L1=   403, L0=   378

 DIRECT SCF CALCULATION, SCHWRZ=T   FDIFF=T,  DIRTHR=  0.00E+00 NITDIR=10

                                                                                   NONZERO     BLOCKS
 ITER EX DEM     TOTAL ENERGY        E CHANGE  DENSITY CHANGE     ORB. GRAD      INTEGRALS    SKIPPED
   1  0  0    -1538.9352692343 -1538.9352692343   0.057128643   0.000000000     1041961225   21776734
          ---------------START SECOND ORDER SCF---------------
   2  1  0    -1538.9556386827    -0.0203694484   0.026483606   0.004693198      999252203   22834661
   3  2  0    -1538.9578376574    -0.0021989747   0.008533703   0.004176822      966865429   23284322
   4  3  0    -1538.9577720205     0.0000656369   0.003293561   0.000587787      918595873   23795065
   5  4  0    -1538.9575121199     0.0002599006   0.001030371   0.000402040      880480471   24161549
   6  5  0    -1538.9574936473     0.0000184727   0.000318840   0.000147128      838323303   24569325
   7  6  0    -1538.9575288178    -0.0000351705   0.000178024   0.000076326      790662059   24973281
   8  7  0    -1538.9575351003    -0.0000062826   0.000051280   0.000026866      755193602   25280910
   9  8  0    -1538.9575313242     0.0000037762   0.000019345   0.000011911      704599344   25721403
  10  9  0    -1538.9575299372     0.0000013870   0.000007747   0.000002581      666629729   26020931
  11 10  0    -1538.9575302450    -0.0000003078   0.000003501   0.000001039      602822968   26550495
  12 11  0    -1538.9575303856    -0.0000001406   0.000000607   0.000000311      553297178   26963963
  13 12  0    -1538.9575303998    -0.0000000143   0.000000229   0.000000156      503324796   27360588
  14 13  0    -1538.9575303913     0.0000000085   0.000000180   0.000000060      453363768   27765117
  15 14  0    -1538.9575303917    -0.0000000004   0.000000041   0.000000023      410850577   28104155

          -----------------
          DENSITY CONVERGED
          -----------------
     TIME TO FORM FOCK OPERATORS=      36.0 SECONDS (       2.4 SEC/ITER)
     FOCK TIME ON FIRST ITERATION=       4.0, LAST ITERATION=       1.2
     TIME TO SOLVE SCF EQUATIONS=       0.7 SECONDS (       0.0 SEC/ITER)

 FINAL RHF ENERGY IS    -1538.9575303917 AFTER  15 ITERATIONS
 ...... END OF RHF CALCULATION ......
 CPU     0: STEP CPU TIME=    56.16 TOTAL CPU TIME=        714.8 (     11.9 MIN)
 TOTAL WALL CLOCK TIME=       1488.7 SECONDS, CPU UTILIZATION IS    48.02%
 DONE PCM POT.
 CPU     0: STEP CPU TIME=     0.46 TOTAL CPU TIME=        715.3 (     11.9 MIN)
 TOTAL WALL CLOCK TIME=       1490.0 SECONDS, CPU UTILIZATION IS    48.01%

 Iter=  2 iFrag=      1 EFMO= -1597.643275351, DD= 0.065328335, DE=-0.490598407


 RHF      monomer      6 corr= NONE       , L1=   386, L0=   362 ID=      2


 AO spaces for     6     0     0 n-mer: L1=   386, L0=   362

 DIRECT SCF CALCULATION, SCHWRZ=T   FDIFF=T,  DIRTHR=  0.00E+00 NITDIR=10

                                                                                   NONZERO     BLOCKS
 ITER EX DEM     TOTAL ENERGY        E CHANGE  DENSITY CHANGE     ORB. GRAD      INTEGRALS    SKIPPED
   1  0  0    -1448.6763284760 -1448.6763284760   0.066177352   0.000000000      985528743   16914512
          ---------------START SECOND ORDER SCF---------------
   2  1  0    -1448.7037916794    -0.0274632034   0.026960915   0.004836337      952164037   17771614
   3  2  0    -1448.7074982436    -0.0037065641   0.010082246   0.006001423      921669812   18200136
   4  3  0    -1448.7080505469    -0.0005523033   0.003490722   0.000961516      879654245   18685645
   5  4  0    -1448.7079281765     0.0001223704   0.001959431   0.000394856      845915190   18998420
   6  5  0    -1448.7078818561     0.0000463204   0.000561632   0.000214577      812290415   19302640
   7  6  0    -1448.7079104403    -0.0000285842   0.000303065   0.000066304      767790273   19693464
   8  7  0    -1448.7079134683    -0.0000030280   0.000073940   0.000026884      736323453   19950508
   9  8  0    -1448.7079119197     0.0000015486   0.000024966   0.000009402      675603259   20463248
  10  9  0    -1448.7079109293     0.0000009904   0.000009212   0.000003449      638353392   20764434
  11 10  0    -1448.7079107573     0.0000001720   0.000004024   0.000001541      577928595   21283893
  12 11  0    -1448.7079108844    -0.0000001271   0.000001153   0.000000648      540001571   21607431
  13 12  0    -1448.7079109350    -0.0000000506   0.000000546   0.000000250      493919404   21961764
  14 13  0    -1448.7079109383    -0.0000000033   0.000000175   0.000000082      452394672   22282585
  15 14  0    -1448.7079109374     0.0000000009   0.000000091   0.000000021      407398764   22646855

          -----------------
          DENSITY CONVERGED
          -----------------
     TIME TO FORM FOCK OPERATORS=      33.4 SECONDS (       2.2 SEC/ITER)
     FOCK TIME ON FIRST ITERATION=       2.7, LAST ITERATION=       1.2
     TIME TO SOLVE SCF EQUATIONS=       0.6 SECONDS (       0.0 SEC/ITER)

 FINAL RHF ENERGY IS    -1448.7079109374 AFTER  15 ITERATIONS
 ...... END OF RHF CALCULATION ......
 CPU     0: STEP CPU TIME=    68.99 TOTAL CPU TIME=        784.3 (     13.1 MIN)
 TOTAL WALL CLOCK TIME=       1638.5 SECONDS, CPU UTILIZATION IS    47.87%
 DONE PCM POT.
 CPU     0: STEP CPU TIME=     0.39 TOTAL CPU TIME=        784.7 (     13.1 MIN)
 TOTAL WALL CLOCK TIME=       1639.6 SECONDS, CPU UTILIZATION IS    47.86%

 Iter=  2 iFrag=      6 EFMO= -1507.496296073, DD= 0.065775469, DE=-0.426259343


 RHF      monomer      9 corr= NONE       , L1=   386, L0=   362 ID=      3


 AO spaces for     9     0     0 n-mer: L1=   386, L0=   362

 DIRECT SCF CALCULATION, SCHWRZ=T   FDIFF=T,  DIRTHR=  0.00E+00 NITDIR=10

                                                                                   NONZERO     BLOCKS
 ITER EX DEM     TOTAL ENERGY        E CHANGE  DENSITY CHANGE     ORB. GRAD      INTEGRALS    SKIPPED
   1  0  0    -1452.1689462382 -1452.1689462382   0.067693698   0.000000000      912817999   17647727
          ---------------START SECOND ORDER SCF---------------
   2  1  0    -1452.1939744418    -0.0250282037   0.023635634   0.005871533      871733431   18560171
   3  2  0    -1452.1961554527    -0.0021810108   0.010224519   0.003669733      839635262   18959462
   4  3  0    -1452.1964122697    -0.0002568170   0.003667188   0.000410522      798133431   19366803
   5  4  0    -1452.1962969276     0.0001153420   0.000987821   0.000272103      766645727   19670142
   6  5  0    -1452.1963068217    -0.0000098941   0.000320680   0.000095853      723299443   20058782
   7  6  0    -1452.1963293882    -0.0000225665   0.000135212   0.000062036      693063416   20306781
   8  7  0    -1452.1963301829    -0.0000007948   0.000036231   0.000013814      656935669   20614843
   9  8  0    -1452.1963287790     0.0000014040   0.000016201   0.000009392      614699662   20961296
  10  9  0    -1452.1963284928     0.0000002861   0.000005948   0.000002932      573475570   21293234
  11 10  0    -1452.1963285330    -0.0000000402   0.000001971   0.000000870      521413080   21737135
  12 11  0    -1452.1963285899    -0.0000000569   0.000000619   0.000000283      481483000   22052184
  13 12  0    -1452.1963285933    -0.0000000034   0.000000251   0.000000076      432709567   22457527
  14 13  0    -1452.1963285872     0.0000000061   0.000000116   0.000000035      394125740   22758703

          -----------------
          DENSITY CONVERGED
          -----------------
     TIME TO FORM FOCK OPERATORS=      30.4 SECONDS (       2.2 SEC/ITER)
     FOCK TIME ON FIRST ITERATION=       3.3, LAST ITERATION=       1.4
     TIME TO SOLVE SCF EQUATIONS=       0.6 SECONDS (       0.0 SEC/ITER)

 FINAL RHF ENERGY IS    -1452.1963285872 AFTER  14 ITERATIONS
 ...... END OF RHF CALCULATION ......
 CPU     0: STEP CPU TIME=    66.38 TOTAL CPU TIME=        851.1 (     14.2 MIN)
 TOTAL WALL CLOCK TIME=       1774.1 SECONDS, CPU UTILIZATION IS    47.97%
 DONE PCM POT.
 CPU     0: STEP CPU TIME=     0.40 TOTAL CPU TIME=        851.5 (     14.2 MIN)
 TOTAL WALL CLOCK TIME=       1775.2 SECONDS, CPU UTILIZATION IS    47.96%

 Iter=  2 iFrag=      9 EFMO= -1507.453888277, DD= 0.078653741, DE=-0.453031379


 RHF      monomer      5 corr= NONE       , L1=   386, L0=   362 ID=      4


 AO spaces for     5     0     0 n-mer: L1=   386, L0=   362

 DIRECT SCF CALCULATION, SCHWRZ=T   FDIFF=T,  DIRTHR=  0.00E+00 NITDIR=10

                                                                                   NONZERO     BLOCKS
 ITER EX DEM     TOTAL ENERGY        E CHANGE  DENSITY CHANGE     ORB. GRAD      INTEGRALS    SKIPPED
   1  0  0    -1453.2913797453 -1453.2913797453   0.069411029   0.000000000      907036162   17740955
          ---------------START SECOND ORDER SCF---------------
   2  1  0    -1453.3157981154    -0.0244183701   0.030527500   0.005503124      872829429   18539719
   3  2  0    -1453.3179265195    -0.0021284042   0.009914779   0.005843071      837526369   18984367
   4  3  0    -1453.3182047409    -0.0002782213   0.004141676   0.001016794      803257004   19345318
   5  4  0    -1453.3179888408     0.0002159001   0.001536264   0.000522016      770517486   19648006
   6  5  0    -1453.3179353212     0.0000535195   0.000475142   0.000205412      738589059   19924800
   7  6  0    -1453.3179717343    -0.0000364130   0.000253246   0.000100025      705746541   20203204
   8  7  0    -1453.3179831968    -0.0000114625   0.000064784   0.000026987      674258221   20472272
   9  8  0    -1453.3179804535     0.0000027433   0.000026099   0.000012865      624869230   20880154
  10  9  0    -1453.3179792224     0.0000012311   0.000009819   0.000003258      593199987   21135044
  11 10  0    -1453.3179789603     0.0000002621   0.000004717   0.000001486      542229778   21571839
  12 11  0    -1453.3179790808    -0.0000001205   0.000001247   0.000000646      505585220   21869015
  13 12  0    -1453.3179791317    -0.0000000509   0.000000462   0.000000194      466278119   22170298
  14 13  0    -1453.3179791167     0.0000000150   0.000000200   0.000000081      426339652   22488490
  15 14  0    -1453.3179791069     0.0000000098   0.000000112   0.000000023      389387486   22777685

          -----------------
          DENSITY CONVERGED
          -----------------
     TIME TO FORM FOCK OPERATORS=      33.5 SECONDS (       2.2 SEC/ITER)
     FOCK TIME ON FIRST ITERATION=       3.2, LAST ITERATION=       1.2
     TIME TO SOLVE SCF EQUATIONS=       0.6 SECONDS (       0.0 SEC/ITER)

 FINAL RHF ENERGY IS    -1453.3179791069 AFTER  15 ITERATIONS
 ...... END OF RHF CALCULATION ......
 CPU     0: STEP CPU TIME=    59.43 TOTAL CPU TIME=        910.9 (     15.2 MIN)
 TOTAL WALL CLOCK TIME=       1894.2 SECONDS, CPU UTILIZATION IS    48.09%
 DONE PCM POT.
 CPU     0: STEP CPU TIME=     0.40 TOTAL CPU TIME=        911.3 (     15.2 MIN)
 TOTAL WALL CLOCK TIME=       1895.3 SECONDS, CPU UTILIZATION IS    48.08%

 Iter=  2 iFrag=      5 EFMO= -1507.534719949, DD= 0.079930519, DE=-0.437044216


 RHF      monomer      7 corr= NONE       , L1=   386, L0=   362 ID=      5


 AO spaces for     7     0     0 n-mer: L1=   386, L0=   362

 DIRECT SCF CALCULATION, SCHWRZ=T   FDIFF=T,  DIRTHR=  0.00E+00 NITDIR=10

                                                                                   NONZERO     BLOCKS
 ITER EX DEM     TOTAL ENERGY        E CHANGE  DENSITY CHANGE     ORB. GRAD      INTEGRALS    SKIPPED
   1  0  0    -1446.0476412584 -1446.0476412584   0.041881682   0.000000000      927271873   17442138
          ---------------START SECOND ORDER SCF---------------
   2  1  0    -1446.0738575159    -0.0262162575   0.026408913   0.005172511      887186818   18318804
   3  2  0    -1446.0763446499    -0.0024871340   0.008890687   0.004897148      858955754   18690865
   4  3  0    -1446.0768429091    -0.0004982593   0.002880549   0.000687832      819903005   19116418
   5  4  0    -1446.0767710457     0.0000718634   0.001154944   0.000499764      786609072   19417790
   6  5  0    -1446.0767158104     0.0000552353   0.000330400   0.000180240      752410222   19752523
   7  6  0    -1446.0767358469    -0.0000200365   0.000215977   0.000082011      712272196   20097735
   8  7  0    -1446.0767403125    -0.0000044657   0.000072800   0.000025671      684764079   20337326
   9  8  0    -1446.0767384177     0.0000018948   0.000017769   0.000011208      632255560   20798042
  10  9  0    -1446.0767371794     0.0000012383   0.000009119   0.000003137      598851813   21067587
  11 10  0    -1446.0767371372     0.0000000423   0.000002848   0.000001549      545839721   21520011
  12 11  0    -1446.0767372279    -0.0000000907   0.000000753   0.000000408      504194580   21864325
  13 12  0    -1446.0767372298    -0.0000000019   0.000000338   0.000000189      459806837   22225132
  14 13  0    -1446.0767372326    -0.0000000028   0.000000148   0.000000059      418441138   22554025

          -----------------
          DENSITY CONVERGED
          -----------------
     TIME TO FORM FOCK OPERATORS=      31.0 SECONDS (       2.2 SEC/ITER)
     FOCK TIME ON FIRST ITERATION=       3.1, LAST ITERATION=       1.2
     TIME TO SOLVE SCF EQUATIONS=       0.6 SECONDS (       0.0 SEC/ITER)

 FINAL RHF ENERGY IS    -1446.0767372326 AFTER  14 ITERATIONS
 ...... END OF RHF CALCULATION ......
 CPU     0: STEP CPU TIME=    63.47 TOTAL CPU TIME=        974.8 (     16.2 MIN)
 TOTAL WALL CLOCK TIME=       2024.7 SECONDS, CPU UTILIZATION IS    48.14%
 DONE PCM POT.
 CPU     0: STEP CPU TIME=     0.40 TOTAL CPU TIME=        975.2 (     16.3 MIN)
 TOTAL WALL CLOCK TIME=       2025.7 SECONDS, CPU UTILIZATION IS    48.14%

 Iter=  2 iFrag=      7 EFMO= -1507.425292680, DD= 0.051102443, DE=-0.450527945


 RHF      monomer      8 corr= NONE       , L1=   371, L0=   348 ID=      6


 AO spaces for     8     0     0 n-mer: L1=   371, L0=   348

 DIRECT SCF CALCULATION, SCHWRZ=T   FDIFF=T,  DIRTHR=  0.00E+00 NITDIR=10

                                                                                   NONZERO     BLOCKS
 ITER EX DEM     TOTAL ENERGY        E CHANGE  DENSITY CHANGE     ORB. GRAD      INTEGRALS    SKIPPED
   1  0  0    -1391.0852114672 -1391.0852114672   0.094433299   0.000000000      749280347   15403836
          ---------------START SECOND ORDER SCF---------------
   2  1  0    -1391.1059250196    -0.0207135525   0.027522365   0.004662914      729577977   16106785
   3  2  0    -1391.1078816490    -0.0019566294   0.012152806   0.004091046      709116713   16463304
   4  3  0    -1391.1075573381     0.0003243109   0.004097133   0.000760060      685820070   16756432
   5  4  0    -1391.1073613078     0.0001960303   0.001088416   0.000565598      663272044   17014929
   6  5  0    -1391.1073504786     0.0000108292   0.000374019   0.000219784      635057663   17302685
   7  6  0    -1391.1073724975    -0.0000220188   0.000256494   0.000092237      612924394   17502972
   8  7  0    -1391.1073682962     0.0000042012   0.000082941   0.000026354      584133606   17782102
   9  8  0    -1391.1073643763     0.0000039199   0.000026191   0.000008685      561685699   17975988
  10  9  0    -1391.1073640176     0.0000003587   0.000008129   0.000002811      524715824   18285036
  11 10  0    -1391.1073642381    -0.0000002206   0.000003549   0.000001199      485620992   18637690
  12 11  0    -1391.1073644607    -0.0000002225   0.000001068   0.000000571      457313450   18883524
  13 12  0    -1391.1073644636    -0.0000000030   0.000000492   0.000000173      414766895   19234839
  14 13  0    -1391.1073644539     0.0000000098   0.000000171   0.000000074      385823451   19482770
  15 14  0    -1391.1073644551    -0.0000000012   0.000000067   0.000000029      350455726   19786937

          -----------------
          DENSITY CONVERGED
          -----------------
     TIME TO FORM FOCK OPERATORS=      28.6 SECONDS (       1.9 SEC/ITER)
     FOCK TIME ON FIRST ITERATION=       2.8, LAST ITERATION=       1.2
     TIME TO SOLVE SCF EQUATIONS=       0.5 SECONDS (       0.0 SEC/ITER)

 FINAL RHF ENERGY IS    -1391.1073644551 AFTER  15 ITERATIONS
 ...... END OF RHF CALCULATION ......
 CPU     0: STEP CPU TIME=    48.29 TOTAL CPU TIME=       1023.5 (     17.1 MIN)
 TOTAL WALL CLOCK TIME=       2125.6 SECONDS, CPU UTILIZATION IS    48.15%
 DONE PCM POT.
 CPU     0: STEP CPU TIME=     0.35 TOTAL CPU TIME=       1023.8 (     17.1 MIN)
 TOTAL WALL CLOCK TIME=       2126.7 SECONDS, CPU UTILIZATION IS    48.14%

 Iter=  2 iFrag=      8 EFMO= -1432.634259705, DD= 0.109155237, DE=-0.439715198


 RHF      monomer      3 corr= NONE       , L1=   341, L0=   320 ID=      7


 AO spaces for     3     0     0 n-mer: L1=   341, L0=   320

 DIRECT SCF CALCULATION, SCHWRZ=T   FDIFF=T,  DIRTHR=  0.00E+00 NITDIR=10

                                                                                   NONZERO     BLOCKS
 ITER EX DEM     TOTAL ENERGY        E CHANGE  DENSITY CHANGE     ORB. GRAD      INTEGRALS    SKIPPED
