‘1ANR_4_fmo_input.inp’ -> ‘/scratch/hazwong/824216/./1ANR_4_fmo_input.inp’
‘rungms’ -> ‘/scratch/hazwong/824216/./rungms’
‘gms-files.csh’ -> ‘/scratch/hazwong/824216/./gms-files.csh’
----- GAMESS execution script 'rungms' -----
This job is running on host gollum065.lsa.umich.edu
under operating system Linux at Sat Dec 7 00:11:29 EST 2019
Available scratch disk space (Kbyte units) at beginning of the job is
Filesystem     1K-blocks  Used Available Use% Mounted on
/dev/sda4      426933580 33436 426900144   1% /scratch
GAMESS temporary binary files will be written to /scratch/hazwong/824216/1ANR_4/usrc
GAMESS supplementary output files will be written to /scratch/hazwong/824216/1ANR_4/src
Copying input file 1ANR_4_fmo_input.inp to your run's scratch directory...
cp 1ANR_4_fmo_input.inp /scratch/hazwong/824216/1ANR_4/usrc/1ANR_4_fmo_input.F05
unset echo
This is a GDDI run, keeping various output files on local disks
setenv OUTPUT /scratch/hazwong/824216/1ANR_4/usrc/1ANR_4_fmo_input.F06
setenv PUNCH /scratch/hazwong/824216/1ANR_4/usrc/1ANR_4_fmo_input.F07
unset echo
 
Assuming a single but multicore node.
 
/export/apps/CentOS7/gamess/src/build//ddikick.x /export/apps/CentOS7/gamess/src/build//gamess.R3.x 1ANR_4_fmo_input -ddi 1 16 gollum065.lsa.umich.edu:cpus=16 -scr /scratch/hazwong/824216/1ANR_4/usrc

 Distributed Data Interface kickoff program.
 Initiating 16 compute processes on 1 nodes to run the following command:
 /export/apps/CentOS7/gamess/src/build//gamess.R3.x 1ANR_4_fmo_input 

          ******************************************************
          *         GAMESS VERSION = 30 SEP 2018 (R3)         *
          *             FROM IOWA STATE UNIVERSITY             *
          * M.W.SCHMIDT, K.K.BALDRIDGE, J.A.BOATZ, S.T.ELBERT, *
          *   M.S.GORDON, J.H.JENSEN, S.KOSEKI, N.MATSUNAGA,   *
          *          K.A.NGUYEN, S.J.SU, T.L.WINDUS,           *
          *       TOGETHER WITH M.DUPUIS, J.A.MONTGOMERY       *
          *         J.COMPUT.CHEM.  14, 1347-1363(1993)        *
          **************** 64 BIT LINUX VERSION ****************

  SINCE 1993, STUDENTS AND POSTDOCS WORKING AT IOWA STATE UNIVERSITY
  AND ALSO IN THEIR VARIOUS JOBS AFTER LEAVING ISU HAVE MADE IMPORTANT
  CONTRIBUTIONS TO THE CODE:
     IVANA ADAMOVIC, CHRISTINE AIKENS, YURI ALEXEEV, POOJA ARORA,
     ANDREY ASADCHEV, ROB BELL, PRADIPTA BANDYOPADHYAY, JONATHAN BENTZ,
     BRETT BODE, KURT BRORSEN, CALEB CARLIN, GALINA CHABAN, WEI CHEN,
     CHEOL HO CHOI, PAUL DAY, ALBERT DEFUSCO, NUWAN DESILVA, TIM DUDLEY,
     DMITRI FEDOROV, ALEX FINDLATER, GRAHAM FLETCHER, MARK FREITAG,
     KURT GLAESEMANN, ANASTASIA GUNINA,
     DAN KEMP, GRANT MERRILL, NORIYUKI MINEZAWA, JONATHAN MULLIN,
     TAKESHI NAGATA, SEAN NEDD, HEATHER NETZLOFF, BOSILJKA NJEGIC, RYAN OLSON,
     MIKE PAK, BUU PHAM,
     SPENCER PRUITT, LUKE ROSKOP, JIM SHOEMAKER, LYUDMILA SLIPCHENKO,
     TONY SMITH, SAROM SOK LEANG, JIE SONG, TETSUYA TAKETSUGU, SIMON WEBB,
     PENG XU, SOOHAENG YOO, FEDERICO ZAHARIEV

  ADDITIONAL CODE HAS BEEN PROVIDED BY COLLABORATORS IN OTHER GROUPS:
     IOWA STATE UNIVERSITY:
          JOE IVANIC, AARON WEST, LAIMUTIS BYTAUTAS, KLAUS RUEDENBERG
     UNIVERSITY OF TOKYO: KIMIHIKO HIRAO, TAKAHITO NAKAJIMA,
          TAKAO TSUNEDA, MUNEAKI KAMIYA, SUSUMU YANAGISAWA,
          KIYOSHI YAGI, MAHITO CHIBA, SEIKEN TOKURA, NAOAKI KAWAKAMI
     UNIVERSITY OF AARHUS: FRANK JENSEN
     UNIVERSITY OF IOWA: VISVALDAS KAIRYS, HUI LI
     NATIONAL INST. OF STANDARDS AND TECHNOLOGY: WALT STEVENS, DAVID GARMER
     UNIVERSITY OF PISA: BENEDETTA MENNUCCI, JACOPO TOMASI
     UNIVERSITY OF MEMPHIS: HENRY KURTZ, PRAKASHAN KORAMBATH
     UNIVERSITY OF ALBERTA: TOBY ZENG, MARIUSZ KLOBUKOWSKI
     UNIVERSITY OF NEW ENGLAND: MARK SPACKMAN
     MIE UNIVERSITY: HIROAKI UMEDA
     NAT. INST. OF ADVANCED INDUSTRIAL SCIENCE AND TECHNOLOGY: KAZUO KITAURA
     MICHIGAN STATE UNIVERSITY:
          KAROL KOWALSKI, MARTA WLOCH, JEFFREY GOUR, JESSE LUTZ,
          WEI LI, JUN SHEN, J. EMILIANO DEUSTUA, PIOTR PIECUCH
     UNIVERSITY OF MINNESOTA:
          YINAN SHU
     UNIVERSITY OF SILESIA: MONIKA MUSIAL, STANISLAW KUCHARSKI
     FACULTES UNIVERSITAIRES NOTRE-DAME DE LA PAIX:
          OLIVIER QUINET, BENOIT CHAMPAGNE
     UNIVERSITY OF CALIFORNIA - SANTA BARBARA: BERNARD KIRTMAN
     INSTITUTE FOR MOLECULAR SCIENCE:
          KAZUYA ISHIMURA, MICHIO KATOUDA, AND SHIGERU NAGASE
     UNIVERSITY OF NOTRE DAME: ANNA POMOGAEVA, DAN CHIPMAN
     KYUSHU UNIVERSITY:
          HARUYUKI NAKANO,
          FENG LONG GU, JACEK KORCHOWIEC, MARCIN MAKOWSKI, AND YURIKO AOKI,
          HIROTOSHI MORI AND EISAKU MIYOSHI
     PENNSYLVANIA STATE UNIVERSITY:
          TZVETELIN IORDANOV, CHET SWALINA, JONATHAN SKONE,
          SHARON HAMMES-SCHIFFER
     WASEDA UNIVERSITY:
          MASATO KOBAYASHI, TOMOKO AKAMA, TSUGUKI TOUMA,
          TAKESHI YOSHIKAWA, YASUHIRO IKABATA, JUNJI SEINO,
          YUYA NAKAJIMA, HIROMI NAKAI
     NANJING UNIVERSITY: SHUHUA LI
     UNIVERSITY OF NEBRASKA:
          PEIFENG SU, DEJUN SI, NANDUN THELLAMUREGE, YALI WANG, HUI LI
     UNIVERSITY OF ZURICH: ROBERTO PEVERATI, KIM BALDRIDGE
     N. COPERNICUS UNIVERSITY AND JACKSON STATE UNIVERSITY:
          MARIA BARYSZ
     UNIVERSITY OF COPENHAGEN: Jimmy Kromann, CASPER STEINMANN
     TOKYO INSTITUTE OF TECHNOLOGY: HIROYA NAKATA
     NAGOYA UNIVERSITY: YOSHIO NISHIMOTO, STEPHAN IRLE
     MOSCOW STATE UNIVERSITY: VLADIMIR MIRONOV


 PARALLEL VERSION RUNNING ON       16 PROCESSORS IN        1 NODES.

 EXECUTION OF GAMESS BEGUN Sat Dec  7 00:11:29 2019

            ECHO OF THE FIRST FEW INPUT CARDS -
 INPUT CARD>!*** FMO 5.3 (Gamess) INPUT generated by Facio 22.1.1.32 ***                    
 INPUT CARD> $CONTRL RUNTYP=ENERGY NPRINT=-5 ISPHER=1 MAXIT=200 $END                        
 INPUT CARD> $SYSTEM MWORDS=63 MEMDDI=63 $END                                               
 INPUT CARD> $GDDI NGROUP=1 $END                                                            
 INPUT CARD> $SCF DIRSCF=.TRUE. NPUNCH=0 $END                                               
 INPUT CARD>!*** NumCPU : 2  MemPerNode : 512MB                                             
 INPUT CARD> $PCM SOLVNT=WATER IEF=-10 ICOMP=2 ICAV=1 IDISP=1 IFMO=-1 $END                  
 INPUT CARD> $PCMCAV RADII=SUAHF $END                                                       
 INPUT CARD> $TESCAV NTSALL=60 $END                                                         
 INPUT CARD> $FMOPRP                                                                        
 INPUT CARD>    NAODIR=200                                                                  
 INPUT CARD>    NGRFMO(1)=1, 1, 0, 0, 0,   0, 0, 0, 0, 0                                    
 INPUT CARD>    IPIEDA=1                                                                    
 INPUT CARD>    NPRINT=9                                                                    
 INPUT CARD> $END                                                                           
 INPUT CARD> $FMO                                                                           
 INPUT CARD>      SCFTYP(1)=RHF                                                             
 INPUT CARD>      MODGRD=10                                                                 
 INPUT CARD>      MODMUL=0                                                                  
 INPUT CARD>      MAXCAO=5                                                                  
 INPUT CARD>      MAXBND=12                                                                 
 INPUT CARD>      NLAYER=1                                                                  
 INPUT CARD>      MPLEVL(1)=2                                                               
 INPUT CARD>      NFRAG=10                                                                  
 INPUT CARD>      ICHARG(1)=-1, -1, -1, -1, -1, -1, -1, -1, -1, 0                           
 INPUT CARD>      FRGNAM(1)=F1, F2, F3, F4, F5, F6, F7, F8, F9, F10                         
 INPUT CARD>      indat(1)=0                                                                
 INPUT CARD>               1   -36   0                                                      
 INPUT CARD>               37   -67   0                                                     
 INPUT CARD>               68   -98   0                                                     
 INPUT CARD>               99   -128   0                                                    
 INPUT CARD>               129   -162   0                                                   
 INPUT CARD>               163   -196   0                                                   
 INPUT CARD>               197   -230   0                                                   
 INPUT CARD>               231   -263   0                                                   
 INPUT CARD>               264   -297   0                                                   
 INPUT CARD>               298   -325   0                                                   
 INPUT CARD> $END                                                                           
 INPUT CARD>                                                                                
 INPUT CARD> $FMOBND                                                                        
 INPUT CARD>   -37   36       6-31G*    MINI                                                
 INPUT CARD>   -68   67       6-31G*    MINI                                                
 INPUT CARD>   -99   98       6-31G*    MINI                                                
 INPUT CARD>   -129   128       6-31G*    MINI                                              
 INPUT CARD>   -163   162       6-31G*    MINI                                              
 INPUT CARD>   -197   196       6-31G*    MINI                                              
 INPUT CARD>   -231   230       6-31G*    MINI                                              
 INPUT CARD>   -264   263       6-31G*    MINI                                              
 INPUT CARD>   -298   297       6-31G*    MINI                                              
 INPUT CARD> $END                                                                           


 -------------------------------------------------------------
 GROUP DDI, PROGRAMMED BY: RYAN M. OLSON AND DMITRI G. FEDOROV
        FEDOROV ET AL., J. COMPUT. CHEM., 25 (2004) 872.
 -------------------------------------------------------------

 -------------------------------------------------------
 GDDI: INITIALIZATION COMPLETED FOR GROUP     1 OF     1
 WITH    16 PROCESSES BALTYP=DLB   global rank=        0
 -------------------------------------------------------

   63000000 WORDS OF MEMORY AVAILABLE


     RUN TITLE
     ---------
  FMO calculation                                                                

 THE POINT GROUP OF THE MOLECULE IS C1      
 THE ORDER OF THE PRINCIPAL AXIS IS     0

 ATOM   ATOMIC CHARGE
 H.1-1       1.0
 O.1-1       8.0
 C.1-1       6.0
 N.1-1       7.0
 P.1-1      15.0

     ATOMIC BASIS SET LIBRARY
     ----------------
 THE CONTRACTED PRIMITIVE FUNCTIONS HAVE BEEN UNNORMALIZED
 THE CONTRACTED BASIS FUNCTIONS ARE NOW NORMALIZED TO UNITY

  SHELL TYPE  PRIMITIVE        EXPONENT          CONTRACTION COEFFICIENT(S)

 H.1-1     

      1   S       1            18.7311370    0.033494604338
      1   S       2             2.8253944    0.234726953484
      1   S       3             0.6401217    0.813757326146

      2   S       4             0.1612778    1.000000000000

 O.1-1     

      3   S       5          5484.6716600    0.001831074430
      3   S       6           825.2349460    0.013950172200
      3   S       7           188.0469580    0.068445078098
      3   S       8            52.9645000    0.232714335992
      3   S       9            16.8975704    0.470192897984
      3   S      10             5.7996353    0.358520852987

      4   L      11            15.5396162   -0.110777549525    0.070874268231
      4   L      12             3.5999336   -0.148026262701    0.339752839147
      4   L      13             1.0137618    1.130767015354    0.727158577316

      5   L      14             0.2700058    1.000000000000    1.000000000000

      6   D      15             0.8000000    1.000000000000

 C.1-1     

      7   S      16          3047.5248800    0.001834737132
      7   S      17           457.3695180    0.014037322813
      7   S      18           103.9486850    0.068842622264
      7   S      19            29.2101553    0.232184443216
      7   S      20             9.2866630    0.467941348435
      7   S      21             3.1639270    0.362311985337

      8   L      22             7.8682723   -0.119332419775    0.068999066591
      8   L      23             1.8812885   -0.160854151696    0.316423960957
      8   L      24             0.5442493    1.143456437840    0.744308290898

      9   L      25             0.1687145    1.000000000000    1.000000000000

     10   D      26             0.8000000    1.000000000000

 N.1-1     

     11   S      27          4173.5114600    0.001834772160
     11   S      28           627.4579110    0.013994627002
     11   S      29           142.9020930    0.068586551812
     11   S      30            40.2343293    0.232240873040
     11   S      31            12.8202129    0.469069948082
     11   S      32             4.3904370    0.360455199063

     12   L      33            11.6263619   -0.114961181702    0.067579743878
     12   L      34             2.7162798   -0.169117478561    0.323907295893
     12   L      35             0.7722184    1.145851947027    0.740895139755

     13   L      36             0.2120315    1.000000000000    1.000000000000

     14   D      37             0.8000000    1.000000000000

 P.1-1     

     15   S      38         19413.3000000    0.001851598923
     15   S      39          2909.4200000    0.014206191735
     15   S      40           661.3640000    0.069999459277
     15   S      41           185.7590000    0.240078860331
     15   S      42            59.1943000    0.484761717984
     15   S      43            20.0310000    0.335199804993

     16   L      44           339.4780000   -0.002782170105    0.004564616191
     16   L      45            81.0101000   -0.036049901354    0.033693571881
     16   L      46            25.8780000   -0.116631004382    0.139754883368
     16   L      47             9.4522100    0.096832803638    0.339361716786
     16   L      48             3.6656600    0.614418023082    0.450920623685
     16   L      49             1.4674600    0.403798015170    0.238585800889

     17   L      50             2.1562300   -0.252924113863   -0.017765312733
     17   L      51             0.7489970    0.032851844678    0.274058196433
     17   L      52             0.2831450    1.081254761783    0.785421562957

     18   L      53             0.0998317    1.000000000000    1.000000000000

     19   D      54             0.5500000    1.000000000000

 TOTAL NUMBER OF BASIS SET SHELLS             =   19
 NUMBER OF CARTESIAN GAUSSIAN BASIS FUNCTIONS =   66

     $CONTRL OPTIONS
     ---------------
 SCFTYP=RHF          RUNTYP=ENERGY       EXETYP=RUN     
 MPLEVL=       0     CITYP =NONE         CCTYP =NONE         VBTYP =NONE    
 DFTTYP=NONE         TDDFT =NONE    
 MULT  =       1     ICHARG=       0     NZVAR =       0     COORD =UNIQUE  
 PP    =NONE         RELWFN=NONE         LOCAL =NONE         NUMGRD=       F
 ISPHER=       1     NOSYM =       0     MAXIT =     200     UNITS =ANGS    
 PLTORB=       F     MOLPLT=       F     AIMPAC=       F     FRIEND=        
 NPRINT=      -5     IREST =       0     GEOM  =INPUT   
 NORMF =       0     NORMP =       0     ITOL  =      24     ICUT  =      12
 INTTYP=BEST         GRDTYP=BEST         QMTTOL= 1.0E-06

     $SYSTEM OPTIONS
     ---------------
  REPLICATED MEMORY=    63000000 WORDS (ON EVERY NODE).
 DISTRIBUTED MEMDDI=          63 MILLION WORDS IN AGGREGATE,
 MEMDDI DISTRIBUTED OVER  16 PROCESSORS IS     3937500 WORDS/PROCESSOR.
 TOTAL MEMORY REQUESTED ON EACH PROCESSOR=    66937500 WORDS.
 TIMLIM=      525600.00 MINUTES, OR     365.0 DAYS.
 PARALL= T  BALTYP=  DLB     KDIAG=    0  COREFL= F
 MXSEQ2=     300 MXSEQ3=     150  mem10=         0

 ** LOOKING UP INTERNALLY STORED DATA FOR SOLVENT=WATER    **
 OPTICAL AND PHYSICAL CONSTANTS:
 EPS= 78.390; EPSINF=  1.776; RSOLV=  1.385 A; VMOL=  18.070 ML/MOL;
 TCE= .25700E-03 1/K; STEN= 71.810 DYN/CM;  DSTEN=  0.6500; CMF=  1.2770


     -----------------------------------
     INPUT FOR PCM SOLVATION CALCULATION 
     -----------------------------------
     IEF   =     -10
     ICOMP =       2     IFIELD=       0     ICAV  =       1
     IDISP =       1     IREP  =       0     IDP   =       0

     SOLVNT=WATER        EPS   = 78.3900     EPSINF=  1.7760
     VMOL  = 18.0700     TCE   =  0.00025700 STEN  = 71.8100
     DSTEN =  0.6500     CMF   =  1.2770     RSOLV =  1.3850

     NESFP =       0
     OMEGA = 40.0000     RET   =100.0000     FRO   =  0.7000

     TABS  =298.0000     IPRINT=       0

     --------------------------------
     INPUT FOR ITERATIVE C-PCM METHOD 
     --------------------------------
     IPCMIT  =         1     MXDIIS  =        50
     MXITR1  =       200     MXITR2  =       200
     THRES   = 0.100E-09     IMUL    =         3
     RCUT(1) =   20.0000     RCUT(2) =   50.0000

     IDIRCT  =         1
     IMGABI  =         0     RABI    =    4.0000
     IMGASC  =         0     RASC    =   20.0000
     THRSLS  = 0.500E-03     DENSLS  =    0.0100
     IEFPOL  =         1     REFPOL  =    0.0000

     INPUT FOR ISOTROPIC DIELECTRICS
     -------------------------------
     EPS=    78.39

          ----------------
          PROPERTIES INPUT
          ----------------

     MOMENTS            FIELD           POTENTIAL          DENSITY
 IEMOM =       1   IEFLD =       0   IEPOT =       0   IEDEN =       0
 WHERE =COMASS     WHERE =NUCLEI     WHERE =NUCLEI     WHERE =NUCLEI  
 OUTPUT=BOTH       OUTPUT=BOTH       OUTPUT=NONE       OUTPUT=BOTH    
 IEMINT=       0   IEFINT=       0                     IEDINT=       0
                                                       MORB  =       0
          EXTRAPOLATION IN EFFECT
          SOSCF IN EFFECT
 ORBITAL PRINTING OPTION: NPREO=     1 32767     2     1

     -------------------------------
     INTEGRAL TRANSFORMATION OPTIONS
     -------------------------------
     NWORD  =            0
     CUTOFF = 1.0E-10     MPTRAN =       0
     DIRTRF =       T     AOINTS =DUP     

          ----------------------
          INTEGRAL INPUT OPTIONS
          ----------------------
 NOPK  =       1 NORDER=       0 SCHWRZ=       T

 ..... DONE SETTING UP THE RUN .....
 CPU     0: STEP CPU TIME=     0.04 TOTAL CPU TIME=          0.0 (      0.0 MIN)
 TOTAL WALL CLOCK TIME=          0.1 SECONDS, CPU UTILIZATION IS    57.14%
 CPU     0: STEP CPU TIME=     0.00 TOTAL CPU TIME=          0.0 (      0.0 MIN)
 TOTAL WALL CLOCK TIME=          0.1 SECONDS, CPU UTILIZATION IS    57.14%

                    ----------------------
                    AO INTEGRAL TECHNOLOGY
                    ----------------------
     S,P,L SHELL ROTATED AXIS INTEGRALS, REPROGRAMMED BY
        KAZUYA ISHIMURA (IMS) AND JOSE SIERRA (SYNSTAR).
     S,P,D,L SHELL ROTATED AXIS INTEGRALS PROGRAMMED BY
        KAZUYA ISHIMURA (INSTITUTE FOR MOLECULAR SCIENCE).
     S,P,D,F,G SHELL TO TOTAL QUARTET ANGULAR MOMENTUM SUM 5,
        ERIC PROGRAM BY GRAHAM FLETCHER (ELORET AND NASA ADVANCED
        SUPERCOMPUTING DIVISION, AMES RESEARCH CENTER).
     S,P,D,F,G,L SHELL GENERAL RYS QUADRATURE PROGRAMMED BY
        MICHEL DUPUIS (PACIFIC NORTHWEST NATIONAL LABORATORY).
 Setting modorb=1 flag...
 Setting modorb=1 flag...

          -----------------------
          MP2 CONTROL INFORMATION
          -----------------------
          NACORE =        8  NBCORE =        8
          LMOMP2 =        F  AOINTS = DUP     
          METHOD =        2  NWORD  =               0
          MP2PRP =        F  OSPT   = NONE    
          CUTOFF = 1.00E-12  CPHFBS = BASISAO 
          CODE   = IMS     

          NUMBER OF CORE -A-  ORBITALS =     8
          NUMBER OF CORE -B-  ORBITALS =     8
          NUMBER OF OCC. -A-  ORBITALS =    18
          NUMBER OF OCC. -B-  ORBITALS =    18
          NUMBER OF MOLECULAR ORBITALS =    66
          NUMBER OF   BASIS  FUNCTIONS =    66

 CPU     0: STEP CPU TIME=     0.02 TOTAL CPU TIME=          0.1 (      0.0 MIN)
 TOTAL WALL CLOCK TIME=          0.1 SECONDS, CPU UTILIZATION IS    60.00%
 CPU     0: STEP CPU TIME=     0.00 TOTAL CPU TIME=          0.1 (      0.0 MIN)
 TOTAL WALL CLOCK TIME=          0.1 SECONDS, CPU UTILIZATION IS    60.00%

     INPUT FOR CAVITY DEFINITION 
     ---------------------------
   ATOM               COORDINATES                RADIUS       EPS
      1     -8.5540      3.6470     13.1700      0.0100     78.3900
      2     -9.4500      3.5870     12.7850      1.5900     78.3900
      3    -10.2720      4.5110     13.5140      1.7700     78.3900
      4     -9.8300      5.5330     13.4530      0.0100     78.3900
      5    -10.2870      4.2190     14.5880      0.0100     78.3900
      6    -11.7130      4.5600     13.0030      1.7700     78.3900
      7    -12.3260      5.2710     13.5970      0.0100     78.3900
      8    -11.7310      5.0170     11.6180      1.5900     78.3900
      9    -12.7290      4.3020     10.9070      1.7700     78.3900
     10    -13.4120      5.0570     10.4570      0.0100     78.3900
     11    -12.1460      3.4880      9.8310      1.6800     78.3900
     12    -12.8210      2.9620      8.7610      1.7700     78.3900
     13    -15.7640      2.5090      6.9970      1.6800     78.3900
     14    -16.4370      2.9690      7.5720      0.0100     78.3900
     15    -16.0680      2.0580      6.1530      0.0100     78.3900
     16    -14.1380      3.0810      8.5240      1.6800     78.3900
     17    -14.5030      2.4960      7.3860      1.7700     78.3900
     18    -13.6190      1.8660      6.5500      1.6800     78.3900
     19    -13.9800      1.4490      5.7060      0.0100     78.3900
     20    -12.2530      1.7320      6.7630      1.7700     78.3900
     21    -11.5260      1.1460      5.9510      1.5900     78.3900
     22    -11.8620      2.3290      7.9920      1.7700     78.3900
     23    -10.6100      2.4220      8.5880      1.6800     78.3900
     24    -10.8250      3.1240      9.6780      1.7700     78.3900
     25    -10.0660      3.4140     10.4090      0.0100     78.3900
     26    -13.4960      3.4740     11.9150      1.7700     78.3900
     27    -13.8940      2.5360     11.4810      0.0100     78.3900
     28    -14.5540      4.2450     12.4470      1.5900     78.3900
     29    -14.9710      3.6980     13.1230      0.0100     78.3900
     30    -12.4320      3.2020     12.9740      1.7700     78.3900
     31    -11.6960      2.4510     12.6030      0.0100     78.3900
     32    -12.9380      2.8870     14.2940      1.5900     78.3900
     33    -13.2130      1.3830     14.6790      2.1000     78.3900
     34    -12.0300      0.5520     14.3690      1.5900     78.3900
     35    -13.7100      1.3010     16.0710      1.5900     78.3900
     36    -14.3780      0.9570     13.7130      1.5900     78.3900
     37    -15.7240      1.4490     13.9240      1.7700     78.3900
     38    -15.7600      2.5580     13.9140      0.0100     78.3900
     39    -16.1130      1.1120     14.9110      0.0100     78.3900
     40    -16.6860      0.9490     12.8360      1.7700     78.3900
     41    -17.7070      1.3630     12.9800      0.0100     78.3900
     42    -16.2210      1.3880     11.5290      1.5900     78.3900
     43    -16.4920      0.3750     10.5690      1.7700     78.3900
     44    -17.1500      0.8590      9.8080      0.0100     78.3900
     45    -15.2690     -0.1240      9.8880      1.6800     78.3900
     46    -14.0360      0.0520     10.4660      1.7700     78.3900
     47    -14.0310      0.5450     11.4380      0.0100     78.3900
     48    -12.9140     -0.3510      9.8580      1.7700     78.3900
     49    -11.9280     -0.1910     10.2880      0.0100     78.3900
     50    -15.3700     -0.7810      8.6650      1.7700     78.3900
     51    -16.4890     -0.9650      8.1640      1.5900     78.3900
     52    -14.2480     -1.2030      8.0390      1.6800     78.3900
     53    -13.0420     -0.9950      8.5960      1.7700     78.3900
     54    -11.9560     -1.3980      7.9440      1.6800     78.3900
     55    -12.0540     -1.8510      7.0540      0.0100     78.3900
     56    -11.0350     -1.2170      8.2890      0.0100     78.3900
     57    -17.2720     -0.7170     11.2680      1.7700     78.3900
     58    -17.0570     -1.7310     10.8730      0.0100     78.3900
     59    -18.6560     -0.4450     11.1670      1.5900     78.3900
     60    -19.0970     -1.0820     11.7430      0.0100     78.3900
     61    -16.7870     -0.5760     12.7060      1.7700     78.3900
     62    -15.7470     -0.9630     12.8090      0.0100     78.3900
     63    -17.6940     -1.1050     13.7010      1.5900     78.3900
     64    -17.5060     -2.5840     14.2100      2.1000     78.3900
     65    -16.0620     -2.8390     14.4010      1.5900     78.3900
     66    -18.3860     -2.8080     15.3770      1.5900     78.3900
     67    -18.0000     -3.4910     13.0290      1.5900     78.3900
     68    -19.3670     -3.4850     12.5590      1.7700     78.3900
     69    -19.7170     -2.4580     12.3220      0.0100     78.3900
     70    -20.0510     -3.8830     13.3440      0.0100     78.3900
     71    -19.5170     -4.3620     11.3070      1.7700     78.3900
     72    -20.5810     -4.4240     10.9880      0.0100     78.3900
     73    -18.7830     -3.7630     10.2050      1.5900     78.3900
     74    -18.2020     -4.7940      9.4150      1.7700     78.3900
     75    -18.6270     -4.6560      8.3940      0.0100     78.3900
     76    -16.7220     -4.6800      9.3460      1.6800     78.3900
     77    -16.0280     -4.1610     10.4110      1.7700     78.3900
     78    -16.6350     -3.8630     11.2650      0.0100     78.3900
     79    -14.6980     -4.0070     10.3730      1.7700     78.3900
     80    -14.1360     -3.5840     11.2040      0.0100     78.3900
     81    -16.0340     -5.1100      8.2160      1.7700     78.3900
     82    -16.6710     -5.5960      7.2710      1.5900     78.3900
     83    -14.6890     -4.9600      8.1560      1.6800     78.3900
     84    -14.0220     -4.4280      9.1930      1.7700     78.3900
     85    -12.6970     -4.3190      9.1190      1.6800     78.3900
     86    -12.2150     -4.6180      8.2910      0.0100     78.3900
     87    -12.1580     -3.9300      9.8640      0.0100     78.3900
     88    -18.6760     -6.1350      9.9590      1.7700     78.3900
     89    -17.9010     -6.9300      9.8750      0.0100     78.3900
     90    -19.8620     -6.5380      9.2940      1.5900     78.3900
     91    -20.1870     -7.3340      9.7440      0.0100     78.3900
     92    -18.9520     -5.7920     11.4190      1.7700     78.3900
     93    -17.9860     -5.7320     11.9840      0.0100     78.3900
     94    -19.9300     -6.6390     12.0560      1.5900     78.3900
     95    -19.4820     -7.8840     12.9000      2.1000     78.3900
     96    -18.2510     -7.5270     13.6390      1.5900     78.3900
     97    -20.6490     -8.3260     13.6980      1.5900     78.3900
     98    -19.1510     -8.9970     11.8330      1.5900     78.3900
     99    -18.7970    -10.3300     12.3120      1.7700     78.3900
    100    -19.6950    -10.8290     12.7310      0.0100     78.3900
    101    -18.0270    -10.2790     13.1180      0.0100     78.3900
    102    -18.2210    -11.2120     11.1830      1.7700     78.3900
    103    -18.9640    -11.3250     10.3690      0.0100     78.3900
    104    -17.0720    -10.5290     10.6200      1.5900     78.3900
    105    -16.0590    -11.4650     10.3160      1.7700     78.3900
    106    -15.7820    -11.3070      9.2680      0.0100     78.3900
    107    -14.8350    -11.2480     11.1030      1.6800     78.3900
    108    -14.8530    -10.4660     12.2310      1.7700     78.3900
    109    -15.8310    -10.0720     12.5170      0.0100     78.3900
    110    -13.6550    -11.7320     10.5860      1.7700     78.3900
    111    -13.5990    -12.3760      9.5470      1.5900     78.3900
    112    -12.5400    -11.4170     11.3160      1.6800     78.3900
    113    -11.6730    -11.7660     10.9500      0.0100     78.3900
    114    -12.4760    -10.6350     12.4500      1.7700     78.3900
    115    -11.3920    -10.4010     12.9810      1.5900     78.3900
    116    -13.7420    -10.1450     12.9040      1.7700     78.3900
    117    -13.7730     -9.4980     13.7760      0.0100     78.3900
    118    -16.6490    -12.8430     10.4330      1.7700     78.3900
    119    -15.8990    -13.6190     10.7010      0.0100     78.3900
    120    -17.2640    -13.1590      9.1940      1.5900     78.3900
    121    -16.6090    -13.1010      8.4830      0.0100     78.3900
    122    -17.6840    -12.6270     11.5400      1.7700     78.3900
    123    -17.1710    -12.5440     12.5270      0.0100     78.3900
    124    -18.7640    -13.5970     11.5970      1.5900     78.3900
    125    -18.4120    -15.1340     11.7230      2.1000     78.3900
    126    -17.3370    -15.2640     12.7280      1.5900     78.3900
    127    -19.6720    -15.8560     12.0140      1.5900     78.3900
    128    -17.8870    -15.6050     10.3220      1.5900     78.3900
    129    -17.2600    -16.8670     10.0450      1.7700     78.3900
    130    -17.5540    -17.6490     10.7830      0.0100     78.3900
    131    -16.1560    -16.7470     10.0940      0.0100     78.3900
    132    -17.6260    -17.3650      8.6360      1.7700     78.3900
    133    -17.1090    -18.3230      8.4050      0.0100     78.3900
    134    -19.0620    -17.6140      8.5790      1.5900     78.3900
    135    -19.5690    -17.1990      7.3190      1.7700     78.3900
    136    -20.0920    -18.0840      6.8890      0.0100     78.3900
    137    -20.5330    -16.0920      7.4560      1.6800     78.3900
    138    -21.3930    -15.6410      6.4860      1.7700     78.3900
    139    -22.6600    -15.8270      3.2660      1.6800     78.3900
    140    -23.3580    -15.3760      2.7120      0.0100     78.3900
    141    -22.1230    -16.5690      2.8710      0.0100     78.3900
    142    -21.4960    -16.1220      5.2330      1.6800     78.3900
    143    -22.4300    -15.4880      4.5220      1.7700     78.3900
    144    -23.2110    -14.4800      5.0300      1.6800     78.3900
    145    -23.8890    -14.0470      4.4260      0.0100     78.3900
    146    -23.1280    -13.9690      6.3200      1.7700     78.3900
    147    -23.8680    -13.0570      6.7050      1.5900     78.3900
    148    -22.1240    -14.6300      7.0800      1.7700     78.3900
    149    -21.7130    -14.4260      8.3930      1.6800     78.3900
    150    -20.7550    -15.3100      8.5690      1.7700     78.3900
    151    -20.1830    -15.4510      9.4880      0.0100     78.3900
    152    -18.3910    -16.8330      6.4460      1.7700     78.3900
    153    -18.6300    -16.0070      5.7420      0.0100     78.3900
    154    -17.9420    -17.9630      5.7140      1.5900     78.3900
    155    -17.0860    -17.7280      5.3240      0.0100     78.3900
    156    -17.3680    -16.3750      7.4830      1.7700     78.3900
    157    -17.6270    -15.3590      7.8560      0.0100     78.3900
    158    -15.9940    -16.4500      7.0680      1.5900     78.3900
    159    -15.4020    -15.5000      5.9550      2.1000     78.3900
    160    -14.1880    -14.8660      6.5080      1.5900     78.3900
    161    -15.2270    -16.3270      4.7440      1.5900     78.3900
    162    -16.5000    -14.4070      5.6530      1.5900     78.3900
    163    -16.1480    -13.1960      4.9430      1.7700     78.3900
    164    -16.4890    -13.2680      3.8870      0.0100     78.3900
    165    -15.0440    -13.0100      4.9120      0.0100     78.3900
    166    -16.8130    -11.9800      5.5950      1.7700     78.3900
    167    -17.8950    -12.1560      5.7770      0.0100     78.3900
    168    -16.1870    -11.7250      6.8740      1.5900     78.3900
    169    -16.0290    -10.3280      7.0570      1.7700     78.3900
    170    -16.5430    -10.0460      8.0030      0.0100     78.3900
    171    -14.5980     -9.9740      7.1580      1.6800     78.3900
    172    -14.0140     -9.1510      8.0910      1.7700     78.3900
    173    -14.2700     -7.1760     10.9210      1.6800     78.3900
    174    -13.6660     -6.6910     11.5610      0.0100     78.3900
    175    -15.2450     -7.2380     11.1040      0.0100     78.3900
    176    -14.6480     -8.4950      9.0790      1.6800     78.3900
    177    -13.8160     -7.8440      9.8760      1.7700     78.3900
    178    -12.4590     -7.8150      9.6900      1.6800     78.3900
    179    -11.8940     -7.2940     10.3450      0.0100     78.3900
    180    -11.7730     -8.4750      8.6770      1.7700     78.3900
    181    -10.5430     -8.4040      8.5890      1.5900     78.3900
    182    -12.6580     -9.1850      7.8200      1.7700     78.3900
    183    -12.3900    -10.0050      6.7300      1.6800     78.3900
    184    -13.5710    -10.4590      6.3770      1.7700     78.3900
    185    -13.7560    -11.1680      5.5670      0.0100     78.3900
    186    -16.7630     -9.6420      5.9450      1.7700     78.3900
    187    -16.2930     -8.6920      5.6760      0.0100     78.3900
    188    -18.1090     -9.4060      6.3210      1.5900     78.3900
    189    -18.5700     -9.0230      5.5620      0.0100     78.3900
    190    -16.6480    -10.6650      4.8210      1.7700     78.3900
    191    -15.6160    -10.6670      4.4060      0.0100     78.3900
    192    -17.6440    -10.5620      3.7810      1.5900     78.3900
    193    -17.5320     -9.3710      2.7540      2.1000     78.3900
    194    -18.7130     -9.4330      1.8670      1.5900     78.3900
    195    -17.3080     -8.0930      3.4670      1.5900     78.3900
    196    -16.2550     -9.7520      1.9130      1.5900     78.3900
    197    -15.2140     -8.7850      1.6540      1.7700     78.3900
    198    -15.1280     -8.0340      2.4690      0.0100     78.3900
    199    -15.4450     -8.2360      0.7190      0.0100     78.3900
    200    -13.8480     -9.4590      1.4690      1.7700     78.3900
    201    -13.8210     -9.9420      0.4870      0.0100     78.3900
    202    -12.7970     -8.4650      1.4160      1.5900     78.3900
    203    -11.6320     -8.9530      2.0650      1.7700     78.3900
    204    -10.8270     -8.8760      1.2960      0.0100     78.3900
    205    -11.2460     -8.1280      3.2100      1.6800     78.3900
    206    -12.0680     -7.5210      4.1220      1.7700     78.3900
    207    -15.2540     -6.6900      5.1130      1.6800     78.3900
    208    -15.7150     -6.2660      5.8950      0.0100     78.3900
    209    -15.7950     -7.2380      4.4670      0.0100     78.3900
    210    -13.4040     -7.5740      4.1370      1.6800     78.3900
    211    -13.9470     -6.8300      5.0660      1.7700     78.3900
    212    -13.2130     -6.1550      5.9990      1.6800     78.3900
    213    -13.7160     -5.6700      6.7240      0.0100     78.3900
    214    -11.8220     -6.1080      6.0460      1.7700     78.3900
    215    -11.2450     -5.4620      6.9250      1.5900     78.3900
    216    -11.2340     -6.8560      4.9900      1.7700     78.3900
    217     -9.9000     -7.0340      4.6310      1.6800     78.3900
    218     -9.9600     -7.8080      3.5700      1.7700     78.3900
    219     -9.0950     -8.1760      3.0100      0.0100     78.3900
    220    -11.8450    -10.4000      2.4490      1.7700     78.3900
    221    -11.4000    -10.6690      3.4320      0.0100     78.3900
    222    -11.2640    -11.1900      1.4320      1.5900     78.3900
    223    -11.9890    -11.3970      0.8170      0.0100     78.3900
    224    -13.3890    -10.4700      2.5280      1.7700     78.3900
    225    -13.7050    -10.0210      3.4920      0.0100     78.3900
    226    -14.0640    -11.7280      2.3770      1.5900     78.3900
    227    -13.7690    -12.9530      1.4700      2.1000     78.3900
    228    -12.5920    -13.6550      2.0250      1.5900     78.3900
    229    -14.9820    -13.7730      1.2850      1.5900     78.3900
    230    -13.3300    -12.3430      0.0730      1.5900     78.3900
    231    -14.2840    -11.9030     -0.9120      1.7700     78.3900
    232    -15.0930    -11.2950     -0.4440      0.0100     78.3900
    233    -14.7540    -12.7830     -1.4040      0.0100     78.3900
    234    -13.5790    -11.0220     -1.9600      1.7700     78.3900
    235    -12.9850    -10.2190     -1.4700      0.0100     78.3900
    236    -12.7130    -11.8300     -2.8030      1.5900     78.3900
    237    -13.3480    -12.0660     -4.0560      1.7700     78.3900
    238    -12.7740    -11.4710     -4.7990      0.0100     78.3900
    239    -13.3070    -13.4920     -4.4180      1.6800     78.3900
    240    -13.3610    -15.4130     -5.4960      1.7700     78.3900
    241    -12.9990    -15.7170     -4.1860      1.6800     78.3900
    242    -12.9820    -14.5440     -3.5950      1.7700     78.3900
    243    -12.7330    -14.3730     -2.5450      0.0100     78.3900
    244    -13.9220    -15.6030     -7.7950      1.6800     78.3900
    245    -14.0780    -14.2740     -7.7830      1.7700     78.3900
    246    -14.3740    -13.8280     -8.7380      0.0100     78.3900
    247    -13.8940    -13.4090     -6.7830      1.6800     78.3900
    248    -13.5510    -14.0480     -5.6510      1.7700     78.3900
    249    -13.5530    -16.2180     -6.6410      1.7700     78.3900
    250    -13.3900    -17.5550     -6.6490      1.6800     78.3900
    251    -13.0900    -18.0590     -5.8360      0.0100     78.3900
    252    -13.4810    -18.0590     -7.5120      0.0100     78.3900
    253    -14.7600    -11.5100     -3.9640      1.7700     78.3900
    254    -15.4640    -12.2760     -3.5690      0.0100     78.3900
    255    -15.2220    -11.0100     -5.2020      1.5900     78.3900
    256    -14.6470    -10.2690     -5.4500      0.0100     78.3900
    257    -14.5780    -10.3900     -2.9430      1.7700     78.3900
    258    -15.5420    -10.2410     -2.3940      0.0100     78.3900
    259    -14.0670     -9.1580     -3.5060      1.5900     78.3900
    260    -14.8960     -7.8170     -3.4720      2.1000     78.3900
    261    -14.4750     -7.0120     -4.6390      1.5900     78.3900
    262    -16.3390     -8.1300     -3.3810      1.5900     78.3900
    263    -14.4100     -7.0790     -2.1670      1.5900     78.3900
    264    -14.6170     -5.6430     -2.0300      1.7700     78.3900
    265    -14.8030     -5.1250     -3.0000      0.0100     78.3900
    266    -13.6890     -5.1940     -1.6130      0.0100     78.3900
    267    -15.7610     -5.3000     -1.0650      1.7700     78.3900
    268    -16.7210     -5.7260     -1.4240      0.0100     78.3900
    269    -15.4790     -5.8710      0.2340      1.5900     78.3900
    270    -15.9290     -5.0040      1.2540      1.7700     78.3900
    271    -16.6200     -5.5940      1.8960      0.0100     78.3900
    272    -14.8050     -4.5270      2.0760      1.6800     78.3900
    273    -14.8950     -3.8480      3.2590      1.7700     78.3900
    274    -16.8130     -2.4990      5.8030      1.6800     78.3900
    275    -17.7460     -2.6790      5.4960      0.0100     78.3900
    276    -16.6580     -2.0010      6.6590      0.0100     78.3900
    277    -16.0300     -3.4840      3.8780      1.6800     78.3900
    278    -15.8060     -2.8840      5.0440      1.7700     78.3900
    279    -14.5510     -2.6520      5.5340      1.6800     78.3900
    280    -14.4650     -2.1870      6.4250      0.0100     78.3900
    281    -13.3620     -3.0050      4.9110      1.7700     78.3900
    282    -12.2670     -2.7530      5.4230      1.5900     78.3900
    283    -13.5910     -3.6360      3.6640      1.7700     78.3900
    284    -12.6890     -4.1530      2.7450      1.6800     78.3900
    285    -13.4580     -4.6870      1.8220      1.7700     78.3900
    286    -13.1110     -5.2240      0.9350      0.0100     78.3900
    287    -16.6780     -3.8730      0.5810      1.7700     78.3900
    288    -16.5870     -2.9150      1.1320      0.0100     78.3900
    289    -18.0470     -4.2040      0.4380      1.5900     78.3900
    290    -18.4480     -3.5120     -0.1020      0.0100     78.3900
    291    -15.9750     -3.8090     -0.7710      1.7700     78.3900
    292    -14.9540     -3.3770     -0.6510      0.0100     78.3900
    293    -16.7570     -3.1950     -1.8260      1.5900     78.3900
    294    -16.3990     -1.7260     -2.2700      2.1000     78.3900
    295    -14.9340     -1.5410     -2.2500      1.5900     78.3900
    296    -17.0940     -1.4260     -3.5400      1.5900     78.3900
    297    -17.0370     -0.8520     -1.1250      1.5900     78.3900
    298    -18.4720     -0.8520     -0.9290      1.7700     78.3900
    299    -18.8700     -1.8850     -0.8000      0.0100     78.3900
    300    -18.9820     -0.4030     -1.8110      0.0100     78.3900
    301    -18.8680     -0.0300      0.3050      1.7700     78.3900
    302    -19.9710      0.0500      0.3940      0.0100     78.3900
    303    -18.3910     -0.6990      1.5070      1.5900     78.3900
    304    -17.9320      0.2770      2.4350      1.7700     78.3900
    305    -18.5120      0.0960      3.3730      0.0100     78.3900
    306    -16.4800      0.1430      2.7300      1.6800     78.3900
    307    -15.6530     -0.5110      1.8480      1.7700     78.3900
    308    -16.1310     -0.9320      0.9650      0.0100     78.3900
    309    -14.3450     -0.6520      2.0880      1.7700     78.3900
    310    -13.6860     -1.1860      1.4100      0.0100     78.3900
    311    -15.9430      0.7260      3.8730      1.7700     78.3900
    312    -16.6870      1.3630      4.6340      1.5900     78.3900
    313    -14.6240      0.5940      4.1350      1.6800     78.3900
    314    -13.8290     -0.0720      3.2800      1.7700     78.3900
    315    -12.5370     -0.1900      3.5660      1.6800     78.3900
    316    -12.1710      0.2230      4.4030      0.0100     78.3900
    317    -11.9040     -0.6780      2.9610      0.0100     78.3900
    318    -18.2900      1.6460      1.8850      1.7700     78.3900
    319    -17.5370      2.4180      2.1580      0.0100     78.3900
    320    -19.5720      2.0370      2.3510      1.5900     78.3900
    321    -19.8480      2.8380      1.8720      0.0100     78.3900
    322    -18.2710      1.3830      0.3820      1.7700     78.3900
    323    -17.2220      1.3410      0.0140      0.0100     78.3900
    324    -19.0520      2.3120     -0.3940      1.5900     78.3900
    325    -18.6500      3.2010     -0.3480      0.0100     78.3900

     ----------------------------
     INPUT FOR TESSERA DEFINITION
     ----------------------------
     NTSALL  =        60     MTHALL  =         4
     MTHAUT  =         0     AUTFRE  =    2.0000
     NTSFRZ  =        60     KEEPSM  =         0
     AREAKP  =   10.0000     BONDRY  =    1.0000
     AREATL  =    0.0100

     SPHERE     INITS       METHOD
          1        60       FIXPVA
          2        60       FIXPVA
          3        60       FIXPVA
          4        60       FIXPVA
          5        60       FIXPVA
          6        60       FIXPVA
          7        60       FIXPVA
          8        60       FIXPVA
          9        60       FIXPVA
         10        60       FIXPVA
         11        60       FIXPVA
         12        60       FIXPVA
         13        60       FIXPVA
         14        60       FIXPVA
         15        60       FIXPVA
         16        60       FIXPVA
         17        60       FIXPVA
         18        60       FIXPVA
         19        60       FIXPVA
         20        60       FIXPVA
         21        60       FIXPVA
         22        60       FIXPVA
         23        60       FIXPVA
         24        60       FIXPVA
         25        60       FIXPVA
         26        60       FIXPVA
         27        60       FIXPVA
         28        60       FIXPVA
         29        60       FIXPVA
         30        60       FIXPVA
         31        60       FIXPVA
         32        60       FIXPVA
         33        60       FIXPVA
         34        60       FIXPVA
         35        60       FIXPVA
         36        60       FIXPVA
         37        60       FIXPVA
         38        60       FIXPVA
         39        60       FIXPVA
         40        60       FIXPVA
         41        60       FIXPVA
         42        60       FIXPVA
         43        60       FIXPVA
         44        60       FIXPVA
         45        60       FIXPVA
         46        60       FIXPVA
         47        60       FIXPVA
         48        60       FIXPVA
         49        60       FIXPVA
         50        60       FIXPVA
         51        60       FIXPVA
         52        60       FIXPVA
         53        60       FIXPVA
         54        60       FIXPVA
         55        60       FIXPVA
         56        60       FIXPVA
         57        60       FIXPVA
         58        60       FIXPVA
         59        60       FIXPVA
         60        60       FIXPVA
         61        60       FIXPVA
         62        60       FIXPVA
         63        60       FIXPVA
         64        60       FIXPVA
         65        60       FIXPVA
         66        60       FIXPVA
         67        60       FIXPVA
         68        60       FIXPVA
         69        60       FIXPVA
         70        60       FIXPVA
         71        60       FIXPVA
         72        60       FIXPVA
         73        60       FIXPVA
         74        60       FIXPVA
         75        60       FIXPVA
         76        60       FIXPVA
         77        60       FIXPVA
         78        60       FIXPVA
         79        60       FIXPVA
         80        60       FIXPVA
         81        60       FIXPVA
         82        60       FIXPVA
         83        60       FIXPVA
         84        60       FIXPVA
         85        60       FIXPVA
         86        60       FIXPVA
         87        60       FIXPVA
         88        60       FIXPVA
         89        60       FIXPVA
         90        60       FIXPVA
         91        60       FIXPVA
         92        60       FIXPVA
         93        60       FIXPVA
         94        60       FIXPVA
         95        60       FIXPVA
         96        60       FIXPVA
         97        60       FIXPVA
         98        60       FIXPVA
         99        60       FIXPVA
        100        60       FIXPVA
        101        60       FIXPVA
        102        60       FIXPVA
        103        60       FIXPVA
        104        60       FIXPVA
        105        60       FIXPVA
        106        60       FIXPVA
        107        60       FIXPVA
        108        60       FIXPVA
        109        60       FIXPVA
        110        60       FIXPVA
        111        60       FIXPVA
        112        60       FIXPVA
        113        60       FIXPVA
        114        60       FIXPVA
        115        60       FIXPVA
        116        60       FIXPVA
        117        60       FIXPVA
        118        60       FIXPVA
        119        60       FIXPVA
        120        60       FIXPVA
        121        60       FIXPVA
        122        60       FIXPVA
        123        60       FIXPVA
        124        60       FIXPVA
        125        60       FIXPVA
        126        60       FIXPVA
        127        60       FIXPVA
        128        60       FIXPVA
        129        60       FIXPVA
        130        60       FIXPVA
        131        60       FIXPVA
        132        60       FIXPVA
        133        60       FIXPVA
        134        60       FIXPVA
        135        60       FIXPVA
        136        60       FIXPVA
        137        60       FIXPVA
        138        60       FIXPVA
        139        60       FIXPVA
        140        60       FIXPVA
        141        60       FIXPVA
        142        60       FIXPVA
        143        60       FIXPVA
        144        60       FIXPVA
        145        60       FIXPVA
        146        60       FIXPVA
        147        60       FIXPVA
        148        60       FIXPVA
        149        60       FIXPVA
        150        60       FIXPVA
        151        60       FIXPVA
        152        60       FIXPVA
        153        60       FIXPVA
        154        60       FIXPVA
        155        60       FIXPVA
        156        60       FIXPVA
        157        60       FIXPVA
        158        60       FIXPVA
        159        60       FIXPVA
        160        60       FIXPVA
        161        60       FIXPVA
        162        60       FIXPVA
        163        60       FIXPVA
        164        60       FIXPVA
        165        60       FIXPVA
        166        60       FIXPVA
        167        60       FIXPVA
        168        60       FIXPVA
        169        60       FIXPVA
        170        60       FIXPVA
        171        60       FIXPVA
        172        60       FIXPVA
        173        60       FIXPVA
        174        60       FIXPVA
        175        60       FIXPVA
        176        60       FIXPVA
        177        60       FIXPVA
        178        60       FIXPVA
        179        60       FIXPVA
        180        60       FIXPVA
        181        60       FIXPVA
        182        60       FIXPVA
        183        60       FIXPVA
        184        60       FIXPVA
        185        60       FIXPVA
        186        60       FIXPVA
        187        60       FIXPVA
        188        60       FIXPVA
        189        60       FIXPVA
        190        60       FIXPVA
        191        60       FIXPVA
        192        60       FIXPVA
        193        60       FIXPVA
        194        60       FIXPVA
        195        60       FIXPVA
        196        60       FIXPVA
        197        60       FIXPVA
        198        60       FIXPVA
        199        60       FIXPVA
        200        60       FIXPVA
        201        60       FIXPVA
        202        60       FIXPVA
        203        60       FIXPVA
        204        60       FIXPVA
        205        60       FIXPVA
        206        60       FIXPVA
        207        60       FIXPVA
        208        60       FIXPVA
        209        60       FIXPVA
        210        60       FIXPVA
        211        60       FIXPVA
        212        60       FIXPVA
        213        60       FIXPVA
        214        60       FIXPVA
        215        60       FIXPVA
        216        60       FIXPVA
        217        60       FIXPVA
        218        60       FIXPVA
        219        60       FIXPVA
        220        60       FIXPVA
        221        60       FIXPVA
        222        60       FIXPVA
        223        60       FIXPVA
        224        60       FIXPVA
        225        60       FIXPVA
        226        60       FIXPVA
        227        60       FIXPVA
        228        60       FIXPVA
        229        60       FIXPVA
        230        60       FIXPVA
        231        60       FIXPVA
        232        60       FIXPVA
        233        60       FIXPVA
        234        60       FIXPVA
        235        60       FIXPVA
        236        60       FIXPVA
        237        60       FIXPVA
        238        60       FIXPVA
        239        60       FIXPVA
        240        60       FIXPVA
        241        60       FIXPVA
        242        60       FIXPVA
        243        60       FIXPVA
        244        60       FIXPVA
        245        60       FIXPVA
        246        60       FIXPVA
        247        60       FIXPVA
        248        60       FIXPVA
        249        60       FIXPVA
        250        60       FIXPVA
        251        60       FIXPVA
        252        60       FIXPVA
        253        60       FIXPVA
        254        60       FIXPVA
        255        60       FIXPVA
        256        60       FIXPVA
        257        60       FIXPVA
        258        60       FIXPVA
        259        60       FIXPVA
        260        60       FIXPVA
        261        60       FIXPVA
        262        60       FIXPVA
        263        60       FIXPVA
        264        60       FIXPVA
        265        60       FIXPVA
        266        60       FIXPVA
        267        60       FIXPVA
        268        60       FIXPVA
        269        60       FIXPVA
        270        60       FIXPVA
        271        60       FIXPVA
        272        60       FIXPVA
        273        60       FIXPVA
        274        60       FIXPVA
        275        60       FIXPVA
        276        60       FIXPVA
        277        60       FIXPVA
        278        60       FIXPVA
        279        60       FIXPVA
        280        60       FIXPVA
        281        60       FIXPVA
        282        60       FIXPVA
        283        60       FIXPVA
        284        60       FIXPVA
        285        60       FIXPVA
        286        60       FIXPVA
        287        60       FIXPVA
        288        60       FIXPVA
        289        60       FIXPVA
        290        60       FIXPVA
        291        60       FIXPVA
        292        60       FIXPVA
        293        60       FIXPVA
        294        60       FIXPVA
        295        60       FIXPVA
        296        60       FIXPVA
        297        60       FIXPVA
        298        60       FIXPVA
        299        60       FIXPVA
        300        60       FIXPVA
        301        60       FIXPVA
        302        60       FIXPVA
        303        60       FIXPVA
        304        60       FIXPVA
        305        60       FIXPVA
        306        60       FIXPVA
        307        60       FIXPVA
        308        60       FIXPVA
        309        60       FIXPVA
        310        60       FIXPVA
        311        60       FIXPVA
        312        60       FIXPVA
        313        60       FIXPVA
        314        60       FIXPVA
        315        60       FIXPVA
        316        60       FIXPVA
        317        60       FIXPVA
        318        60       FIXPVA
        319        60       FIXPVA
        320        60       FIXPVA
        321        60       FIXPVA
        322        60       FIXPVA
        323        60       FIXPVA
        324        60       FIXPVA
        325        60       FIXPVA

     ------------------------------
      FIXPVA TESSELLATION FOR PCM
         PEIFENG SU AND HUI LI
     UNIVERSITY OF NEBRASKA-LINCOLN
     ------------------------------


 PCM DIMENSIONS: MXSP=   325, MXTS=     13000, MEMORY=        133578

     INPUT FOR CAVITY DEFINITION 
     ---------------------------
   ATOM               COORDINATES                RADIUS       EPS
      1     -8.5540      3.6470     13.1700      0.0100     78.3900
      2     -9.4500      3.5870     12.7850      1.5900     78.3900
      3    -10.2720      4.5110     13.5140      1.7700     78.3900
      4     -9.8300      5.5330     13.4530      0.0100     78.3900
      5    -10.2870      4.2190     14.5880      0.0100     78.3900
      6    -11.7130      4.5600     13.0030      1.7700     78.3900
      7    -12.3260      5.2710     13.5970      0.0100     78.3900
      8    -11.7310      5.0170     11.6180      1.5900     78.3900
      9    -12.7290      4.3020     10.9070      1.7700     78.3900
     10    -13.4120      5.0570     10.4570      0.0100     78.3900
     11    -12.1460      3.4880      9.8310      1.6800     78.3900
     12    -12.8210      2.9620      8.7610      1.7700     78.3900
     13    -15.7640      2.5090      6.9970      1.6800     78.3900
     14    -16.4370      2.9690      7.5720      0.0100     78.3900
     15    -16.0680      2.0580      6.1530      0.0100     78.3900
     16    -14.1380      3.0810      8.5240      1.6800     78.3900
     17    -14.5030      2.4960      7.3860      1.7700     78.3900
     18    -13.6190      1.8660      6.5500      1.6800     78.3900
     19    -13.9800      1.4490      5.7060      0.0100     78.3900
     20    -12.2530      1.7320      6.7630      1.7700     78.3900
     21    -11.5260      1.1460      5.9510      1.5900     78.3900
     22    -11.8620      2.3290      7.9920      1.7700     78.3900
     23    -10.6100      2.4220      8.5880      1.6800     78.3900
     24    -10.8250      3.1240      9.6780      1.7700     78.3900
     25    -10.0660      3.4140     10.4090      0.0100     78.3900
     26    -13.4960      3.4740     11.9150      1.7700     78.3900
     27    -13.8940      2.5360     11.4810      0.0100     78.3900
     28    -14.5540      4.2450     12.4470      1.5900     78.3900
     29    -14.9710      3.6980     13.1230      0.0100     78.3900
     30    -12.4320      3.2020     12.9740      1.7700     78.3900
     31    -11.6960      2.4510     12.6030      0.0100     78.3900
     32    -12.9380      2.8870     14.2940      1.5900     78.3900
     33    -13.2130      1.3830     14.6790      2.1000     78.3900
     34    -12.0300      0.5520     14.3690      1.5900     78.3900
     35    -13.7100      1.3010     16.0710      1.5900     78.3900
     36    -14.3780      0.9570     13.7130      1.5900     78.3900
     37    -15.7240      1.4490     13.9240      1.7700     78.3900
     38    -15.7600      2.5580     13.9140      0.0100     78.3900
     39    -16.1130      1.1120     14.9110      0.0100     78.3900
     40    -16.6860      0.9490     12.8360      1.7700     78.3900
     41    -17.7070      1.3630     12.9800      0.0100     78.3900
     42    -16.2210      1.3880     11.5290      1.5900     78.3900
     43    -16.4920      0.3750     10.5690      1.7700     78.3900
     44    -17.1500      0.8590      9.8080      0.0100     78.3900
     45    -15.2690     -0.1240      9.8880      1.6800     78.3900
     46    -14.0360      0.0520     10.4660      1.7700     78.3900
     47    -14.0310      0.5450     11.4380      0.0100     78.3900
     48    -12.9140     -0.3510      9.8580      1.7700     78.3900
     49    -11.9280     -0.1910     10.2880      0.0100     78.3900
     50    -15.3700     -0.7810      8.6650      1.7700     78.3900
     51    -16.4890     -0.9650      8.1640      1.5900     78.3900
     52    -14.2480     -1.2030      8.0390      1.6800     78.3900
     53    -13.0420     -0.9950      8.5960      1.7700     78.3900
     54    -11.9560     -1.3980      7.9440      1.6800     78.3900
     55    -12.0540     -1.8510      7.0540      0.0100     78.3900
     56    -11.0350     -1.2170      8.2890      0.0100     78.3900
     57    -17.2720     -0.7170     11.2680      1.7700     78.3900
     58    -17.0570     -1.7310     10.8730      0.0100     78.3900
     59    -18.6560     -0.4450     11.1670      1.5900     78.3900
     60    -19.0970     -1.0820     11.7430      0.0100     78.3900
     61    -16.7870     -0.5760     12.7060      1.7700     78.3900
     62    -15.7470     -0.9630     12.8090      0.0100     78.3900
     63    -17.6940     -1.1050     13.7010      1.5900     78.3900
     64    -17.5060     -2.5840     14.2100      2.1000     78.3900
     65    -16.0620     -2.8390     14.4010      1.5900     78.3900
     66    -18.3860     -2.8080     15.3770      1.5900     78.3900
     67    -18.0000     -3.4910     13.0290      1.5900     78.3900
     68    -19.3670     -3.4850     12.5590      1.7700     78.3900
     69    -19.7170     -2.4580     12.3220      0.0100     78.3900
     70    -20.0510     -3.8830     13.3440      0.0100     78.3900
     71    -19.5170     -4.3620     11.3070      1.7700     78.3900
     72    -20.5810     -4.4240     10.9880      0.0100     78.3900
     73    -18.7830     -3.7630     10.2050      1.5900     78.3900
     74    -18.2020     -4.7940      9.4150      1.7700     78.3900
     75    -18.6270     -4.6560      8.3940      0.0100     78.3900
     76    -16.7220     -4.6800      9.3460      1.6800     78.3900
     77    -16.0280     -4.1610     10.4110      1.7700     78.3900
     78    -16.6350     -3.8630     11.2650      0.0100     78.3900
     79    -14.6980     -4.0070     10.3730      1.7700     78.3900
     80    -14.1360     -3.5840     11.2040      0.0100     78.3900
     81    -16.0340     -5.1100      8.2160      1.7700     78.3900
     82    -16.6710     -5.5960      7.2710      1.5900     78.3900
     83    -14.6890     -4.9600      8.1560      1.6800     78.3900
     84    -14.0220     -4.4280      9.1930      1.7700     78.3900
     85    -12.6970     -4.3190      9.1190      1.6800     78.3900
     86    -12.2150     -4.6180      8.2910      0.0100     78.3900
     87    -12.1580     -3.9300      9.8640      0.0100     78.3900
     88    -18.6760     -6.1350      9.9590      1.7700     78.3900
     89    -17.9010     -6.9300      9.8750      0.0100     78.3900
     90    -19.8620     -6.5380      9.2940      1.5900     78.3900
     91    -20.1870     -7.3340      9.7440      0.0100     78.3900
     92    -18.9520     -5.7920     11.4190      1.7700     78.3900
     93    -17.9860     -5.7320     11.9840      0.0100     78.3900
     94    -19.9300     -6.6390     12.0560      1.5900     78.3900
     95    -19.4820     -7.8840     12.9000      2.1000     78.3900
     96    -18.2510     -7.5270     13.6390      1.5900     78.3900
     97    -20.6490     -8.3260     13.6980      1.5900     78.3900
     98    -19.1510     -8.9970     11.8330      1.5900     78.3900
     99    -18.7970    -10.3300     12.3120      1.7700     78.3900
    100    -19.6950    -10.8290     12.7310      0.0100     78.3900
    101    -18.0270    -10.2790     13.1180      0.0100     78.3900
    102    -18.2210    -11.2120     11.1830      1.7700     78.3900
    103    -18.9640    -11.3250     10.3690      0.0100     78.3900
    104    -17.0720    -10.5290     10.6200      1.5900     78.3900
    105    -16.0590    -11.4650     10.3160      1.7700     78.3900
    106    -15.7820    -11.3070      9.2680      0.0100     78.3900
    107    -14.8350    -11.2480     11.1030      1.6800     78.3900
    108    -14.8530    -10.4660     12.2310      1.7700     78.3900
    109    -15.8310    -10.0720     12.5170      0.0100     78.3900
    110    -13.6550    -11.7320     10.5860      1.7700     78.3900
    111    -13.5990    -12.3760      9.5470      1.5900     78.3900
    112    -12.5400    -11.4170     11.3160      1.6800     78.3900
    113    -11.6730    -11.7660     10.9500      0.0100     78.3900
    114    -12.4760    -10.6350     12.4500      1.7700     78.3900
    115    -11.3920    -10.4010     12.9810      1.5900     78.3900
    116    -13.7420    -10.1450     12.9040      1.7700     78.3900
    117    -13.7730     -9.4980     13.7760      0.0100     78.3900
    118    -16.6490    -12.8430     10.4330      1.7700     78.3900
    119    -15.8990    -13.6190     10.7010      0.0100     78.3900
    120    -17.2640    -13.1590      9.1940      1.5900     78.3900
    121    -16.6090    -13.1010      8.4830      0.0100     78.3900
    122    -17.6840    -12.6270     11.5400      1.7700     78.3900
    123    -17.1710    -12.5440     12.5270      0.0100     78.3900
    124    -18.7640    -13.5970     11.5970      1.5900     78.3900
    125    -18.4120    -15.1340     11.7230      2.1000     78.3900
    126    -17.3370    -15.2640     12.7280      1.5900     78.3900
    127    -19.6720    -15.8560     12.0140      1.5900     78.3900
    128    -17.8870    -15.6050     10.3220      1.5900     78.3900
    129    -17.2600    -16.8670     10.0450      1.7700     78.3900
    130    -17.5540    -17.6490     10.7830      0.0100     78.3900
    131    -16.1560    -16.7470     10.0940      0.0100     78.3900
    132    -17.6260    -17.3650      8.6360      1.7700     78.3900
    133    -17.1090    -18.3230      8.4050      0.0100     78.3900
    134    -19.0620    -17.6140      8.5790      1.5900     78.3900
    135    -19.5690    -17.1990      7.3190      1.7700     78.3900
    136    -20.0920    -18.0840      6.8890      0.0100     78.3900
    137    -20.5330    -16.0920      7.4560      1.6800     78.3900
    138    -21.3930    -15.6410      6.4860      1.7700     78.3900
    139    -22.6600    -15.8270      3.2660      1.6800     78.3900
    140    -23.3580    -15.3760      2.7120      0.0100     78.3900
    141    -22.1230    -16.5690      2.8710      0.0100     78.3900
    142    -21.4960    -16.1220      5.2330      1.6800     78.3900
    143    -22.4300    -15.4880      4.5220      1.7700     78.3900
    144    -23.2110    -14.4800      5.0300      1.6800     78.3900
    145    -23.8890    -14.0470      4.4260      0.0100     78.3900
    146    -23.1280    -13.9690      6.3200      1.7700     78.3900
    147    -23.8680    -13.0570      6.7050      1.5900     78.3900
    148    -22.1240    -14.6300      7.0800      1.7700     78.3900
    149    -21.7130    -14.4260      8.3930      1.6800     78.3900
    150    -20.7550    -15.3100      8.5690      1.7700     78.3900
    151    -20.1830    -15.4510      9.4880      0.0100     78.3900
    152    -18.3910    -16.8330      6.4460      1.7700     78.3900
    153    -18.6300    -16.0070      5.7420      0.0100     78.3900
    154    -17.9420    -17.9630      5.7140      1.5900     78.3900
    155    -17.0860    -17.7280      5.3240      0.0100     78.3900
    156    -17.3680    -16.3750      7.4830      1.7700     78.3900
    157    -17.6270    -15.3590      7.8560      0.0100     78.3900
    158    -15.9940    -16.4500      7.0680      1.5900     78.3900
    159    -15.4020    -15.5000      5.9550      2.1000     78.3900
    160    -14.1880    -14.8660      6.5080      1.5900     78.3900
    161    -15.2270    -16.3270      4.7440      1.5900     78.3900
    162    -16.5000    -14.4070      5.6530      1.5900     78.3900
    163    -16.1480    -13.1960      4.9430      1.7700     78.3900
    164    -16.4890    -13.2680      3.8870      0.0100     78.3900
    165    -15.0440    -13.0100      4.9120      0.0100     78.3900
    166    -16.8130    -11.9800      5.5950      1.7700     78.3900
    167    -17.8950    -12.1560      5.7770      0.0100     78.3900
    168    -16.1870    -11.7250      6.8740      1.5900     78.3900
    169    -16.0290    -10.3280      7.0570      1.7700     78.3900
    170    -16.5430    -10.0460      8.0030      0.0100     78.3900
    171    -14.5980     -9.9740      7.1580      1.6800     78.3900
    172    -14.0140     -9.1510      8.0910      1.7700     78.3900
    173    -14.2700     -7.1760     10.9210      1.6800     78.3900
    174    -13.6660     -6.6910     11.5610      0.0100     78.3900
    175    -15.2450     -7.2380     11.1040      0.0100     78.3900
    176    -14.6480     -8.4950      9.0790      1.6800     78.3900
    177    -13.8160     -7.8440      9.8760      1.7700     78.3900
    178    -12.4590     -7.8150      9.6900      1.6800     78.3900
    179    -11.8940     -7.2940     10.3450      0.0100     78.3900
    180    -11.7730     -8.4750      8.6770      1.7700     78.3900
    181    -10.5430     -8.4040      8.5890      1.5900     78.3900
    182    -12.6580     -9.1850      7.8200      1.7700     78.3900
    183    -12.3900    -10.0050      6.7300      1.6800     78.3900
    184    -13.5710    -10.4590      6.3770      1.7700     78.3900
    185    -13.7560    -11.1680      5.5670      0.0100     78.3900
    186    -16.7630     -9.6420      5.9450      1.7700     78.3900
    187    -16.2930     -8.6920      5.6760      0.0100     78.3900
    188    -18.1090     -9.4060      6.3210      1.5900     78.3900
    189    -18.5700     -9.0230      5.5620      0.0100     78.3900
    190    -16.6480    -10.6650      4.8210      1.7700     78.3900
    191    -15.6160    -10.6670      4.4060      0.0100     78.3900
    192    -17.6440    -10.5620      3.7810      1.5900     78.3900
    193    -17.5320     -9.3710      2.7540      2.1000     78.3900
    194    -18.7130     -9.4330      1.8670      1.5900     78.3900
    195    -17.3080     -8.0930      3.4670      1.5900     78.3900
    196    -16.2550     -9.7520      1.9130      1.5900     78.3900
    197    -15.2140     -8.7850      1.6540      1.7700     78.3900
    198    -15.1280     -8.0340      2.4690      0.0100     78.3900
    199    -15.4450     -8.2360      0.7190      0.0100     78.3900
    200    -13.8480     -9.4590      1.4690      1.7700     78.3900
    201    -13.8210     -9.9420      0.4870      0.0100     78.3900
    202    -12.7970     -8.4650      1.4160      1.5900     78.3900
    203    -11.6320     -8.9530      2.0650      1.7700     78.3900
    204    -10.8270     -8.8760      1.2960      0.0100     78.3900
    205    -11.2460     -8.1280      3.2100      1.6800     78.3900
    206    -12.0680     -7.5210      4.1220      1.7700     78.3900
    207    -15.2540     -6.6900      5.1130      1.6800     78.3900
    208    -15.7150     -6.2660      5.8950      0.0100     78.3900
    209    -15.7950     -7.2380      4.4670      0.0100     78.3900
    210    -13.4040     -7.5740      4.1370      1.6800     78.3900
    211    -13.9470     -6.8300      5.0660      1.7700     78.3900
    212    -13.2130     -6.1550      5.9990      1.6800     78.3900
    213    -13.7160     -5.6700      6.7240      0.0100     78.3900
    214    -11.8220     -6.1080      6.0460      1.7700     78.3900
    215    -11.2450     -5.4620      6.9250      1.5900     78.3900
    216    -11.2340     -6.8560      4.9900      1.7700     78.3900
    217     -9.9000     -7.0340      4.6310      1.6800     78.3900
    218     -9.9600     -7.8080      3.5700      1.7700     78.3900
    219     -9.0950     -8.1760      3.0100      0.0100     78.3900
    220    -11.8450    -10.4000      2.4490      1.7700     78.3900
    221    -11.4000    -10.6690      3.4320      0.0100     78.3900
    222    -11.2640    -11.1900      1.4320      1.5900     78.3900
    223    -11.9890    -11.3970      0.8170      0.0100     78.3900
    224    -13.3890    -10.4700      2.5280      1.7700     78.3900
    225    -13.7050    -10.0210      3.4920      0.0100     78.3900
    226    -14.0640    -11.7280      2.3770      1.5900     78.3900
    227    -13.7690    -12.9530      1.4700      2.1000     78.3900
    228    -12.5920    -13.6550      2.0250      1.5900     78.3900
    229    -14.9820    -13.7730      1.2850      1.5900     78.3900
    230    -13.3300    -12.3430      0.0730      1.5900     78.3900
    231    -14.2840    -11.9030     -0.9120      1.7700     78.3900
    232    -15.0930    -11.2950     -0.4440      0.0100     78.3900
    233    -14.7540    -12.7830     -1.4040      0.0100     78.3900
    234    -13.5790    -11.0220     -1.9600      1.7700     78.3900
    235    -12.9850    -10.2190     -1.4700      0.0100     78.3900
    236    -12.7130    -11.8300     -2.8030      1.5900     78.3900
    237    -13.3480    -12.0660     -4.0560      1.7700     78.3900
    238    -12.7740    -11.4710     -4.7990      0.0100     78.3900
    239    -13.3070    -13.4920     -4.4180      1.6800     78.3900
    240    -13.3610    -15.4130     -5.4960      1.7700     78.3900
    241    -12.9990    -15.7170     -4.1860      1.6800     78.3900
    242    -12.9820    -14.5440     -3.5950      1.7700     78.3900
    243    -12.7330    -14.3730     -2.5450      0.0100     78.3900
    244    -13.9220    -15.6030     -7.7950      1.6800     78.3900
    245    -14.0780    -14.2740     -7.7830      1.7700     78.3900
    246    -14.3740    -13.8280     -8.7380      0.0100     78.3900
    247    -13.8940    -13.4090     -6.7830      1.6800     78.3900
    248    -13.5510    -14.0480     -5.6510      1.7700     78.3900
    249    -13.5530    -16.2180     -6.6410      1.7700     78.3900
    250    -13.3900    -17.5550     -6.6490      1.6800     78.3900
    251    -13.0900    -18.0590     -5.8360      0.0100     78.3900
    252    -13.4810    -18.0590     -7.5120      0.0100     78.3900
    253    -14.7600    -11.5100     -3.9640      1.7700     78.3900
    254    -15.4640    -12.2760     -3.5690      0.0100     78.3900
    255    -15.2220    -11.0100     -5.2020      1.5900     78.3900
    256    -14.6470    -10.2690     -5.4500      0.0100     78.3900
    257    -14.5780    -10.3900     -2.9430      1.7700     78.3900
    258    -15.5420    -10.2410     -2.3940      0.0100     78.3900
    259    -14.0670     -9.1580     -3.5060      1.5900     78.3900
    260    -14.8960     -7.8170     -3.4720      2.1000     78.3900
    261    -14.4750     -7.0120     -4.6390      1.5900     78.3900
    262    -16.3390     -8.1300     -3.3810      1.5900     78.3900
    263    -14.4100     -7.0790     -2.1670      1.5900     78.3900
    264    -14.6170     -5.6430     -2.0300      1.7700     78.3900
    265    -14.8030     -5.1250     -3.0000      0.0100     78.3900
    266    -13.6890     -5.1940     -1.6130      0.0100     78.3900
    267    -15.7610     -5.3000     -1.0650      1.7700     78.3900
    268    -16.7210     -5.7260     -1.4240      0.0100     78.3900
    269    -15.4790     -5.8710      0.2340      1.5900     78.3900
    270    -15.9290     -5.0040      1.2540      1.7700     78.3900
    271    -16.6200     -5.5940      1.8960      0.0100     78.3900
    272    -14.8050     -4.5270      2.0760      1.6800     78.3900
    273    -14.8950     -3.8480      3.2590      1.7700     78.3900
    274    -16.8130     -2.4990      5.8030      1.6800     78.3900
    275    -17.7460     -2.6790      5.4960      0.0100     78.3900
    276    -16.6580     -2.0010      6.6590      0.0100     78.3900
    277    -16.0300     -3.4840      3.8780      1.6800     78.3900
    278    -15.8060     -2.8840      5.0440      1.7700     78.3900
    279    -14.5510     -2.6520      5.5340      1.6800     78.3900
    280    -14.4650     -2.1870      6.4250      0.0100     78.3900
    281    -13.3620     -3.0050      4.9110      1.7700     78.3900
    282    -12.2670     -2.7530      5.4230      1.5900     78.3900
    283    -13.5910     -3.6360      3.6640      1.7700     78.3900
    284    -12.6890     -4.1530      2.7450      1.6800     78.3900
    285    -13.4580     -4.6870      1.8220      1.7700     78.3900
    286    -13.1110     -5.2240      0.9350      0.0100     78.3900
    287    -16.6780     -3.8730      0.5810      1.7700     78.3900
    288    -16.5870     -2.9150      1.1320      0.0100     78.3900
    289    -18.0470     -4.2040      0.4380      1.5900     78.3900
    290    -18.4480     -3.5120     -0.1020      0.0100     78.3900
    291    -15.9750     -3.8090     -0.7710      1.7700     78.3900
    292    -14.9540     -3.3770     -0.6510      0.0100     78.3900
    293    -16.7570     -3.1950     -1.8260      1.5900     78.3900
    294    -16.3990     -1.7260     -2.2700      2.1000     78.3900
    295    -14.9340     -1.5410     -2.2500      1.5900     78.3900
    296    -17.0940     -1.4260     -3.5400      1.5900     78.3900
    297    -17.0370     -0.8520     -1.1250      1.5900     78.3900
    298    -18.4720     -0.8520     -0.9290      1.7700     78.3900
    299    -18.8700     -1.8850     -0.8000      0.0100     78.3900
    300    -18.9820     -0.4030     -1.8110      0.0100     78.3900
    301    -18.8680     -0.0300      0.3050      1.7700     78.3900
    302    -19.9710      0.0500      0.3940      0.0100     78.3900
    303    -18.3910     -0.6990      1.5070      1.5900     78.3900
    304    -17.9320      0.2770      2.4350      1.7700     78.3900
    305    -18.5120      0.0960      3.3730      0.0100     78.3900
    306    -16.4800      0.1430      2.7300      1.6800     78.3900
    307    -15.6530     -0.5110      1.8480      1.7700     78.3900
    308    -16.1310     -0.9320      0.9650      0.0100     78.3900
    309    -14.3450     -0.6520      2.0880      1.7700     78.3900
    310    -13.6860     -1.1860      1.4100      0.0100     78.3900
    311    -15.9430      0.7260      3.8730      1.7700     78.3900
    312    -16.6870      1.3630      4.6340      1.5900     78.3900
    313    -14.6240      0.5940      4.1350      1.6800     78.3900
    314    -13.8290     -0.0720      3.2800      1.7700     78.3900
    315    -12.5370     -0.1900      3.5660      1.6800     78.3900
    316    -12.1710      0.2230      4.4030      0.0100     78.3900
    317    -11.9040     -0.6780      2.9610      0.0100     78.3900
    318    -18.2900      1.6460      1.8850      1.7700     78.3900
    319    -17.5370      2.4180      2.1580      0.0100     78.3900
    320    -19.5720      2.0370      2.3510      1.5900     78.3900
    321    -19.8480      2.8380      1.8720      0.0100     78.3900
    322    -18.2710      1.3830      0.3820      1.7700     78.3900
    323    -17.2220      1.3410      0.0140      0.0100     78.3900
    324    -19.0520      2.3120     -0.3940      1.5900     78.3900
    325    -18.6500      3.2010     -0.3480      0.0100     78.3900

 CREATION OF A NEW CAVITY WITH THE ORIGINAL SPHERE
 SIZES FOR THE COMPUTATION OF THE CAVITATION ENERGY.

     INPUT FOR CAVITY DEFINITION 
     ---------------------------
   ATOM               COORDINATES                RADIUS       EPS
      1     -8.5540      3.6470     13.1700      0.0100     78.3900
      2     -9.4500      3.5870     12.7850      1.5900     78.3900
      3    -10.2720      4.5110     13.5140      1.7700     78.3900
      4     -9.8300      5.5330     13.4530      0.0100     78.3900
      5    -10.2870      4.2190     14.5880      0.0100     78.3900
      6    -11.7130      4.5600     13.0030      1.7700     78.3900
      7    -12.3260      5.2710     13.5970      0.0100     78.3900
      8    -11.7310      5.0170     11.6180      1.5900     78.3900
      9    -12.7290      4.3020     10.9070      1.7700     78.3900
     10    -13.4120      5.0570     10.4570      0.0100     78.3900
     11    -12.1460      3.4880      9.8310      1.6800     78.3900
     12    -12.8210      2.9620      8.7610      1.7700     78.3900
     13    -15.7640      2.5090      6.9970      1.6800     78.3900
     14    -16.4370      2.9690      7.5720      0.0100     78.3900
     15    -16.0680      2.0580      6.1530      0.0100     78.3900
     16    -14.1380      3.0810      8.5240      1.6800     78.3900
     17    -14.5030      2.4960      7.3860      1.7700     78.3900
     18    -13.6190      1.8660      6.5500      1.6800     78.3900
     19    -13.9800      1.4490      5.7060      0.0100     78.3900
     20    -12.2530      1.7320      6.7630      1.7700     78.3900
     21    -11.5260      1.1460      5.9510      1.5900     78.3900
     22    -11.8620      2.3290      7.9920      1.7700     78.3900
     23    -10.6100      2.4220      8.5880      1.6800     78.3900
     24    -10.8250      3.1240      9.6780      1.7700     78.3900
     25    -10.0660      3.4140     10.4090      0.0100     78.3900
     26    -13.4960      3.4740     11.9150      1.7700     78.3900
     27    -13.8940      2.5360     11.4810      0.0100     78.3900
     28    -14.5540      4.2450     12.4470      1.5900     78.3900
     29    -14.9710      3.6980     13.1230      0.0100     78.3900
     30    -12.4320      3.2020     12.9740      1.7700     78.3900
     31    -11.6960      2.4510     12.6030      0.0100     78.3900
     32    -12.9380      2.8870     14.2940      1.5900     78.3900
     33    -13.2130      1.3830     14.6790      2.1000     78.3900
     34    -12.0300      0.5520     14.3690      1.5900     78.3900
     35    -13.7100      1.3010     16.0710      1.5900     78.3900
     36    -14.3780      0.9570     13.7130      1.5900     78.3900
[...]
 TOTAL WALL CLOCK TIME=       1308.6 SECONDS, CPU UTILIZATION IS    49.21%


 ------------------------------------------------------------------------------
 FMO iter  1.1,      0 fragment(s) converged, maxD 0.549736639 maxE************
 ------------------------------------------------------------------------------

 RHF      monomer      1 corr= NONE       , L1=   403, L0=   378 ID=      1


 AO spaces for     1     0     0 n-mer: L1=   403, L0=   378

 DIRECT SCF CALCULATION, SCHWRZ=T   FDIFF=T,  DIRTHR=  0.00E+00 NITDIR=10

                                                                                   NONZERO     BLOCKS
 ITER EX DEM     TOTAL ENERGY        E CHANGE  DENSITY CHANGE     ORB. GRAD      INTEGRALS    SKIPPED
   1  0  0    -1545.0422001104 -1545.0422001104   0.084045655   0.000000000     1038939266   21787020
          ---------------START SECOND ORDER SCF---------------
   2  1  0    -1545.0619592989    -0.0197591885   0.026910835   0.004777031      995394362   22879170
   3  2  0    -1545.0636646279    -0.0017053290   0.010093798   0.003633625      961637276   23340458
   4  3  0    -1545.0636464489     0.0000181790   0.003662487   0.000469993      916364063   23821628
   5  4  0    -1545.0634501015     0.0001963474   0.001072018   0.000355509      873453981   24229361
   6  5  0    -1545.0634369006     0.0000132009   0.000213715   0.000121573      831398198   24636211
   7  6  0    -1545.0634629583    -0.0000260577   0.000171003   0.000067837      785599592   25025366
   8  7  0    -1545.0634678622    -0.0000049039   0.000076080   0.000023183      747823881   25355820
   9  8  0    -1545.0634649248     0.0000029374   0.000018394   0.000010926      702256938   25751660
  10  9  0    -1545.0634637652     0.0000011596   0.000006919   0.000002207      660623799   26083129
  11 10  0    -1545.0634640668    -0.0000003017   0.000003211   0.000000889      598677965   26585912
  12 11  0    -1545.0634641871    -0.0000001203   0.000000840   0.000000287      550479360   26998050
  13 12  0    -1545.0634641890    -0.0000000018   0.000000212   0.000000130      497278308   27413237
  14 13  0    -1545.0634641852     0.0000000037   0.000000113   0.000000048      448469026   27814473

          -----------------
          DENSITY CONVERGED
          -----------------
     TIME TO FORM FOCK OPERATORS=      33.5 SECONDS (       2.4 SEC/ITER)
     FOCK TIME ON FIRST ITERATION=       3.7, LAST ITERATION=       1.5
     TIME TO SOLVE SCF EQUATIONS=       0.6 SECONDS (       0.0 SEC/ITER)

 FINAL RHF ENERGY IS    -1545.0634641852 AFTER  14 ITERATIONS
 ...... END OF RHF CALCULATION ......
 CPU     0: STEP CPU TIME=    52.55 TOTAL CPU TIME=        696.5 (     11.6 MIN)
 TOTAL WALL CLOCK TIME=       1423.5 SECONDS, CPU UTILIZATION IS    48.93%
 DONE PCM POT.
 CPU     0: STEP CPU TIME=     0.45 TOTAL CPU TIME=        696.9 (     11.6 MIN)
 TOTAL WALL CLOCK TIME=       1424.8 SECONDS, CPU UTILIZATION IS    48.91%

 Iter=  2 iFrag=      1 EFMO= -1597.612274692, DD= 0.097014256, DE=-0.466591055


 RHF      monomer      6 corr= NONE       , L1=   386, L0=   362 ID=      2


 AO spaces for     6     0     0 n-mer: L1=   386, L0=   362

 DIRECT SCF CALCULATION, SCHWRZ=T   FDIFF=T,  DIRTHR=  0.00E+00 NITDIR=10

                                                                                   NONZERO     BLOCKS
 ITER EX DEM     TOTAL ENERGY        E CHANGE  DENSITY CHANGE     ORB. GRAD      INTEGRALS    SKIPPED
   1  0  0    -1446.8372291541 -1446.8372291541   0.049746493   0.000000000      894946346   17726533
          ---------------START SECOND ORDER SCF---------------
   2  1  0    -1446.8645473611    -0.0273182070   0.029545326   0.004414207      861430111   18540467
   3  2  0    -1446.8667442384    -0.0021968773   0.008726357   0.004186106      829546460   18952044
   4  3  0    -1446.8670781474    -0.0003339090   0.002773749   0.001162461      793713677   19346170
   5  4  0    -1446.8669662302     0.0001119173   0.001233359   0.000344783      762440889   19640699
   6  5  0    -1446.8669464367     0.0000197934   0.000359025   0.000198653      727768409   19954589
   7  6  0    -1446.8669655769    -0.0000191402   0.000189383   0.000082853      699889067   20189269
   8  7  0    -1446.8669724568    -0.0000068799   0.000074827   0.000025068      670664839   20455593
   9  8  0    -1446.8669710723     0.0000013844   0.000017969   0.000008214      621076610   20862954
  10  9  0    -1446.8669698333     0.0000012390   0.000007998   0.000002279      592304898   21094204
  11 10  0    -1446.8669698833    -0.0000000500   0.000002356   0.000001334      532943540   21607019
  12 11  0    -1446.8669700271    -0.0000001438   0.000001254   0.000000498      497483824   21877093
  13 12  0    -1446.8669700139     0.0000000132   0.000000345   0.000000104      449573025   22272179
  14 13  0    -1446.8669700182    -0.0000000043   0.000000197   0.000000052      407816248   22608757
  15 14  0    -1446.8669700170     0.0000000012   0.000000043   0.000000020      367508583   22924773

          -----------------
          DENSITY CONVERGED
          -----------------
     TIME TO FORM FOCK OPERATORS=      30.7 SECONDS (       2.0 SEC/ITER)
     FOCK TIME ON FIRST ITERATION=       2.8, LAST ITERATION=       1.2
     TIME TO SOLVE SCF EQUATIONS=       0.6 SECONDS (       0.0 SEC/ITER)

 FINAL RHF ENERGY IS    -1446.8669700170 AFTER  15 ITERATIONS
 ...... END OF RHF CALCULATION ......
 CPU     0: STEP CPU TIME=    62.94 TOTAL CPU TIME=        759.9 (     12.7 MIN)
 TOTAL WALL CLOCK TIME=       1565.8 SECONDS, CPU UTILIZATION IS    48.53%
 DONE PCM POT.
 CPU     0: STEP CPU TIME=     0.38 TOTAL CPU TIME=        760.2 (     12.7 MIN)
 TOTAL WALL CLOCK TIME=       1567.0 SECONDS, CPU UTILIZATION IS    48.52%

 Iter=  2 iFrag=      6 EFMO= -1507.519573594, DD= 0.057188200, DE=-0.475660779


 RHF      monomer      9 corr= NONE       , L1=   386, L0=   362 ID=      3


 AO spaces for     9     0     0 n-mer: L1=   386, L0=   362

 DIRECT SCF CALCULATION, SCHWRZ=T   FDIFF=T,  DIRTHR=  0.00E+00 NITDIR=10

                                                                                   NONZERO     BLOCKS
 ITER EX DEM     TOTAL ENERGY        E CHANGE  DENSITY CHANGE     ORB. GRAD      INTEGRALS    SKIPPED
   1  0  0    -1453.9868192443 -1453.9868192443   0.099594146   0.000000000      917383499   17507519
          ---------------START SECOND ORDER SCF---------------
   2  1  0    -1454.0116956843    -0.0248764400   0.025873362   0.003637030      881319281   18397887
   3  2  0    -1454.0137766061    -0.0020809219   0.012193028   0.003018525      848637565   18824826
   4  3  0    -1454.0140603026    -0.0002836965   0.004485759   0.000446150      808562308   19233540
   5  4  0    -1454.0139396819     0.0001206207   0.001116726   0.000216463      773272347   19576597
   6  5  0    -1454.0139561177    -0.0000164358   0.000268641   0.000114158      729538809   19965035
   7  6  0    -1454.0139755248    -0.0000194071   0.000101139   0.000050157      696012647   20248651
   8  7  0    -1454.0139760493    -0.0000005245   0.000048026   0.000024525      659413746   20562270
   9  8  0    -1454.0139752330     0.0000008162   0.000014535   0.000006766      620975866   20901574
  10  9  0    -1454.0139748393     0.0000003937   0.000004055   0.000002674      579441591   21212206
  11 10  0    -1454.0139748827    -0.0000000435   0.000001939   0.000000595      528771148   21644987
  12 11  0    -1454.0139749499    -0.0000000671   0.000000757   0.000000430      493976114   21934459
  13 12  0    -1454.0139749469     0.0000000030   0.000000251   0.000000127      445659827   22327642
  14 13  0    -1454.0139749361     0.0000000107   0.000000102   0.000000051      408945983   22624542

          -----------------
          DENSITY CONVERGED
          -----------------
     TIME TO FORM FOCK OPERATORS=      29.4 SECONDS (       2.1 SEC/ITER)
     FOCK TIME ON FIRST ITERATION=       3.4, LAST ITERATION=       1.2
     TIME TO SOLVE SCF EQUATIONS=       0.5 SECONDS (       0.0 SEC/ITER)

 FINAL RHF ENERGY IS    -1454.0139749361 AFTER  14 ITERATIONS
 ...... END OF RHF CALCULATION ......
 CPU     0: STEP CPU TIME=    65.27 TOTAL CPU TIME=        825.5 (     13.8 MIN)
 TOTAL WALL CLOCK TIME=       1705.1 SECONDS, CPU UTILIZATION IS    48.41%
 DONE PCM POT.
 CPU     0: STEP CPU TIME=     0.45 TOTAL CPU TIME=        826.0 (     13.8 MIN)
 TOTAL WALL CLOCK TIME=       1706.3 SECONDS, CPU UTILIZATION IS    48.41%

 Iter=  2 iFrag=      9 EFMO= -1507.437261025, DD= 0.116542451, DE=-0.437065925


 RHF      monomer      5 corr= NONE       , L1=   386, L0=   362 ID=      4


 AO spaces for     5     0     0 n-mer: L1=   386, L0=   362

 DIRECT SCF CALCULATION, SCHWRZ=T   FDIFF=T,  DIRTHR=  0.00E+00 NITDIR=10

                                                                                   NONZERO     BLOCKS
 ITER EX DEM     TOTAL ENERGY        E CHANGE  DENSITY CHANGE     ORB. GRAD      INTEGRALS    SKIPPED
   1  0  0    -1454.8812738687 -1454.8812738687   0.049526627   0.000000000      914364437   17632395
          ---------------START SECOND ORDER SCF---------------
   2  1  0    -1454.9003485868    -0.0190747181   0.029914628   0.004618599      880587341   18466355
   3  2  0    -1454.9022762737    -0.0019276869   0.010392939   0.003366417      845115732   18924572
   4  3  0    -1454.9018813724     0.0003949012   0.002021810   0.000816609      808440574   19309991
   5  4  0    -1454.9015371355     0.0003442369   0.000532613   0.000338408      774795632   19627911
   6  5  0    -1454.9015061792     0.0000309563   0.000273746   0.000122789      737579615   19961490
   7  6  0    -1454.9015424706    -0.0000362915   0.000151642   0.000073753      701583545   20255068
   8  7  0    -1454.9015459374    -0.0000034668   0.000046737   0.000020171      671777164   20515111
   9  8  0    -1454.9015432733     0.0000026641   0.000023673   0.000012176      627251611   20888503
  10  9  0    -1454.9015412690     0.0000020043   0.000008724   0.000002717      598335472   21104956
  11 10  0    -1454.9015412313     0.0000000377   0.000003467   0.000000997      540703566   21601691
  12 11  0    -1454.9015415477    -0.0000003164   0.000000829   0.000000532      507048966   21853500
  13 12  0    -1454.9015415950    -0.0000000473   0.000000255   0.000000092      454277788   22278292
  14 13  0    -1454.9015415713     0.0000000237   0.000000174   0.000000080      413722472   22589254
  15 14  0    -1454.9015415680     0.0000000033   0.000000054   0.000000011      373783738   22904745

          -----------------
          DENSITY CONVERGED
          -----------------
     TIME TO FORM FOCK OPERATORS=      33.2 SECONDS (       2.2 SEC/ITER)
     FOCK TIME ON FIRST ITERATION=       3.4, LAST ITERATION=       1.3
     TIME TO SOLVE SCF EQUATIONS=       0.6 SECONDS (       0.0 SEC/ITER)

 FINAL RHF ENERGY IS    -1454.9015415680 AFTER  15 ITERATIONS
 ...... END OF RHF CALCULATION ......
 CPU     0: STEP CPU TIME=    50.11 TOTAL CPU TIME=        876.1 (     14.6 MIN)
 TOTAL WALL CLOCK TIME=       1809.1 SECONDS, CPU UTILIZATION IS    48.43%
 DONE PCM POT.
 CPU     0: STEP CPU TIME=     0.44 TOTAL CPU TIME=        876.5 (     14.6 MIN)
 TOTAL WALL CLOCK TIME=       1810.4 SECONDS, CPU UTILIZATION IS    48.42%

 Iter=  2 iFrag=      5 EFMO= -1507.542362042, DD= 0.056687088, DE=-0.425843683


 RHF      monomer      7 corr= NONE       , L1=   386, L0=   362 ID=      5


 AO spaces for     7     0     0 n-mer: L1=   386, L0=   362

 DIRECT SCF CALCULATION, SCHWRZ=T   FDIFF=T,  DIRTHR=  0.00E+00 NITDIR=10

                                                                                   NONZERO     BLOCKS
 ITER EX DEM     TOTAL ENERGY        E CHANGE  DENSITY CHANGE     ORB. GRAD      INTEGRALS    SKIPPED
   1  0  0    -1446.0879400766 -1446.0879400766   0.048503491   0.000000000     1004187369   16771592
          ---------------START SECOND ORDER SCF---------------
   2  1  0    -1446.1164242334    -0.0284841568   0.032104829   0.004672356      964843135   17679610
   3  2  0    -1446.1187429015    -0.0023186681   0.010017627   0.003456870      929380387   18154842
   4  3  0    -1446.1192090487    -0.0004661471   0.002609728   0.000610011      890397132   18564283
   5  4  0    -1446.1191023618     0.0001066868   0.000960388   0.000501450      852075057   18930752
   6  5  0    -1446.1190694395     0.0000329224   0.000231460   0.000177018      814467210   19303162
   7  6  0    -1446.1190932699    -0.0000238304   0.000125119   0.000074408      771067790   19674001
   8  7  0    -1446.1190974141    -0.0000041442   0.000062485   0.000036362      736262833   19976607
   9  8  0    -1446.1190958824     0.0000015317   0.000018621   0.000010327      691613739   20396050
  10  9  0    -1446.1190947808     0.0000011016   0.000006859   0.000001255      652937307   20673531
  11 10  0    -1446.1190948208    -0.0000000399   0.000003062   0.000000757      593553760   21156472
  12 11  0    -1446.1190948668    -0.0000000461   0.000000666   0.000000258      540926506   21605342
  13 12  0    -1446.1190948883    -0.0000000215   0.000000260   0.000000085      493687788   21971865
  14 13  0    -1446.1190948896    -0.0000000013   0.000000108   0.000000048      436104361   22426408
  15 14  0    -1446.1190948900    -0.0000000004   0.000000057   0.000000020      389666744   22800423

          -----------------
          DENSITY CONVERGED
          -----------------
     TIME TO FORM FOCK OPERATORS=      34.1 SECONDS (       2.3 SEC/ITER)
     FOCK TIME ON FIRST ITERATION=       3.6, LAST ITERATION=       1.2
     TIME TO SOLVE SCF EQUATIONS=       0.6 SECONDS (       0.0 SEC/ITER)

 FINAL RHF ENERGY IS    -1446.1190948900 AFTER  15 ITERATIONS
 ...... END OF RHF CALCULATION ......
 CPU     0: STEP CPU TIME=    64.56 TOTAL CPU TIME=        941.1 (     15.7 MIN)
 TOTAL WALL CLOCK TIME=       1950.9 SECONDS, CPU UTILIZATION IS    48.24%
 DONE PCM POT.
 CPU     0: STEP CPU TIME=     0.43 TOTAL CPU TIME=        941.5 (     15.7 MIN)
 TOTAL WALL CLOCK TIME=       1952.1 SECONDS, CPU UTILIZATION IS    48.23%

 Iter=  2 iFrag=      7 EFMO= -1507.441796305, DD= 0.062458688, DE=-0.460358943


 RHF      monomer      8 corr= NONE       , L1=   371, L0=   348 ID=      6


 AO spaces for     8     0     0 n-mer: L1=   371, L0=   348

 DIRECT SCF CALCULATION, SCHWRZ=T   FDIFF=T,  DIRTHR=  0.00E+00 NITDIR=10

                                                                                   NONZERO     BLOCKS
 ITER EX DEM     TOTAL ENERGY        E CHANGE  DENSITY CHANGE     ORB. GRAD      INTEGRALS    SKIPPED
   1  0  0    -1391.9682697008 -1391.9682697008   0.079322507   0.000000000      763993075   15324910
          ---------------START SECOND ORDER SCF---------------
   2  1  0    -1391.9871698776    -0.0189001768   0.034200033   0.004745947      742063091   16039094
   3  2  0    -1391.9885156420    -0.0013457644   0.012748051   0.004410127      717352469   16407816
   4  3  0    -1391.9882852687     0.0002303733   0.003966436   0.000846301      694257000   16695741
   5  4  0    -1391.9880052033     0.0002800654   0.001383430   0.000641853      672946058   16930612
   6  5  0    -1391.9879243250     0.0000808784   0.000406052   0.000356713      648086390   17196387
   7  6  0    -1391.9879626776    -0.0000383527   0.000304615   0.000116858      619445150   17440395
   8  7  0    -1391.9879719557    -0.0000092781   0.000079948   0.000027798      599149066   17637968
   9  8  0    -1391.9879681968     0.0000037589   0.000030103   0.000008411      564479571   17951741
  10  9  0    -1391.9879662023     0.0000019945   0.000007890   0.000003114      538536097   18158494
  11 10  0    -1391.9879665065    -0.0000003042   0.000003415   0.000001662      495221897   18563083
  12 11  0    -1391.9879668469    -0.0000003405   0.000001128   0.000000638      462660314   18834798
  13 12  0    -1391.9879668556    -0.0000000087   0.000000389   0.000000205      425429873   19153114
  14 13  0    -1391.9879668435     0.0000000121   0.000000232   0.000000092      384197362   19500488
  15 14  0    -1391.9879668387     0.0000000049   0.000000062   0.000000027      358858506   19717493
  16 15  0    -1391.9879668381     0.0000000005   0.000000000   0.000000010      318245205   20027036

          -----------------
          DENSITY CONVERGED
          -----------------
     TIME TO FORM FOCK OPERATORS=      28.9 SECONDS (       1.8 SEC/ITER)
     FOCK TIME ON FIRST ITERATION=       2.6, LAST ITERATION=       1.2
     TIME TO SOLVE SCF EQUATIONS=       0.5 SECONDS (       0.0 SEC/ITER)

 FINAL RHF ENERGY IS    -1391.9879668381 AFTER  16 ITERATIONS
 ...... END OF RHF CALCULATION ......
 CPU     0: STEP CPU TIME=    47.10 TOTAL CPU TIME=        988.6 (     16.5 MIN)
 TOTAL WALL CLOCK TIME=       2050.0 SECONDS, CPU UTILIZATION IS    48.22%
 DONE PCM POT.
 CPU     0: STEP CPU TIME=     0.39 TOTAL CPU TIME=        989.0 (     16.5 MIN)
 TOTAL WALL CLOCK TIME=       2051.2 SECONDS, CPU UTILIZATION IS    48.22%

 Iter=  2 iFrag=      8 EFMO= -1432.613583621, DD= 0.090370650, DE=-0.408542379


 RHF      monomer      3 corr= NONE       , L1=   341, L0=   320 ID=      7


 AO spaces for     3     0     0 n-mer: L1=   341, L0=   320

 DIRECT SCF CALCULATION, SCHWRZ=T   FDIFF=T,  DIRTHR=  0.00E+00 NITDIR=10

                                                                                   NONZERO     BLOCKS
 ITER EX DEM     TOTAL ENERGY        E CHANGE  DENSITY CHANGE     ORB. GRAD      INTEGRALS    SKIPPED
   1  0  0    -1314.2814345471 -1314.2814345471   0.069113469   0.000000000      633458657   10752345
          ---------------START SECOND ORDER SCF---------------
   2  1  0    -1314.3035857052    -0.0221511581   0.030796712   0.005685071      609241541   11394007
   3  2  0    -1314.3055839178    -0.0019982127   0.010591525   0.002617271      586539420   11718281
   4  3  0    -1314.3057920271    -0.0002081093   0.002796766   0.000581800      561396949   12006388
   5  4  0    -1314.3057003918     0.0000916354   0.000846192   0.000245311      540734593   12218226
   6  5  0    -1314.3056805531     0.0000198387   0.000266550   0.000085610      514866450   12483485
   7  6  0    -1314.3056892301    -0.0000086770   0.000109783   0.000047302      485291526   12757780
   8  7  0    -1314.3056920228    -0.0000027927   0.000049420   0.000028225      465204880   12949604
   9  8  0    -1314.3056903798     0.0000016431   0.000013919   0.000004027      434042909   13246096
  10  9  0    -1314.3056899330     0.0000004468   0.000005078   0.000001527      412645512   13416275
  11 10  0    -1314.3056899911    -0.0000000581   0.000001688   0.000000798      373951681   13772850
  12 11  0    -1314.3056900604    -0.0000000693   0.000000601   0.000000264      348440687   14002023
  13 12  0    -1314.3056900766    -0.0000000162   0.000000188   0.000000061      312603236   14323169
  14 13  0    -1314.3056900770    -0.0000000004   0.000000102   0.000000026      283505568   14561380

          -----------------
          DENSITY CONVERGED
          -----------------
     TIME TO FORM FOCK OPERATORS=      22.0 SECONDS (       1.6 SEC/ITER)
     FOCK TIME ON FIRST ITERATION=       2.6, LAST ITERATION=       0.9
     TIME TO SOLVE SCF EQUATIONS=       0.4 SECONDS (       0.0 SEC/ITER)

 FINAL RHF ENERGY IS    -1314.3056900770 AFTER  14 ITERATIONS
 ...... END OF RHF CALCULATION ......
 CPU     0: STEP CPU TIME=    49.66 TOTAL CPU TIME=       1038.7 (     17.3 MIN)
 TOTAL WALL CLOCK TIME=       2154.4 SECONDS, CPU UTILIZATION IS    48.21%
 DONE PCM POT.
 CPU     0: STEP CPU TIME=     0.34 TOTAL CPU TIME=       1039.0 (     17.3 MIN)
 TOTAL WALL CLOCK TIME=       2155.4 SECONDS, CPU UTILIZATION IS    48.20%

 Iter=  2 iFrag=      3 EFMO= -1360.732743865, DD= 0.079561680, DE=-0.430834065


 RHF      monomer      2 corr= NONE       , L1=   341, L0=   320 ID=      8

