‘1F5G_3_fmo_input.inp’ -> ‘/scratch/hazwong/820707/./1F5G_3_fmo_input.inp’
‘rungms’ -> ‘/scratch/hazwong/820707/./rungms’
‘gms-files.csh’ -> ‘/scratch/hazwong/820707/./gms-files.csh’
----- GAMESS execution script 'rungms' -----
This job is running on host gollum085.lsa.umich.edu
under operating system Linux at Thu Dec 5 23:25:02 EST 2019
Available scratch disk space (Kbyte units) at beginning of the job is
Filesystem     1K-blocks  Used Available Use% Mounted on
/dev/sda4      426933580 33424 426900156   1% /scratch
GAMESS temporary binary files will be written to /scratch/hazwong/820707/1F5G_3/usrc
GAMESS supplementary output files will be written to /scratch/hazwong/820707/1F5G_3/src
Copying input file 1F5G_3_fmo_input.inp to your run's scratch directory...
cp 1F5G_3_fmo_input.inp /scratch/hazwong/820707/1F5G_3/usrc/1F5G_3_fmo_input.F05
unset echo
This is a GDDI run, keeping various output files on local disks
setenv OUTPUT /scratch/hazwong/820707/1F5G_3/usrc/1F5G_3_fmo_input.F06
setenv PUNCH /scratch/hazwong/820707/1F5G_3/usrc/1F5G_3_fmo_input.F07
unset echo
 
Assuming a single but multicore node.
 
/export/apps/CentOS7/gamess/src/build//ddikick.x /export/apps/CentOS7/gamess/src/build//gamess.R3.x 1F5G_3_fmo_input -ddi 1 16 gollum085.lsa.umich.edu:cpus=16 -scr /scratch/hazwong/820707/1F5G_3/usrc

 Distributed Data Interface kickoff program.
 Initiating 16 compute processes on 1 nodes to run the following command:
 /export/apps/CentOS7/gamess/src/build//gamess.R3.x 1F5G_3_fmo_input 

          ******************************************************
          *         GAMESS VERSION = 30 SEP 2018 (R3)         *
          *             FROM IOWA STATE UNIVERSITY             *
          * M.W.SCHMIDT, K.K.BALDRIDGE, J.A.BOATZ, S.T.ELBERT, *
          *   M.S.GORDON, J.H.JENSEN, S.KOSEKI, N.MATSUNAGA,   *
          *          K.A.NGUYEN, S.J.SU, T.L.WINDUS,           *
          *       TOGETHER WITH M.DUPUIS, J.A.MONTGOMERY       *
          *         J.COMPUT.CHEM.  14, 1347-1363(1993)        *
          **************** 64 BIT LINUX VERSION ****************

  SINCE 1993, STUDENTS AND POSTDOCS WORKING AT IOWA STATE UNIVERSITY
  AND ALSO IN THEIR VARIOUS JOBS AFTER LEAVING ISU HAVE MADE IMPORTANT
  CONTRIBUTIONS TO THE CODE:
     IVANA ADAMOVIC, CHRISTINE AIKENS, YURI ALEXEEV, POOJA ARORA,
     ANDREY ASADCHEV, ROB BELL, PRADIPTA BANDYOPADHYAY, JONATHAN BENTZ,
     BRETT BODE, KURT BRORSEN, CALEB CARLIN, GALINA CHABAN, WEI CHEN,
     CHEOL HO CHOI, PAUL DAY, ALBERT DEFUSCO, NUWAN DESILVA, TIM DUDLEY,
     DMITRI FEDOROV, ALEX FINDLATER, GRAHAM FLETCHER, MARK FREITAG,
     KURT GLAESEMANN, ANASTASIA GUNINA,
     DAN KEMP, GRANT MERRILL, NORIYUKI MINEZAWA, JONATHAN MULLIN,
     TAKESHI NAGATA, SEAN NEDD, HEATHER NETZLOFF, BOSILJKA NJEGIC, RYAN OLSON,
     MIKE PAK, BUU PHAM,
     SPENCER PRUITT, LUKE ROSKOP, JIM SHOEMAKER, LYUDMILA SLIPCHENKO,
     TONY SMITH, SAROM SOK LEANG, JIE SONG, TETSUYA TAKETSUGU, SIMON WEBB,
     PENG XU, SOOHAENG YOO, FEDERICO ZAHARIEV

  ADDITIONAL CODE HAS BEEN PROVIDED BY COLLABORATORS IN OTHER GROUPS:
     IOWA STATE UNIVERSITY:
          JOE IVANIC, AARON WEST, LAIMUTIS BYTAUTAS, KLAUS RUEDENBERG
     UNIVERSITY OF TOKYO: KIMIHIKO HIRAO, TAKAHITO NAKAJIMA,
          TAKAO TSUNEDA, MUNEAKI KAMIYA, SUSUMU YANAGISAWA,
          KIYOSHI YAGI, MAHITO CHIBA, SEIKEN TOKURA, NAOAKI KAWAKAMI
     UNIVERSITY OF AARHUS: FRANK JENSEN
     UNIVERSITY OF IOWA: VISVALDAS KAIRYS, HUI LI
     NATIONAL INST. OF STANDARDS AND TECHNOLOGY: WALT STEVENS, DAVID GARMER
     UNIVERSITY OF PISA: BENEDETTA MENNUCCI, JACOPO TOMASI
     UNIVERSITY OF MEMPHIS: HENRY KURTZ, PRAKASHAN KORAMBATH
     UNIVERSITY OF ALBERTA: TOBY ZENG, MARIUSZ KLOBUKOWSKI
     UNIVERSITY OF NEW ENGLAND: MARK SPACKMAN
     MIE UNIVERSITY: HIROAKI UMEDA
     NAT. INST. OF ADVANCED INDUSTRIAL SCIENCE AND TECHNOLOGY: KAZUO KITAURA
     MICHIGAN STATE UNIVERSITY:
          KAROL KOWALSKI, MARTA WLOCH, JEFFREY GOUR, JESSE LUTZ,
          WEI LI, JUN SHEN, J. EMILIANO DEUSTUA, PIOTR PIECUCH
     UNIVERSITY OF MINNESOTA:
          YINAN SHU
     UNIVERSITY OF SILESIA: MONIKA MUSIAL, STANISLAW KUCHARSKI
     FACULTES UNIVERSITAIRES NOTRE-DAME DE LA PAIX:
          OLIVIER QUINET, BENOIT CHAMPAGNE
     UNIVERSITY OF CALIFORNIA - SANTA BARBARA: BERNARD KIRTMAN
     INSTITUTE FOR MOLECULAR SCIENCE:
          KAZUYA ISHIMURA, MICHIO KATOUDA, AND SHIGERU NAGASE
     UNIVERSITY OF NOTRE DAME: ANNA POMOGAEVA, DAN CHIPMAN
     KYUSHU UNIVERSITY:
          HARUYUKI NAKANO,
          FENG LONG GU, JACEK KORCHOWIEC, MARCIN MAKOWSKI, AND YURIKO AOKI,
          HIROTOSHI MORI AND EISAKU MIYOSHI
     PENNSYLVANIA STATE UNIVERSITY:
          TZVETELIN IORDANOV, CHET SWALINA, JONATHAN SKONE,
          SHARON HAMMES-SCHIFFER
     WASEDA UNIVERSITY:
          MASATO KOBAYASHI, TOMOKO AKAMA, TSUGUKI TOUMA,
          TAKESHI YOSHIKAWA, YASUHIRO IKABATA, JUNJI SEINO,
          YUYA NAKAJIMA, HIROMI NAKAI
     NANJING UNIVERSITY: SHUHUA LI
     UNIVERSITY OF NEBRASKA:
          PEIFENG SU, DEJUN SI, NANDUN THELLAMUREGE, YALI WANG, HUI LI
     UNIVERSITY OF ZURICH: ROBERTO PEVERATI, KIM BALDRIDGE
     N. COPERNICUS UNIVERSITY AND JACKSON STATE UNIVERSITY:
          MARIA BARYSZ
     UNIVERSITY OF COPENHAGEN: Jimmy Kromann, CASPER STEINMANN
     TOKYO INSTITUTE OF TECHNOLOGY: HIROYA NAKATA
     NAGOYA UNIVERSITY: YOSHIO NISHIMOTO, STEPHAN IRLE
     MOSCOW STATE UNIVERSITY: VLADIMIR MIRONOV


 PARALLEL VERSION RUNNING ON       16 PROCESSORS IN        1 NODES.

 EXECUTION OF GAMESS BEGUN Thu Dec  5 23:25:03 2019

            ECHO OF THE FIRST FEW INPUT CARDS -
 INPUT CARD>!*** FMO 5.3 (Gamess) INPUT generated by Facio 22.1.1.32 ***                    
 INPUT CARD> $CONTRL RUNTYP=ENERGY NPRINT=-5 ISPHER=1 MAXIT=200 $END                        
 INPUT CARD> $SYSTEM MWORDS=63 MEMDDI=63 $END                                               
 INPUT CARD> $GDDI NGROUP=1 $END                                                            
 INPUT CARD> $SCF DIRSCF=.TRUE. NPUNCH=0 $END                                               
 INPUT CARD>!*** NumCPU : 2  MemPerNode : 512MB                                             
 INPUT CARD> $PCM SOLVNT=WATER IEF=-10 ICOMP=2 ICAV=1 IDISP=1 IFMO=-1 $END                  
 INPUT CARD> $PCMCAV RADII=SUAHF $END                                                       
 INPUT CARD> $TESCAV NTSALL=60 $END                                                         
 INPUT CARD> $FMOPRP                                                                        
 INPUT CARD>    NAODIR=200                                                                  
 INPUT CARD>    NGRFMO(1)=1, 1, 0, 0, 0,   0, 0, 0, 0, 0                                    
 INPUT CARD>    IPIEDA=1                                                                    
 INPUT CARD>    NPRINT=9                                                                    
 INPUT CARD> $END                                                                           
 INPUT CARD> $FMO                                                                           
 INPUT CARD>      SCFTYP(1)=RHF                                                             
 INPUT CARD>      MODGRD=10                                                                 
 INPUT CARD>      MODMUL=0                                                                  
 INPUT CARD>      MAXCAO=5                                                                  
 INPUT CARD>      MAXBND=12                                                                 
 INPUT CARD>      NLAYER=1                                                                  
 INPUT CARD>      MPLEVL(1)=2                                                               
 INPUT CARD>      NFRAG=10                                                                  
 INPUT CARD>      ICHARG(1)=-1, -1, -1, -1, 0, -1, -1, -1, -1, 0                            
 INPUT CARD>      FRGNAM(1)=F1, F2, F3, F4, F5, F6, F7, F8, F9, F10                         
 INPUT CARD>      indat(1)=0                                                                
 INPUT CARD>               1   -33   0                                                      
 INPUT CARD>               34   -66   0                                                     
 INPUT CARD>               67   -100   0                                                    
 INPUT CARD>               101   -134   0                                                   
 INPUT CARD>               135   -164   0                                                   
 INPUT CARD>               165   -198   0                                                   
 INPUT CARD>               199   -229   0                                                   
 INPUT CARD>               230   -263   0                                                   
 INPUT CARD>               264   -293   0                                                   
 INPUT CARD>               294   -324   0                                                   
 INPUT CARD> $END                                                                           
 INPUT CARD>                                                                                
 INPUT CARD> $FMOBND                                                                        
 INPUT CARD>   -34   33       6-31G*    MINI                                                
 INPUT CARD>   -67   66       6-31G*    MINI                                                
 INPUT CARD>   -101   100       6-31G*    MINI                                              
 INPUT CARD>   -135   134       6-31G*    MINI                                              
 INPUT CARD>   -165   164       6-31G*    MINI                                              
 INPUT CARD>   -199   198       6-31G*    MINI                                              
 INPUT CARD>   -230   229       6-31G*    MINI                                              
 INPUT CARD>   -264   263       6-31G*    MINI                                              
 INPUT CARD>   -294   293       6-31G*    MINI                                              
 INPUT CARD> $END                                                                           


 -------------------------------------------------------------
 GROUP DDI, PROGRAMMED BY: RYAN M. OLSON AND DMITRI G. FEDOROV
        FEDOROV ET AL., J. COMPUT. CHEM., 25 (2004) 872.
 -------------------------------------------------------------

 -------------------------------------------------------
 GDDI: INITIALIZATION COMPLETED FOR GROUP     1 OF     1
 WITH    16 PROCESSES BALTYP=DLB   global rank=        0
 -------------------------------------------------------

   63000000 WORDS OF MEMORY AVAILABLE


     RUN TITLE
     ---------
  FMO calculation                                                                

 THE POINT GROUP OF THE MOLECULE IS C1      
 THE ORDER OF THE PRINCIPAL AXIS IS     0

 ATOM   ATOMIC CHARGE
 H.1-1       1.0
 O.1-1       8.0
 C.1-1       6.0
 N.1-1       7.0
 P.1-1      15.0

     ATOMIC BASIS SET LIBRARY
     ----------------
 THE CONTRACTED PRIMITIVE FUNCTIONS HAVE BEEN UNNORMALIZED
 THE CONTRACTED BASIS FUNCTIONS ARE NOW NORMALIZED TO UNITY

  SHELL TYPE  PRIMITIVE        EXPONENT          CONTRACTION COEFFICIENT(S)

 H.1-1     

      1   S       1            18.7311370    0.033494604338
      1   S       2             2.8253944    0.234726953484
      1   S       3             0.6401217    0.813757326146

      2   S       4             0.1612778    1.000000000000

 O.1-1     

      3   S       5          5484.6716600    0.001831074430
      3   S       6           825.2349460    0.013950172200
      3   S       7           188.0469580    0.068445078098
      3   S       8            52.9645000    0.232714335992
      3   S       9            16.8975704    0.470192897984
      3   S      10             5.7996353    0.358520852987

      4   L      11            15.5396162   -0.110777549525    0.070874268231
      4   L      12             3.5999336   -0.148026262701    0.339752839147
      4   L      13             1.0137618    1.130767015354    0.727158577316

      5   L      14             0.2700058    1.000000000000    1.000000000000

      6   D      15             0.8000000    1.000000000000

 C.1-1     

      7   S      16          3047.5248800    0.001834737132
      7   S      17           457.3695180    0.014037322813
      7   S      18           103.9486850    0.068842622264
      7   S      19            29.2101553    0.232184443216
      7   S      20             9.2866630    0.467941348435
      7   S      21             3.1639270    0.362311985337

      8   L      22             7.8682723   -0.119332419775    0.068999066591
      8   L      23             1.8812885   -0.160854151696    0.316423960957
      8   L      24             0.5442493    1.143456437840    0.744308290898

      9   L      25             0.1687145    1.000000000000    1.000000000000

     10   D      26             0.8000000    1.000000000000

 N.1-1     

     11   S      27          4173.5114600    0.001834772160
     11   S      28           627.4579110    0.013994627002
     11   S      29           142.9020930    0.068586551812
     11   S      30            40.2343293    0.232240873040
     11   S      31            12.8202129    0.469069948082
     11   S      32             4.3904370    0.360455199063

     12   L      33            11.6263619   -0.114961181702    0.067579743878
     12   L      34             2.7162798   -0.169117478561    0.323907295893
     12   L      35             0.7722184    1.145851947027    0.740895139755

     13   L      36             0.2120315    1.000000000000    1.000000000000

     14   D      37             0.8000000    1.000000000000

 P.1-1     

     15   S      38         19413.3000000    0.001851598923
     15   S      39          2909.4200000    0.014206191735
     15   S      40           661.3640000    0.069999459277
     15   S      41           185.7590000    0.240078860331
     15   S      42            59.1943000    0.484761717984
     15   S      43            20.0310000    0.335199804993

     16   L      44           339.4780000   -0.002782170105    0.004564616191
     16   L      45            81.0101000   -0.036049901354    0.033693571881
     16   L      46            25.8780000   -0.116631004382    0.139754883368
     16   L      47             9.4522100    0.096832803638    0.339361716786
     16   L      48             3.6656600    0.614418023082    0.450920623685
     16   L      49             1.4674600    0.403798015170    0.238585800889

     17   L      50             2.1562300   -0.252924113863   -0.017765312733
     17   L      51             0.7489970    0.032851844678    0.274058196433
     17   L      52             0.2831450    1.081254761783    0.785421562957

     18   L      53             0.0998317    1.000000000000    1.000000000000

     19   D      54             0.5500000    1.000000000000

 TOTAL NUMBER OF BASIS SET SHELLS             =   19
 NUMBER OF CARTESIAN GAUSSIAN BASIS FUNCTIONS =   66

     $CONTRL OPTIONS
     ---------------
 SCFTYP=RHF          RUNTYP=ENERGY       EXETYP=RUN     
 MPLEVL=       0     CITYP =NONE         CCTYP =NONE         VBTYP =NONE    
 DFTTYP=NONE         TDDFT =NONE    
 MULT  =       1     ICHARG=       0     NZVAR =       0     COORD =UNIQUE  
 PP    =NONE         RELWFN=NONE         LOCAL =NONE         NUMGRD=       F
 ISPHER=       1     NOSYM =       0     MAXIT =     200     UNITS =ANGS    
 PLTORB=       F     MOLPLT=       F     AIMPAC=       F     FRIEND=        
 NPRINT=      -5     IREST =       0     GEOM  =INPUT   
 NORMF =       0     NORMP =       0     ITOL  =      24     ICUT  =      12
 INTTYP=BEST         GRDTYP=BEST         QMTTOL= 1.0E-06

     $SYSTEM OPTIONS
     ---------------
  REPLICATED MEMORY=    63000000 WORDS (ON EVERY NODE).
 DISTRIBUTED MEMDDI=          63 MILLION WORDS IN AGGREGATE,
 MEMDDI DISTRIBUTED OVER  16 PROCESSORS IS     3937500 WORDS/PROCESSOR.
 TOTAL MEMORY REQUESTED ON EACH PROCESSOR=    66937500 WORDS.
 TIMLIM=      525600.00 MINUTES, OR     365.0 DAYS.
 PARALL= T  BALTYP=  DLB     KDIAG=    0  COREFL= F
 MXSEQ2=     300 MXSEQ3=     150  mem10=         0

 ** LOOKING UP INTERNALLY STORED DATA FOR SOLVENT=WATER    **
 OPTICAL AND PHYSICAL CONSTANTS:
 EPS= 78.390; EPSINF=  1.776; RSOLV=  1.385 A; VMOL=  18.070 ML/MOL;
 TCE= .25700E-03 1/K; STEN= 71.810 DYN/CM;  DSTEN=  0.6500; CMF=  1.2770


     -----------------------------------
     INPUT FOR PCM SOLVATION CALCULATION 
     -----------------------------------
     IEF   =     -10
     ICOMP =       2     IFIELD=       0     ICAV  =       1
     IDISP =       1     IREP  =       0     IDP   =       0

     SOLVNT=WATER        EPS   = 78.3900     EPSINF=  1.7760
     VMOL  = 18.0700     TCE   =  0.00025700 STEN  = 71.8100
     DSTEN =  0.6500     CMF   =  1.2770     RSOLV =  1.3850

     NESFP =       0
     OMEGA = 40.0000     RET   =100.0000     FRO   =  0.7000

     TABS  =298.0000     IPRINT=       0

     --------------------------------
     INPUT FOR ITERATIVE C-PCM METHOD 
     --------------------------------
     IPCMIT  =         1     MXDIIS  =        50
     MXITR1  =       200     MXITR2  =       200
     THRES   = 0.100E-09     IMUL    =         3
     RCUT(1) =   20.0000     RCUT(2) =   50.0000

     IDIRCT  =         1
     IMGABI  =         0     RABI    =    4.0000
     IMGASC  =         0     RASC    =   20.0000
     THRSLS  = 0.500E-03     DENSLS  =    0.0100
     IEFPOL  =         1     REFPOL  =    0.0000

     INPUT FOR ISOTROPIC DIELECTRICS
     -------------------------------
     EPS=    78.39

          ----------------
          PROPERTIES INPUT
          ----------------

     MOMENTS            FIELD           POTENTIAL          DENSITY
 IEMOM =       1   IEFLD =       0   IEPOT =       0   IEDEN =       0
 WHERE =COMASS     WHERE =NUCLEI     WHERE =NUCLEI     WHERE =NUCLEI  
 OUTPUT=BOTH       OUTPUT=BOTH       OUTPUT=NONE       OUTPUT=BOTH    
 IEMINT=       0   IEFINT=       0                     IEDINT=       0
                                                       MORB  =       0
          EXTRAPOLATION IN EFFECT
          SOSCF IN EFFECT
 ORBITAL PRINTING OPTION: NPREO=     1 32767     2     1

     -------------------------------
     INTEGRAL TRANSFORMATION OPTIONS
     -------------------------------
     NWORD  =            0
     CUTOFF = 1.0E-10     MPTRAN =       0
     DIRTRF =       T     AOINTS =DUP     

          ----------------------
          INTEGRAL INPUT OPTIONS
          ----------------------
 NOPK  =       1 NORDER=       0 SCHWRZ=       T

 ..... DONE SETTING UP THE RUN .....
 CPU     0: STEP CPU TIME=     0.04 TOTAL CPU TIME=          0.0 (      0.0 MIN)
 TOTAL WALL CLOCK TIME=          0.1 SECONDS, CPU UTILIZATION IS    57.14%
 CPU     0: STEP CPU TIME=     0.00 TOTAL CPU TIME=          0.0 (      0.0 MIN)
 TOTAL WALL CLOCK TIME=          0.1 SECONDS, CPU UTILIZATION IS    57.14%

                    ----------------------
                    AO INTEGRAL TECHNOLOGY
                    ----------------------
     S,P,L SHELL ROTATED AXIS INTEGRALS, REPROGRAMMED BY
        KAZUYA ISHIMURA (IMS) AND JOSE SIERRA (SYNSTAR).
     S,P,D,L SHELL ROTATED AXIS INTEGRALS PROGRAMMED BY
        KAZUYA ISHIMURA (INSTITUTE FOR MOLECULAR SCIENCE).
     S,P,D,F,G SHELL TO TOTAL QUARTET ANGULAR MOMENTUM SUM 5,
        ERIC PROGRAM BY GRAHAM FLETCHER (ELORET AND NASA ADVANCED
        SUPERCOMPUTING DIVISION, AMES RESEARCH CENTER).
     S,P,D,F,G,L SHELL GENERAL RYS QUADRATURE PROGRAMMED BY
        MICHEL DUPUIS (PACIFIC NORTHWEST NATIONAL LABORATORY).
 Setting modorb=1 flag...
 Setting modorb=1 flag...

          -----------------------
          MP2 CONTROL INFORMATION
          -----------------------
          NACORE =        8  NBCORE =        8
          LMOMP2 =        F  AOINTS = DUP     
          METHOD =        2  NWORD  =               0
          MP2PRP =        F  OSPT   = NONE    
          CUTOFF = 1.00E-12  CPHFBS = BASISAO 
          CODE   = IMS     

          NUMBER OF CORE -A-  ORBITALS =     8
          NUMBER OF CORE -B-  ORBITALS =     8
          NUMBER OF OCC. -A-  ORBITALS =    18
          NUMBER OF OCC. -B-  ORBITALS =    18
          NUMBER OF MOLECULAR ORBITALS =    66
          NUMBER OF   BASIS  FUNCTIONS =    66

 CPU     0: STEP CPU TIME=     0.03 TOTAL CPU TIME=          0.1 (      0.0 MIN)
 TOTAL WALL CLOCK TIME=          0.1 SECONDS, CPU UTILIZATION IS    70.00%
 CPU     0: STEP CPU TIME=     0.00 TOTAL CPU TIME=          0.1 (      0.0 MIN)
 TOTAL WALL CLOCK TIME=          0.1 SECONDS, CPU UTILIZATION IS    63.64%

     INPUT FOR CAVITY DEFINITION 
     ---------------------------
   ATOM               COORDINATES                RADIUS       EPS
      1     -5.4110     11.3730     -6.0530      0.0100     78.3900
      2     -4.5090     11.2920     -6.4180      1.5900     78.3900
      3     -4.5700     11.7200     -7.7860      1.7700     78.3900
      4     -4.9370     12.7710     -7.8220      0.0100     78.3900
      5     -5.3000     11.0810     -8.3290      0.0100     78.3900
      6     -3.2200     11.6390     -8.5110      1.7700     78.3900
      7     -3.3230     11.9360     -9.5760      0.0100     78.3900
      8     -2.2650     12.5520     -7.8920      1.5900     78.3900
      9     -0.9860     11.9280     -7.8520      1.7700     78.3900
     10     -0.2890     12.6250     -8.3680      0.0100     78.3900
     11     -0.4930     11.7010     -6.4640      1.6800     78.3900
     12     -1.3710     11.7180     -5.4050      1.7700     78.3900
     13     -2.4170     11.9160     -5.6450      0.0100     78.3900
     14     -0.9530     11.5390     -4.1450      1.7700     78.3900
     15     -1.6330     11.5740     -3.2970      0.0100     78.3900
     16      0.8570     11.4410     -6.2360      1.7700     78.3900
     17      1.6370     11.3960     -7.1960      1.5900     78.3900
     18      1.3000     11.2690     -4.9680      1.6800     78.3900
     19      0.4380     11.3220     -3.9380      1.7700     78.3900
     20      0.9030     11.1770     -2.6980      1.6800     78.3900
     21      1.8770     10.9830     -2.5550      0.0100     78.3900
     22      0.2990     11.2060     -1.9010      0.0100     78.3900
     23     -1.0800     10.6490     -8.6620      1.7700     78.3900
     24     -0.3920      9.8590     -8.2980      0.0100     78.3900
     25     -0.8080     10.9270    -10.0230      1.5900     78.3900
     26     -0.9350     10.1030    -10.5090      0.0100     78.3900
     27     -2.5390     10.2610     -8.4550      1.7700     78.3900
     28     -2.6910      9.8680     -7.4230      0.0100     78.3900
     29     -3.0970      9.4000     -9.4740      1.5900     78.3900
     30     -3.0020      7.8370     -9.3090      2.1000     78.3900
     31     -3.4790      7.4810     -7.9530      1.5900     78.3900
     32     -3.7040      7.2050    -10.4490      1.5900     78.3900
     33     -1.4540      7.5410     -9.4170      1.5900     78.3900
     34     -0.8080      7.6060    -10.7140      1.7700     78.3900
     35     -0.8980      8.6180    -11.1680      0.0100     78.3900
     36     -1.2650      6.8780    -11.4230      0.0100     78.3900
     37      0.6860      7.2730    -10.6120      1.7700     78.3900
     38      1.1780      7.3410    -11.6040      0.0100     78.3900
     39      1.3430      8.2290     -9.7370      1.5900     78.3900
     40      2.3200      7.5510     -8.9660      1.7700     78.3900
     41      3.2860      8.0790     -9.1440      0.0100     78.3900
     42      1.9950      7.6040     -7.5430      1.6800     78.3900
     43      2.1470      7.6370     -5.3550      1.7700     78.3900
     44      0.7980      7.8260     -5.6510      1.6800     78.3900
     45      0.7660      7.8070     -6.9600      1.7700     78.3900
     46     -0.1290      7.9460     -7.5650      0.0100     78.3900
     47      4.1990      7.3820     -4.2040      1.6800     78.3900
     48      4.7550      7.1750     -5.3950      1.7700     78.3900
     49      5.8290      6.9730     -5.3650      0.0100     78.3900
     50      4.2080      7.2510     -6.6120      1.6800     78.3900
     51      2.8870      7.4790     -6.5160      1.7700     78.3900
     52      2.8640      7.6070     -4.1400      1.7700     78.3900
     53      2.3010      7.7940     -2.9360      1.6800     78.3900
     54      1.3110      7.8950     -2.8210      0.0100     78.3900
     55      2.8600      7.6530     -2.1120      0.0100     78.3900
     56      2.4220      6.1310     -9.4870      1.7700     78.3900
     57      2.6890      5.3950     -8.6950      0.0100     78.3900
     58      3.3680      6.0680    -10.5420      1.5900     78.3900
     59      3.3380      5.1610    -10.8820      0.0100     78.3900
     60      1.0070      5.9000    -10.0060      1.7700     78.3900
     61      0.2960      5.7480     -9.1600      0.0100     78.3900
     62      0.8870      4.8740    -11.0200      1.5900     78.3900
     63      0.8660      3.3710    -10.5370      2.1000     78.3900
     64      0.0500      3.2950     -9.2980      1.5900     78.3900
     65      0.4480      2.5310    -11.6760      1.5900     78.3900
     66      2.3770      3.0550    -10.2060      1.5900     78.3900
     67      2.6820      2.0020     -9.2580      1.7700     78.3900
     68      2.3730      1.0120     -9.6620      0.0100     78.3900
     69      2.1280      2.1450     -8.3040      0.0100     78.3900
     70      4.1900      1.9400     -8.9390      1.7700     78.3900
     71      4.7760      1.7820     -9.8690      0.0100     78.3900
     72      4.6540      3.1920     -8.3480      1.5900     78.3900
     73      5.5270      2.9160     -7.2580      1.7700     78.3900
     74      6.4430      3.5180     -7.4530      0.0100     78.3900
     75      4.9720      3.3040     -5.9380      1.6800     78.3900
     76      3.6740      3.6260     -5.5990      1.7700     78.3900
     77      0.3580      3.9650     -6.5270      1.6800     78.3900
     78     -0.5250      4.1740     -6.1080      0.0100     78.3900
     79      0.3970      3.7340     -7.5040      0.0100     78.3900
     80      2.6170      3.6610     -6.4280      1.6800     78.3900
     81      1.4830      3.9510     -5.8340      1.7700     78.3900
     82      1.4030      4.2450     -4.5050      1.6800     78.3900
     83      0.5050      4.4550     -4.1080      0.0100     78.3900
     84      2.4760      4.2440     -3.6210      1.7700     78.3900
     85      2.2820      4.5380     -2.4480      1.5900     78.3900
     86      3.6990      3.8990     -4.2530      1.7700     78.3900
     87      4.9840      3.7610     -3.7400      1.6800     78.3900
     88      5.7020      3.4060     -4.7740      1.7700     78.3900
     89      6.7780      3.2170     -4.7440      0.0100     78.3900
     90      5.8610      1.4440     -7.3160      1.7700     78.3900
     91      6.0570      1.0020     -6.3160      0.0100     78.3900
     92      6.9810      1.2380     -8.1580      1.5900     78.3900
     93      6.9790      0.3040     -8.4150      0.0100     78.3900
     94      4.5880      0.8590     -7.9160      1.7700     78.3900
     95      3.7750      0.8350     -7.1510      0.0100     78.3900
     96      4.7850     -0.4100     -8.5770      1.5900     78.3900
     97      4.4300     -1.7620     -7.8560      2.1000     78.3900
     98      2.9900     -1.7440     -7.5090      1.5900     78.3900
     99      4.8820     -2.8790     -8.7200      1.5900     78.3900
    100      5.2640     -1.7440     -6.5150      1.5900     78.3900
    101      6.6980     -1.9430     -6.5490      1.7700     78.3900
    102      7.2030     -1.1740     -7.1760      0.0100     78.3900
    103      6.9520     -2.9350     -6.9820      0.0100     78.3900
    104      7.3120     -1.8810     -5.1510      1.7700     78.3900
    105      8.4060     -2.0760     -5.1870      0.0100     78.3900
    106      7.1280     -0.5460     -4.6000      1.5900     78.3900
    107      6.8210     -0.6490     -3.2190      1.7700     78.3900
    108      7.5600     -0.0160     -2.6760      0.0100     78.3900
    109      5.4590     -0.1540     -2.9370      1.6800     78.3900
    110      4.9270      0.1250     -1.7050      1.7700     78.3900
    111      5.2150      0.2210      1.7470      1.6800     78.3900
    112      6.1220     -0.1620      1.9130      0.0100     78.3900
    113      4.6310      0.4440      2.5340      0.0100     78.3900
    114      5.5520     -0.0270     -0.5170      1.6800     78.3900
    115      4.7840      0.3390      0.5040      1.7700     78.3900
    116      3.5050      0.8090      0.3510      1.6800     78.3900
    117      3.0120      1.1130      1.1750      0.0100     78.3900
    118      2.8440      1.0040     -0.8570      1.7700     78.3900
    119      1.6850      1.4330     -0.8980      1.5900     78.3900
    120      3.6420      0.5840     -1.9550      1.7700     78.3900
    121      3.3610      0.5710     -3.3200      1.6800     78.3900
    122      4.4760      0.1400     -3.8610      1.7700     78.3900
    123      4.6550      0.0160     -4.9320      0.0100     78.3900
    124      7.0150     -2.1000     -2.8210      1.7700     78.3900
    125      6.3410     -2.4140     -1.9990      0.0100     78.3900
    126      8.3610     -2.3230     -2.4430      1.5900     78.3900
    127      8.4690     -3.2770     -2.3450      0.0100     78.3900
    128      6.6840     -2.8210     -4.1150      1.7700     78.3900
    129      5.5860     -2.7910     -4.2960      0.0100     78.3900
    130      7.2550     -4.1450     -4.2280      1.5900     78.3900
    131      6.3340     -5.4000     -3.9870      2.1000     78.3900
    132      5.0150     -5.1690     -4.6110      1.5900     78.3900
    133      7.0690     -6.6150     -4.4070      1.5900     78.3900
    134      6.1590     -5.4110     -2.4220      1.5900     78.3900
    135      7.2900     -5.7120     -1.5720      1.7700     78.3900
    136      8.1450     -5.0230     -1.7700      0.0100     78.3900
    137      7.6420     -6.7550     -1.7540      0.0100     78.3900
    138      6.9180     -5.5970     -0.0870      1.7700     78.3900
    139      7.7700     -5.8840      0.5640      0.0100     78.3900
    140      6.5840     -4.2140      0.2270      1.5900     78.3900
    141      5.4910     -4.1910      1.1380      1.7700     78.3900
    142      5.8480     -3.6100      2.0200      0.0100     78.3900
    143      4.2880     -3.5180      0.5680      1.6800     78.3900
    144      4.1530     -3.3740     -0.7930      1.7700     78.3900
    145      4.9750     -3.7520     -1.3970      0.0100     78.3900
    146      3.0970     -2.7510     -1.3320      1.7700     78.3900
    147      3.0000     -2.5950     -2.4030      0.0100     78.3900
    148      3.2820     -3.0560      1.4110      1.7700     78.3900
    149      3.3960     -3.2200      2.6330      1.5900     78.3900
    150      2.2010     -2.4320      0.8850      1.6800     78.3900
    151      2.0910     -2.2740     -0.4440      1.7700     78.3900
    152      1.0240     -1.6440     -0.9330      1.6800     78.3900
    153      0.3420     -1.2730     -0.2980      0.0100     78.3900
    154      0.9160     -1.4600     -1.9100      0.0100     78.3900
    155      5.2160     -5.6250      1.5680      1.7700     78.3900
    156      4.1360     -5.8080      1.7630      0.0100     78.3900
    157      5.9770     -5.9390      2.7250      1.5900     78.3900
    158      5.9350     -6.9000      2.8690      0.0100     78.3900
    159      5.6850     -6.4050      0.3440      1.7700     78.3900
    160      4.9270     -6.3420     -0.4650      0.0100     78.3900
    161      6.0430     -7.7730      0.6140      1.5900     78.3900
    162      5.2390     -8.2950      0.7920      0.0100     78.3900
    163     -6.4410      2.8470      5.9830      0.0100     78.3900
    164     -5.5860      2.3900      6.0970      1.5900     78.3900
    165     -5.5560      1.9180      7.4530      1.7700     78.3900
    166     -6.4320      1.2530      7.6300      0.0100     78.3900
    167     -5.6470      2.7900      8.1390      0.0100     78.3900
    168     -4.2740      1.1530      7.8100      1.7700     78.3900
    169     -4.2770      0.8610      8.8810      0.0100     78.3900
    170     -4.1880     -0.0680      7.0190      1.5900     78.3900
    171     -2.8330     -0.2990      6.6640      1.7700     78.3900
    172     -2.5670     -1.3170      7.0210      0.0100     78.3900
    173     -2.6380     -0.2250      5.2090      1.6800     78.3900
    174     -1.5660     -0.7190      4.5170      1.7700     78.3900
    175      1.5070     -2.3140      4.4730      1.6800     78.3900
    176      1.6790     -2.5110      5.4370      0.0100     78.3900
    177      2.1760     -2.6130      3.7860      0.0100     78.3900
    178     -0.5060     -1.3490      5.0510      1.6800     78.3900
    179      0.3800     -1.7210      4.1290      1.7700     78.3900
    180      0.1820     -1.5390      2.7850      1.6800     78.3900
    181      0.8930     -1.8670      2.1500      0.0100     78.3900
    182     -0.9170     -0.9210      2.2020      1.7700     78.3900
    183     -1.0160     -0.8050      0.9760      1.5900     78.3900
    184     -1.8320     -0.4590      3.1860      1.7700     78.3900
    185     -3.0330      0.2260      3.0450      1.6800     78.3900
    186     -3.4790      0.3430      4.2750      1.7700     78.3900
    187     -4.4190      0.8200      4.5710      0.0100     78.3900
    188     -1.9930      0.7200      7.3990      1.7700     78.3900
    189     -1.0790      1.0040      6.8370      0.0100     78.3900
    190     -1.6340      0.2230      8.6770      1.5900     78.3900
    191     -1.1720      0.9390      9.1310      0.0100     78.3900
    192     -2.9610      1.8910      7.5020      1.7700     78.3900
    193     -3.0950      2.3780      6.5080      0.0100     78.3900
    194     -2.6570      2.8330      8.5540      1.5900     78.3900
    195     -1.7260      4.0660      8.2280      2.1000     78.3900
    196     -2.2070      4.6950      6.9770      1.5900     78.3900
    197     -1.6790      4.9180      9.4380      1.5900     78.3900
    198     -0.3080      3.4440      7.9530      1.5900     78.3900
    199      0.4780      2.8390      9.0040      1.7700     78.3900
    200     -0.0810      2.0390      9.5390      0.0100     78.3900
    201      0.7520      3.5980      9.7680      0.0100     78.3900
    202      1.7830      2.2390      8.4550      1.7700     78.3900
    203      2.3690      1.7680      9.2710      0.0100     78.3900
    204      1.5000      1.1950      7.4800      1.5900     78.3900
    205      2.4620      1.2620      6.4280      1.7700     78.3900
    206      2.9460      0.2570      6.3980      0.0100     78.3900
    207      1.8480      1.5560      5.1030      1.6800     78.3900
    208      0.6140      2.1500      5.0190      1.7700     78.3900
    209      0.1280      2.3730      5.9680      0.0100     78.3900
    210      0.0370      2.4030      3.8340      1.7700     78.3900
    211     -0.9560      2.8340      3.7500      0.0100     78.3900
    212      2.5460      1.2460      3.9400      1.7700     78.3900
    213      3.6560      0.7090      4.0300      1.5900     78.3900
    214      1.9880      1.5060      2.7350      1.6800     78.3900
    215      0.7700      2.0560      2.6610      1.7700     78.3900
    216      0.2420      2.2760      1.4610      1.6800     78.3900
    217      0.7740      2.0380      0.6420      0.0100     78.3900
    218     -0.6760      2.6480      1.3330      0.0100     78.3900
    219      3.5010      2.2960      6.8200      1.7700     78.3900
    220      3.9120      2.8470      5.9440      0.0100     78.3900
    221      4.5600      1.6880      7.5380      1.5900     78.3900
    222      5.1210      2.4170      7.8450      0.0100     78.3900
    223      2.6860      3.2310      7.7120      1.7700     78.3900
    224      2.0100      3.8600      7.0900      0.0100     78.3900
    225      3.4550      4.0050      8.6650      1.5900     78.3900
    226      4.1840      5.3000      8.1460      2.1000     78.3900
    227      3.2620      6.0100      7.2220      1.5900     78.3900
    228      4.6600      6.0620      9.3180      1.5900     78.3900
    229      5.4510      4.7550      7.3750      1.5900     78.3900
    230      5.9570      5.5140      6.2480      1.7700     78.3900
    231      6.3810      6.4910      6.5820      0.0100     78.3900
    232      5.1430      5.7690      5.5390      0.0100     78.3900
    233      7.0350      4.7370      5.4720      1.7700     78.3900
    234      7.8440      4.3930      6.1500      0.0100     78.3900
    235      6.4650      3.5560      4.8310      1.5900     78.3900
    236      6.9280      3.4690      3.4860      1.7700     78.3900
    237      7.2990      2.4270      3.3640      0.0100     78.3900
    238      5.8720      3.7180      2.4710      1.6800     78.3900
    239      4.5860      4.2120      2.6130      1.7700     78.3900
    240      2.0990      5.5240      4.6310      1.6800     78.3900
    241      1.2200      5.9860      4.5130      0.0100     78.3900
    242      2.5790      5.5870      5.5130      0.0100     78.3900
    243      3.9960      4.5940      3.7590      1.6800     78.3900
    244      2.7810      5.0680      3.5980      1.7700     78.3900
    245      2.1660      5.1270      2.3830      1.6800     78.3900
    246      1.2560      5.5520      2.3100      0.0100     78.3900
    247      2.7280      4.7330      1.1820      1.7700     78.3900
    248      2.0440      4.8440      0.1720      1.5900     78.3900
    249      4.0540      4.2380      1.3430      1.7700     78.3900
    250      4.9740      3.7720      0.4120      1.6800     78.3900
    251      6.0320      3.4740      1.1250      1.7700     78.3900
    252      6.9610      3.0630      0.7180      0.0100     78.3900
    253      8.0840      4.4350      3.3520      1.7700     78.3900
    254      8.1990      4.8340      2.3210      0.0100     78.3900
    255      9.2920      3.8100      3.7530      1.5900     78.3900
    256      9.9300      4.5130      3.9410      0.0100     78.3900
    257      7.6690      5.5350      4.3180      1.7700     78.3900
    258      6.8530      6.1450      3.8620      0.0100     78.3900
    259      8.7610      6.3310      4.8150      1.5900     78.3900
    260      9.0800      7.7450      4.2150      2.1000     78.3900
    261      7.8560      8.5750      4.2450      1.5900     78.3900
    262     10.2730      8.2850      4.8970      1.5900     78.3900
    263      9.4320      7.4480      2.7120      1.5900     78.3900
    264     10.6810      6.8330      2.3260      1.7700     78.3900
    265     10.7900      5.8290      2.7940      0.0100     78.3900
    266     11.5400      7.4650      2.6510      0.0100     78.3900
    267     10.7840      6.6460      0.8000      1.7700     78.3900
    268     11.7790      6.2250      0.5300      0.0100     78.3900
    269      9.7720      5.7060      0.3250      1.5900     78.3900
    270      9.2540      6.1560     -0.9250      1.7700     78.3900
    271      9.3610      5.3020     -1.6350      0.0100     78.3900
    272      7.8200      6.5620     -0.8290      1.6800     78.3900
    273      7.2310      6.8120      0.3920      1.7700     78.3900
    274      7.8870      6.7100      1.2530      0.0100     78.3900
    275      7.0930      6.6880     -1.9900      1.7700     78.3900
    276      7.5930      6.5100     -3.1020      1.5900     78.3900
    277      5.7760      7.0230     -1.8180      1.6800     78.3900
    278      5.2170      7.0680     -2.6620      0.0100     78.3900
    279      5.1180      7.2610     -0.6300      1.7700     78.3900
    280      3.9290      7.5770     -0.6220      1.5900     78.3900
    281      5.9450      7.1560      0.5310      1.7700     78.3900
    282      5.5100      7.3570      1.5070      0.0100     78.3900
    283     10.1470      7.2980     -1.3790      1.7700     78.3900
    284      9.6020      8.0370     -2.0000      0.0100     78.3900
    285     11.2550      6.7990     -2.1050      1.5900     78.3900
    286     11.8220      7.5540     -2.2970      0.0100     78.3900
    287     10.5720      7.9050     -0.0450      1.7700     78.3900
    288      9.7190      8.4530      0.4180      0.0100     78.3900
    289     11.7960      8.6750     -0.0790      1.5900     78.3900
    290     11.7110     10.2380     -0.2040      2.1000     78.3900
    291     10.6750     10.7610      0.7150      1.5900     78.3900
    292     13.0710     10.8100     -0.0820      1.5900     78.3900
    293     11.2000     10.4360     -1.6790      1.5900     78.3900
    294     12.0890     10.1530     -2.7840      1.7700     78.3900
    295     12.4620      9.1040     -2.7470      0.0100     78.3900
    296     12.9800     10.8280     -2.7590      0.0100     78.3900
    297     11.3650     10.3590     -4.1200      1.7700     78.3900
    298     12.0450     10.1580     -4.9790      0.0100     78.3900
    299     10.2470      9.4310     -4.2290      1.5900     78.3900
    300      9.1550     10.0870     -4.8640      1.7700     78.3900
    301      8.8740      9.4660     -5.7470      0.0100     78.3900
    302      7.9920     10.1900     -3.9710      1.6800     78.3900
    303      6.7010     10.4240     -4.3600      1.7700     78.3900
    304      4.3600     10.9680     -6.8540      1.6800     78.3900
    305      4.9270     11.0030     -7.6770      0.0100     78.3900
    306      3.3740     11.1340     -6.9320      0.0100     78.3900
    307      6.2810     10.6300     -5.6230      1.6800     78.3900
    308      4.9580     10.7760     -5.6940      1.7700     78.3900
    309      4.1440     10.7870     -4.5920      1.6800     78.3900
    310      3.1550     10.9250     -4.7310      0.0100     78.3900
    311      4.5560     10.6230     -3.2750      1.7700     78.3900
    312      3.7550     10.6700     -2.3350      1.5900     78.3900
    313      5.9600     10.4310     -3.1920      1.7700     78.3900
    314      6.7760     10.2310     -2.0830      1.6800     78.3900
    315      7.9760     10.1000     -2.5950      1.7700     78.3900
    316      8.8930      9.9210     -2.0320      0.0100     78.3900
    317      9.6400     11.4490     -5.3280      1.7700     78.3900
    318      8.8370     12.2150     -5.2790      0.0100     78.3900
    319     10.1480     11.3700     -6.6510      1.5900     78.3900
    320     10.5680     12.2190     -6.8720      0.0100     78.3900
    321     10.7290     11.7440     -4.3010      1.7700     78.3900
    322     10.2640     12.0510     -3.3360      0.0100     78.3900
    323     11.7070     12.7130     -4.7230      1.5900     78.3900
    324     11.3000     13.5990     -4.7710      0.0100     78.3900

     ----------------------------
     INPUT FOR TESSERA DEFINITION
     ----------------------------
     NTSALL  =        60     MTHALL  =         4
     MTHAUT  =         0     AUTFRE  =    2.0000
     NTSFRZ  =        60     KEEPSM  =         0
     AREAKP  =   10.0000     BONDRY  =    1.0000
     AREATL  =    0.0100

     SPHERE     INITS       METHOD
          1        60       FIXPVA
          2        60       FIXPVA
          3        60       FIXPVA
          4        60       FIXPVA
          5        60       FIXPVA
          6        60       FIXPVA
          7        60       FIXPVA
          8        60       FIXPVA
          9        60       FIXPVA
         10        60       FIXPVA
         11        60       FIXPVA
         12        60       FIXPVA
         13        60       FIXPVA
         14        60       FIXPVA
         15        60       FIXPVA
         16        60       FIXPVA
         17        60       FIXPVA
         18        60       FIXPVA
         19        60       FIXPVA
         20        60       FIXPVA
         21        60       FIXPVA
         22        60       FIXPVA
         23        60       FIXPVA
         24        60       FIXPVA
         25        60       FIXPVA
         26        60       FIXPVA
         27        60       FIXPVA
         28        60       FIXPVA
         29        60       FIXPVA
         30        60       FIXPVA
         31        60       FIXPVA
         32        60       FIXPVA
         33        60       FIXPVA
         34        60       FIXPVA
         35        60       FIXPVA
         36        60       FIXPVA
         37        60       FIXPVA
         38        60       FIXPVA
         39        60       FIXPVA
         40        60       FIXPVA
         41        60       FIXPVA
         42        60       FIXPVA
         43        60       FIXPVA
         44        60       FIXPVA
         45        60       FIXPVA
         46        60       FIXPVA
         47        60       FIXPVA
         48        60       FIXPVA
         49        60       FIXPVA
         50        60       FIXPVA
         51        60       FIXPVA
         52        60       FIXPVA
         53        60       FIXPVA
         54        60       FIXPVA
         55        60       FIXPVA
         56        60       FIXPVA
         57        60       FIXPVA
         58        60       FIXPVA
         59        60       FIXPVA
         60        60       FIXPVA
         61        60       FIXPVA
         62        60       FIXPVA
         63        60       FIXPVA
         64        60       FIXPVA
         65        60       FIXPVA
         66        60       FIXPVA
         67        60       FIXPVA
         68        60       FIXPVA
         69        60       FIXPVA
         70        60       FIXPVA
         71        60       FIXPVA
         72        60       FIXPVA
         73        60       FIXPVA
         74        60       FIXPVA
         75        60       FIXPVA
         76        60       FIXPVA
         77        60       FIXPVA
         78        60       FIXPVA
         79        60       FIXPVA
         80        60       FIXPVA
         81        60       FIXPVA
         82        60       FIXPVA
         83        60       FIXPVA
         84        60       FIXPVA
         85        60       FIXPVA
         86        60       FIXPVA
         87        60       FIXPVA
         88        60       FIXPVA
         89        60       FIXPVA
         90        60       FIXPVA
         91        60       FIXPVA
         92        60       FIXPVA
         93        60       FIXPVA
         94        60       FIXPVA
         95        60       FIXPVA
         96        60       FIXPVA
         97        60       FIXPVA
         98        60       FIXPVA
         99        60       FIXPVA
        100        60       FIXPVA
        101        60       FIXPVA
        102        60       FIXPVA
        103        60       FIXPVA
        104        60       FIXPVA
        105        60       FIXPVA
        106        60       FIXPVA
        107        60       FIXPVA
        108        60       FIXPVA
        109        60       FIXPVA
        110        60       FIXPVA
        111        60       FIXPVA
        112        60       FIXPVA
        113        60       FIXPVA
        114        60       FIXPVA
        115        60       FIXPVA
        116        60       FIXPVA
        117        60       FIXPVA
        118        60       FIXPVA
        119        60       FIXPVA
        120        60       FIXPVA
        121        60       FIXPVA
        122        60       FIXPVA
        123        60       FIXPVA
        124        60       FIXPVA
        125        60       FIXPVA
        126        60       FIXPVA
        127        60       FIXPVA
        128        60       FIXPVA
        129        60       FIXPVA
        130        60       FIXPVA
        131        60       FIXPVA
        132        60       FIXPVA
        133        60       FIXPVA
        134        60       FIXPVA
        135        60       FIXPVA
        136        60       FIXPVA
        137        60       FIXPVA
        138        60       FIXPVA
        139        60       FIXPVA
        140        60       FIXPVA
        141        60       FIXPVA
        142        60       FIXPVA
        143        60       FIXPVA
        144        60       FIXPVA
        145        60       FIXPVA
        146        60       FIXPVA
        147        60       FIXPVA
        148        60       FIXPVA
        149        60       FIXPVA
        150        60       FIXPVA
        151        60       FIXPVA
        152        60       FIXPVA
        153        60       FIXPVA
        154        60       FIXPVA
        155        60       FIXPVA
        156        60       FIXPVA
        157        60       FIXPVA
        158        60       FIXPVA
        159        60       FIXPVA
        160        60       FIXPVA
        161        60       FIXPVA
        162        60       FIXPVA
        163        60       FIXPVA
        164        60       FIXPVA
        165        60       FIXPVA
        166        60       FIXPVA
        167        60       FIXPVA
        168        60       FIXPVA
        169        60       FIXPVA
        170        60       FIXPVA
        171        60       FIXPVA
        172        60       FIXPVA
        173        60       FIXPVA
        174        60       FIXPVA
        175        60       FIXPVA
        176        60       FIXPVA
        177        60       FIXPVA
        178        60       FIXPVA
        179        60       FIXPVA
        180        60       FIXPVA
        181        60       FIXPVA
        182        60       FIXPVA
        183        60       FIXPVA
        184        60       FIXPVA
        185        60       FIXPVA
        186        60       FIXPVA
        187        60       FIXPVA
        188        60       FIXPVA
        189        60       FIXPVA
        190        60       FIXPVA
        191        60       FIXPVA
        192        60       FIXPVA
        193        60       FIXPVA
        194        60       FIXPVA
        195        60       FIXPVA
        196        60       FIXPVA
        197        60       FIXPVA
        198        60       FIXPVA
        199        60       FIXPVA
        200        60       FIXPVA
        201        60       FIXPVA
        202        60       FIXPVA
        203        60       FIXPVA
        204        60       FIXPVA
        205        60       FIXPVA
        206        60       FIXPVA
        207        60       FIXPVA
        208        60       FIXPVA
        209        60       FIXPVA
        210        60       FIXPVA
        211        60       FIXPVA
        212        60       FIXPVA
        213        60       FIXPVA
        214        60       FIXPVA
        215        60       FIXPVA
        216        60       FIXPVA
        217        60       FIXPVA
        218        60       FIXPVA
        219        60       FIXPVA
        220        60       FIXPVA
        221        60       FIXPVA
        222        60       FIXPVA
        223        60       FIXPVA
        224        60       FIXPVA
        225        60       FIXPVA
        226        60       FIXPVA
        227        60       FIXPVA
        228        60       FIXPVA
        229        60       FIXPVA
        230        60       FIXPVA
        231        60       FIXPVA
        232        60       FIXPVA
        233        60       FIXPVA
        234        60       FIXPVA
        235        60       FIXPVA
        236        60       FIXPVA
        237        60       FIXPVA
        238        60       FIXPVA
        239        60       FIXPVA
        240        60       FIXPVA
        241        60       FIXPVA
        242        60       FIXPVA
        243        60       FIXPVA
        244        60       FIXPVA
        245        60       FIXPVA
        246        60       FIXPVA
        247        60       FIXPVA
        248        60       FIXPVA
        249        60       FIXPVA
        250        60       FIXPVA
        251        60       FIXPVA
        252        60       FIXPVA
        253        60       FIXPVA
        254        60       FIXPVA
        255        60       FIXPVA
        256        60       FIXPVA
        257        60       FIXPVA
        258        60       FIXPVA
        259        60       FIXPVA
        260        60       FIXPVA
        261        60       FIXPVA
        262        60       FIXPVA
        263        60       FIXPVA
        264        60       FIXPVA
        265        60       FIXPVA
        266        60       FIXPVA
        267        60       FIXPVA
        268        60       FIXPVA
        269        60       FIXPVA
        270        60       FIXPVA
        271        60       FIXPVA
        272        60       FIXPVA
        273        60       FIXPVA
        274        60       FIXPVA
        275        60       FIXPVA
        276        60       FIXPVA
        277        60       FIXPVA
        278        60       FIXPVA
        279        60       FIXPVA
        280        60       FIXPVA
        281        60       FIXPVA
        282        60       FIXPVA
        283        60       FIXPVA
        284        60       FIXPVA
        285        60       FIXPVA
        286        60       FIXPVA
        287        60       FIXPVA
        288        60       FIXPVA
        289        60       FIXPVA
        290        60       FIXPVA
        291        60       FIXPVA
        292        60       FIXPVA
        293        60       FIXPVA
        294        60       FIXPVA
        295        60       FIXPVA
        296        60       FIXPVA
        297        60       FIXPVA
        298        60       FIXPVA
        299        60       FIXPVA
        300        60       FIXPVA
        301        60       FIXPVA
        302        60       FIXPVA
        303        60       FIXPVA
        304        60       FIXPVA
        305        60       FIXPVA
        306        60       FIXPVA
        307        60       FIXPVA
        308        60       FIXPVA
        309        60       FIXPVA
        310        60       FIXPVA
        311        60       FIXPVA
        312        60       FIXPVA
        313        60       FIXPVA
        314        60       FIXPVA
        315        60       FIXPVA
        316        60       FIXPVA
        317        60       FIXPVA
        318        60       FIXPVA
        319        60       FIXPVA
        320        60       FIXPVA
        321        60       FIXPVA
        322        60       FIXPVA
        323        60       FIXPVA
        324        60       FIXPVA

     ------------------------------
      FIXPVA TESSELLATION FOR PCM
         PEIFENG SU AND HUI LI
     UNIVERSITY OF NEBRASKA-LINCOLN
     ------------------------------


 PCM DIMENSIONS: MXSP=   324, MXTS=     12960, MEMORY=        133167

     INPUT FOR CAVITY DEFINITION 
     ---------------------------
   ATOM               COORDINATES                RADIUS       EPS
      1     -5.4110     11.3730     -6.0530      0.0100     78.3900
      2     -4.5090     11.2920     -6.4180      1.5900     78.3900
      3     -4.5700     11.7200     -7.7860      1.7700     78.3900
      4     -4.9370     12.7710     -7.8220      0.0100     78.3900
      5     -5.3000     11.0810     -8.3290      0.0100     78.3900
      6     -3.2200     11.6390     -8.5110      1.7700     78.3900
      7     -3.3230     11.9360     -9.5760      0.0100     78.3900
      8     -2.2650     12.5520     -7.8920      1.5900     78.3900
      9     -0.9860     11.9280     -7.8520      1.7700     78.3900
     10     -0.2890     12.6250     -8.3680      0.0100     78.3900
     11     -0.4930     11.7010     -6.4640      1.6800     78.3900
     12     -1.3710     11.7180     -5.4050      1.7700     78.3900
     13     -2.4170     11.9160     -5.6450      0.0100     78.3900
     14     -0.9530     11.5390     -4.1450      1.7700     78.3900
     15     -1.6330     11.5740     -3.2970      0.0100     78.3900
     16      0.8570     11.4410     -6.2360      1.7700     78.3900
     17      1.6370     11.3960     -7.1960      1.5900     78.3900
     18      1.3000     11.2690     -4.9680      1.6800     78.3900
     19      0.4380     11.3220     -3.9380      1.7700     78.3900
     20      0.9030     11.1770     -2.6980      1.6800     78.3900
     21      1.8770     10.9830     -2.5550      0.0100     78.3900
     22      0.2990     11.2060     -1.9010      0.0100     78.3900
     23     -1.0800     10.6490     -8.6620      1.7700     78.3900
     24     -0.3920      9.8590     -8.2980      0.0100     78.3900
     25     -0.8080     10.9270    -10.0230      1.5900     78.3900
     26     -0.9350     10.1030    -10.5090      0.0100     78.3900
     27     -2.5390     10.2610     -8.4550      1.7700     78.3900
     28     -2.6910      9.8680     -7.4230      0.0100     78.3900
     29     -3.0970      9.4000     -9.4740      1.5900     78.3900
     30     -3.0020      7.8370     -9.3090      2.1000     78.3900
     31     -3.4790      7.4810     -7.9530      1.5900     78.3900
     32     -3.7040      7.2050    -10.4490      1.5900     78.3900
     33     -1.4540      7.5410     -9.4170      1.5900     78.3900
     34     -0.8080      7.6060    -10.7140      1.7700     78.3900
     35     -0.8980      8.6180    -11.1680      0.0100     78.3900
     36     -1.2650      6.8780    -11.4230      0.0100     78.3900
     37      0.6860      7.2730    -10.6120      1.7700     78.3900
     38      1.1780      7.3410    -11.6040      0.0100     78.3900
     39      1.3430      8.2290     -9.7370      1.5900     78.3900
     40      2.3200      7.5510     -8.9660      1.7700     78.3900
     41      3.2860      8.0790     -9.1440      0.0100     78.3900
     42      1.9950      7.6040     -7.5430      1.6800     78.3900
     43      2.1470      7.6370     -5.3550      1.7700     78.3900
     44      0.7980      7.8260     -5.6510      1.6800     78.3900
     45      0.7660      7.8070     -6.9600      1.7700     78.3900
     46     -0.1290      7.9460     -7.5650      0.0100     78.3900
     47      4.1990      7.3820     -4.2040      1.6800     78.3900
     48      4.7550      7.1750     -5.3950      1.7700     78.3900
     49      5.8290      6.9730     -5.3650      0.0100     78.3900
     50      4.2080      7.2510     -6.6120      1.6800     78.3900
     51      2.8870      7.4790     -6.5160      1.7700     78.3900
     52      2.8640      7.6070     -4.1400      1.7700     78.3900
     53      2.3010      7.7940     -2.9360      1.6800     78.3900
     54      1.3110      7.8950     -2.8210      0.0100     78.3900
     55      2.8600      7.6530     -2.1120      0.0100     78.3900
     56      2.4220      6.1310     -9.4870      1.7700     78.3900
     57      2.6890      5.3950     -8.6950      0.0100     78.3900
     58      3.3680      6.0680    -10.5420      1.5900     78.3900
     59      3.3380      5.1610    -10.8820      0.0100     78.3900
     60      1.0070      5.9000    -10.0060      1.7700     78.3900
     61      0.2960      5.7480     -9.1600      0.0100     78.3900
     62      0.8870      4.8740    -11.0200      1.5900     78.3900
     63      0.8660      3.3710    -10.5370      2.1000     78.3900
     64      0.0500      3.2950     -9.2980      1.5900     78.3900
     65      0.4480      2.5310    -11.6760      1.5900     78.3900
     66      2.3770      3.0550    -10.2060      1.5900     78.3900
     67      2.6820      2.0020     -9.2580      1.7700     78.3900
     68      2.3730      1.0120     -9.6620      0.0100     78.3900
     69      2.1280      2.1450     -8.3040      0.0100     78.3900
     70      4.1900      1.9400     -8.9390      1.7700     78.3900
     71      4.7760      1.7820     -9.8690      0.0100     78.3900
     72      4.6540      3.1920     -8.3480      1.5900     78.3900
     73      5.5270      2.9160     -7.2580      1.7700     78.3900
     74      6.4430      3.5180     -7.4530      0.0100     78.3900
     75      4.9720      3.3040     -5.9380      1.6800     78.3900
     76      3.6740      3.6260     -5.5990      1.7700     78.3900
     77      0.3580      3.9650     -6.5270      1.6800     78.3900
     78     -0.5250      4.1740     -6.1080      0.0100     78.3900
     79      0.3970      3.7340     -7.5040      0.0100     78.3900
     80      2.6170      3.6610     -6.4280      1.6800     78.3900
     81      1.4830      3.9510     -5.8340      1.7700     78.3900
     82      1.4030      4.2450     -4.5050      1.6800     78.3900
     83      0.5050      4.4550     -4.1080      0.0100     78.3900
     84      2.4760      4.2440     -3.6210      1.7700     78.3900
     85      2.2820      4.5380     -2.4480      1.5900     78.3900
     86      3.6990      3.8990     -4.2530      1.7700     78.3900
     87      4.9840      3.7610     -3.7400      1.6800     78.3900
     88      5.7020      3.4060     -4.7740      1.7700     78.3900
     89      6.7780      3.2170     -4.7440      0.0100     78.3900
     90      5.8610      1.4440     -7.3160      1.7700     78.3900
     91      6.0570      1.0020     -6.3160      0.0100     78.3900
     92      6.9810      1.2380     -8.1580      1.5900     78.3900
     93      6.9790      0.3040     -8.4150      0.0100     78.3900
     94      4.5880      0.8590     -7.9160      1.7700     78.3900
     95      3.7750      0.8350     -7.1510      0.0100     78.3900
     96      4.7850     -0.4100     -8.5770      1.5900     78.3900
     97      4.4300     -1.7620     -7.8560      2.1000     78.3900
     98      2.9900     -1.7440     -7.5090      1.5900     78.3900
     99      4.8820     -2.8790     -8.7200      1.5900     78.3900
    100      5.2640     -1.7440     -6.5150      1.5900     78.3900
    101      6.6980     -1.9430     -6.5490      1.7700     78.3900
    102      7.2030     -1.1740     -7.1760      0.0100     78.3900
    103      6.9520     -2.9350     -6.9820      0.0100     78.3900
    104      7.3120     -1.8810     -5.1510      1.7700     78.3900
    105      8.4060     -2.0760     -5.1870      0.0100     78.3900
    106      7.1280     -0.5460     -4.6000      1.5900     78.3900
    107      6.8210     -0.6490     -3.2190      1.7700     78.3900
    108      7.5600     -0.0160     -2.6760      0.0100     78.3900
    109      5.4590     -0.1540     -2.9370      1.6800     78.3900
    110      4.9270      0.1250     -1.7050      1.7700     78.3900
    111      5.2150      0.2210      1.7470      1.6800     78.3900
    112      6.1220     -0.1620      1.9130      0.0100     78.3900
    113      4.6310      0.4440      2.5340      0.0100     78.3900
    114      5.5520     -0.0270     -0.5170      1.6800     78.3900
    115      4.7840      0.3390      0.5040      1.7700     78.3900
    116      3.5050      0.8090      0.3510      1.6800     78.3900
    117      3.0120      1.1130      1.1750      0.0100     78.3900
    118      2.8440      1.0040     -0.8570      1.7700     78.3900
    119      1.6850      1.4330     -0.8980      1.5900     78.3900
    120      3.6420      0.5840     -1.9550      1.7700     78.3900
    121      3.3610      0.5710     -3.3200      1.6800     78.3900
    122      4.4760      0.1400     -3.8610      1.7700     78.3900
    123      4.6550      0.0160     -4.9320      0.0100     78.3900
    124      7.0150     -2.1000     -2.8210      1.7700     78.3900
    125      6.3410     -2.4140     -1.9990      0.0100     78.3900
    126      8.3610     -2.3230     -2.4430      1.5900     78.3900
    127      8.4690     -3.2770     -2.3450      0.0100     78.3900
    128      6.6840     -2.8210     -4.1150      1.7700     78.3900
    129      5.5860     -2.7910     -4.2960      0.0100     78.3900
    130      7.2550     -4.1450     -4.2280      1.5900     78.3900
    131      6.3340     -5.4000     -3.9870      2.1000     78.3900
    132      5.0150     -5.1690     -4.6110      1.5900     78.3900
    133      7.0690     -6.6150     -4.4070      1.5900     78.3900
    134      6.1590     -5.4110     -2.4220      1.5900     78.3900
    135      7.2900     -5.7120     -1.5720      1.7700     78.3900
    136      8.1450     -5.0230     -1.7700      0.0100     78.3900
    137      7.6420     -6.7550     -1.7540      0.0100     78.3900
    138      6.9180     -5.5970     -0.0870      1.7700     78.3900
    139      7.7700     -5.8840      0.5640      0.0100     78.3900
    140      6.5840     -4.2140      0.2270      1.5900     78.3900
    141      5.4910     -4.1910      1.1380      1.7700     78.3900
    142      5.8480     -3.6100      2.0200      0.0100     78.3900
    143      4.2880     -3.5180      0.5680      1.6800     78.3900
    144      4.1530     -3.3740     -0.7930      1.7700     78.3900
    145      4.9750     -3.7520     -1.3970      0.0100     78.3900
    146      3.0970     -2.7510     -1.3320      1.7700     78.3900
    147      3.0000     -2.5950     -2.4030      0.0100     78.3900
    148      3.2820     -3.0560      1.4110      1.7700     78.3900
    149      3.3960     -3.2200      2.6330      1.5900     78.3900
    150      2.2010     -2.4320      0.8850      1.6800     78.3900
    151      2.0910     -2.2740     -0.4440      1.7700     78.3900
    152      1.0240     -1.6440     -0.9330      1.6800     78.3900
    153      0.3420     -1.2730     -0.2980      0.0100     78.3900
    154      0.9160     -1.4600     -1.9100      0.0100     78.3900
    155      5.2160     -5.6250      1.5680      1.7700     78.3900
    156      4.1360     -5.8080      1.7630      0.0100     78.3900
    157      5.9770     -5.9390      2.7250      1.5900     78.3900
    158      5.9350     -6.9000      2.8690      0.0100     78.3900
    159      5.6850     -6.4050      0.3440      1.7700     78.3900
    160      4.9270     -6.3420     -0.4650      0.0100     78.3900
    161      6.0430     -7.7730      0.6140      1.5900     78.3900
    162      5.2390     -8.2950      0.7920      0.0100     78.3900
    163     -6.4410      2.8470      5.9830      0.0100     78.3900
    164     -5.5860      2.3900      6.0970      1.5900     78.3900
    165     -5.5560      1.9180      7.4530      1.7700     78.3900
    166     -6.4320      1.2530      7.6300      0.0100     78.3900
    167     -5.6470      2.7900      8.1390      0.0100     78.3900
    168     -4.2740      1.1530      7.8100      1.7700     78.3900
    169     -4.2770      0.8610      8.8810      0.0100     78.3900
    170     -4.1880     -0.0680      7.0190      1.5900     78.3900
    171     -2.8330     -0.2990      6.6640      1.7700     78.3900
    172     -2.5670     -1.3170      7.0210      0.0100     78.3900
    173     -2.6380     -0.2250      5.2090      1.6800     78.3900
    174     -1.5660     -0.7190      4.5170      1.7700     78.3900
    175      1.5070     -2.3140      4.4730      1.6800     78.3900
    176      1.6790     -2.5110      5.4370      0.0100     78.3900
    177      2.1760     -2.6130      3.7860      0.0100     78.3900
    178     -0.5060     -1.3490      5.0510      1.6800     78.3900
    179      0.3800     -1.7210      4.1290      1.7700     78.3900
    180      0.1820     -1.5390      2.7850      1.6800     78.3900
    181      0.8930     -1.8670      2.1500      0.0100     78.3900
    182     -0.9170     -0.9210      2.2020      1.7700     78.3900
    183     -1.0160     -0.8050      0.9760      1.5900     78.3900
    184     -1.8320     -0.4590      3.1860      1.7700     78.3900
    185     -3.0330      0.2260      3.0450      1.6800     78.3900
    186     -3.4790      0.3430      4.2750      1.7700     78.3900
    187     -4.4190      0.8200      4.5710      0.0100     78.3900
    188     -1.9930      0.7200      7.3990      1.7700     78.3900
    189     -1.0790      1.0040      6.8370      0.0100     78.3900
    190     -1.6340      0.2230      8.6770      1.5900     78.3900
    191     -1.1720      0.9390      9.1310      0.0100     78.3900
    192     -2.9610      1.8910      7.5020      1.7700     78.3900
    193     -3.0950      2.3780      6.5080      0.0100     78.3900
    194     -2.6570      2.8330      8.5540      1.5900     78.3900
    195     -1.7260      4.0660      8.2280      2.1000     78.3900
    196     -2.2070      4.6950      6.9770      1.5900     78.3900
    197     -1.6790      4.9180      9.4380      1.5900     78.3900
    198     -0.3080      3.4440      7.9530      1.5900     78.3900
    199      0.4780      2.8390      9.0040      1.7700     78.3900
    200     -0.0810      2.0390      9.5390      0.0100     78.3900
    201      0.7520      3.5980      9.7680      0.0100     78.3900
    202      1.7830      2.2390      8.4550      1.7700     78.3900
    203      2.3690      1.7680      9.2710      0.0100     78.3900
    204      1.5000      1.1950      7.4800      1.5900     78.3900
    205      2.4620      1.2620      6.4280      1.7700     78.3900
    206      2.9460      0.2570      6.3980      0.0100     78.3900
    207      1.8480      1.5560      5.1030      1.6800     78.3900
    208      0.6140      2.1500      5.0190      1.7700     78.3900
    209      0.1280      2.3730      5.9680      0.0100     78.3900
    210      0.0370      2.4030      3.8340      1.7700     78.3900
    211     -0.9560      2.8340      3.7500      0.0100     78.3900
    212      2.5460      1.2460      3.9400      1.7700     78.3900
    213      3.6560      0.7090      4.0300      1.5900     78.3900
    214      1.9880      1.5060      2.7350      1.6800     78.3900
    215      0.7700      2.0560      2.6610      1.7700     78.3900
    216      0.2420      2.2760      1.4610      1.6800     78.3900
    217      0.7740      2.0380      0.6420      0.0100     78.3900
    218     -0.6760      2.6480      1.3330      0.0100     78.3900
    219      3.5010      2.2960      6.8200      1.7700     78.3900
    220      3.9120      2.8470      5.9440      0.0100     78.3900
    221      4.5600      1.6880      7.5380      1.5900     78.3900
    222      5.1210      2.4170      7.8450      0.0100     78.3900
    223      2.6860      3.2310      7.7120      1.7700     78.3900
    224      2.0100      3.8600      7.0900      0.0100     78.3900
    225      3.4550      4.0050      8.6650      1.5900     78.3900
    226      4.1840      5.3000      8.1460      2.1000     78.3900
    227      3.2620      6.0100      7.2220      1.5900     78.3900
    228      4.6600      6.0620      9.3180      1.5900     78.3900
    229      5.4510      4.7550      7.3750      1.5900     78.3900
    230      5.9570      5.5140      6.2480      1.7700     78.3900
    231      6.3810      6.4910      6.5820      0.0100     78.3900
    232      5.1430      5.7690      5.5390      0.0100     78.3900
    233      7.0350      4.7370      5.4720      1.7700     78.3900
    234      7.8440      4.3930      6.1500      0.0100     78.3900
    235      6.4650      3.5560      4.8310      1.5900     78.3900
    236      6.9280      3.4690      3.4860      1.7700     78.3900
    237      7.2990      2.4270      3.3640      0.0100     78.3900
    238      5.8720      3.7180      2.4710      1.6800     78.3900
    239      4.5860      4.2120      2.6130      1.7700     78.3900
    240      2.0990      5.5240      4.6310      1.6800     78.3900
    241      1.2200      5.9860      4.5130      0.0100     78.3900
    242      2.5790      5.5870      5.5130      0.0100     78.3900
    243      3.9960      4.5940      3.7590      1.6800     78.3900
    244      2.7810      5.0680      3.5980      1.7700     78.3900
    245      2.1660      5.1270      2.3830      1.6800     78.3900
    246      1.2560      5.5520      2.3100      0.0100     78.3900
    247      2.7280      4.7330      1.1820      1.7700     78.3900
    248      2.0440      4.8440      0.1720      1.5900     78.3900
    249      4.0540      4.2380      1.3430      1.7700     78.3900
    250      4.9740      3.7720      0.4120      1.6800     78.3900
    251      6.0320      3.4740      1.1250      1.7700     78.3900
    252      6.9610      3.0630      0.7180      0.0100     78.3900
    253      8.0840      4.4350      3.3520      1.7700     78.3900
    254      8.1990      4.8340      2.3210      0.0100     78.3900
    255      9.2920      3.8100      3.7530      1.5900     78.3900
    256      9.9300      4.5130      3.9410      0.0100     78.3900
    257      7.6690      5.5350      4.3180      1.7700     78.3900
    258      6.8530      6.1450      3.8620      0.0100     78.3900
    259      8.7610      6.3310      4.8150      1.5900     78.3900
    260      9.0800      7.7450      4.2150      2.1000     78.3900
    261      7.8560      8.5750      4.2450      1.5900     78.3900
    262     10.2730      8.2850      4.8970      1.5900     78.3900
    263      9.4320      7.4480      2.7120      1.5900     78.3900
    264     10.6810      6.8330      2.3260      1.7700     78.3900
    265     10.7900      5.8290      2.7940      0.0100     78.3900
    266     11.5400      7.4650      2.6510      0.0100     78.3900
    267     10.7840      6.6460      0.8000      1.7700     78.3900
    268     11.7790      6.2250      0.5300      0.0100     78.3900
    269      9.7720      5.7060      0.3250      1.5900     78.3900
    270      9.2540      6.1560     -0.9250      1.7700     78.3900
    271      9.3610      5.3020     -1.6350      0.0100     78.3900
    272      7.8200      6.5620     -0.8290      1.6800     78.3900
    273      7.2310      6.8120      0.3920      1.7700     78.3900
    274      7.8870      6.7100      1.2530      0.0100     78.3900
    275      7.0930      6.6880     -1.9900      1.7700     78.3900
    276      7.5930      6.5100     -3.1020      1.5900     78.3900
    277      5.7760      7.0230     -1.8180      1.6800     78.3900
    278      5.2170      7.0680     -2.6620      0.0100     78.3900
    279      5.1180      7.2610     -0.6300      1.7700     78.3900
    280      3.9290      7.5770     -0.6220      1.5900     78.3900
    281      5.9450      7.1560      0.5310      1.7700     78.3900
    282      5.5100      7.3570      1.5070      0.0100     78.3900
    283     10.1470      7.2980     -1.3790      1.7700     78.3900
    284      9.6020      8.0370     -2.0000      0.0100     78.3900
    285     11.2550      6.7990     -2.1050      1.5900     78.3900
    286     11.8220      7.5540     -2.2970      0.0100     78.3900
    287     10.5720      7.9050     -0.0450      1.7700     78.3900
    288      9.7190      8.4530      0.4180      0.0100     78.3900
    289     11.7960      8.6750     -0.0790      1.5900     78.3900
    290     11.7110     10.2380     -0.2040      2.1000     78.3900
    291     10.6750     10.7610      0.7150      1.5900     78.3900
    292     13.0710     10.8100     -0.0820      1.5900     78.3900
    293     11.2000     10.4360     -1.6790      1.5900     78.3900
    294     12.0890     10.1530     -2.7840      1.7700     78.3900
    295     12.4620      9.1040     -2.7470      0.0100     78.3900
    296     12.9800     10.8280     -2.7590      0.0100     78.3900
    297     11.3650     10.3590     -4.1200      1.7700     78.3900
    298     12.0450     10.1580     -4.9790      0.0100     78.3900
    299     10.2470      9.4310     -4.2290      1.5900     78.3900
    300      9.1550     10.0870     -4.8640      1.7700     78.3900
    301      8.8740      9.4660     -5.7470      0.0100     78.3900
    302      7.9920     10.1900     -3.9710      1.6800     78.3900
    303      6.7010     10.4240     -4.3600      1.7700     78.3900
    304      4.3600     10.9680     -6.8540      1.6800     78.3900
    305      4.9270     11.0030     -7.6770      0.0100     78.3900
    306      3.3740     11.1340     -6.9320      0.0100     78.3900
    307      6.2810     10.6300     -5.6230      1.6800     78.3900
    308      4.9580     10.7760     -5.6940      1.7700     78.3900
    309      4.1440     10.7870     -4.5920      1.6800     78.3900
    310      3.1550     10.9250     -4.7310      0.0100     78.3900
    311      4.5560     10.6230     -3.2750      1.7700     78.3900
    312      3.7550     10.6700     -2.3350      1.5900     78.3900
    313      5.9600     10.4310     -3.1920      1.7700     78.3900
    314      6.7760     10.2310     -2.0830      1.6800     78.3900
    315      7.9760     10.1000     -2.5950      1.7700     78.3900
    316      8.8930      9.9210     -2.0320      0.0100     78.3900
    317      9.6400     11.4490     -5.3280      1.7700     78.3900
    318      8.8370     12.2150     -5.2790      0.0100     78.3900
    319     10.1480     11.3700     -6.6510      1.5900     78.3900
    320     10.5680     12.2190     -6.8720      0.0100     78.3900
    321     10.7290     11.7440     -4.3010      1.7700     78.3900
    322     10.2640     12.0510     -3.3360      0.0100     78.3900
    323     11.7070     12.7130     -4.7230      1.5900     78.3900
    324     11.3000     13.5990     -4.7710      0.0100     78.3900

 CREATION OF A NEW CAVITY WITH THE ORIGINAL SPHERE
 SIZES FOR THE COMPUTATION OF THE CAVITATION ENERGY.

     INPUT FOR CAVITY DEFINITION 
     ---------------------------
   ATOM               COORDINATES                RADIUS       EPS
      1     -5.4110     11.3730     -6.0530      0.0100     78.3900
      2     -4.5090     11.2920     -6.4180      1.5900     78.3900
      3     -4.5700     11.7200     -7.7860      1.7700     78.3900
      4     -4.9370     12.7710     -7.8220      0.0100     78.3900
      5     -5.3000     11.0810     -8.3290      0.0100     78.3900
      6     -3.2200     11.6390     -8.5110      1.7700     78.3900
      7     -3.3230     11.9360     -9.5760      0.0100     78.3900
      8     -2.2650     12.5520     -7.8920      1.5900     78.3900
      9     -0.9860     11.9280     -7.8520      1.7700     78.3900
     10     -0.2890     12.6250     -8.3680      0.0100     78.3900
     11     -0.4930     11.7010     -6.4640      1.6800     78.3900
     12     -1.3710     11.7180     -5.4050      1.7700     78.3900
     13     -2.4170     11.9160     -5.6450      0.0100     78.3900
     14     -0.9530     11.5390     -4.1450      1.7700     78.3900
     15     -1.6330     11.5740     -3.2970      0.0100     78.3900
     16      0.8570     11.4410     -6.2360      1.7700     78.3900
     17      1.6370     11.3960     -7.1960      1.5900     78.3900
     18      1.3000     11.2690     -4.9680      1.6800     78.3900
     19      0.4380     11.3220     -3.9380      1.7700     78.3900
     20      0.9030     11.1770     -2.6980      1.6800     78.3900
     21      1.8770     10.9830     -2.5550      0.0100     78.3900
     22      0.2990     11.2060     -1.9010      0.0100     78.3900
     23     -1.0800     10.6490     -8.6620      1.7700     78.3900
     24     -0.3920      9.8590     -8.2980      0.0100     78.3900
     25     -0.8080     10.9270    -10.0230      1.5900     78.3900
     26     -0.9350     10.1030    -10.5090      0.0100     78.3900
     27     -2.5390     10.2610     -8.4550      1.7700     78.3900
     28     -2.6910      9.8680     -7.4230      0.0100     78.3900
     29     -3.0970      9.4000     -9.4740      1.5900     78.3900
     30     -3.0020      7.8370     -9.3090      2.1000     78.3900
     31     -3.4790      7.4810     -7.9530      1.5900     78.3900
     32     -3.7040      7.2050    -10.4490      1.5900     78.3900
     33     -1.4540      7.5410     -9.4170      1.5900     78.3900
     34     -0.8080      7.6060    -10.7140      1.7700     78.3900
     35     -0.8980      8.6180    -11.1680      0.0100     78.3900
     36     -1.2650      6.8780    -11.4230      0.0100     78.3900
     37      0.6860      7.2730    -10.6120      1.7700     78.3900
     38      1.1780      7.3410    -11.6040      0.0100     78.3900
     39      1.3430      8.2290     -9.7370      1.5900     78.3900
[...]
  11 10  0    -1389.6281127421     0.0000000054   0.000000155   0.000000017      356894243   19743202

          -----------------
          DENSITY CONVERGED
          -----------------
     TIME TO FORM FOCK OPERATORS=      20.1 SECONDS (       1.8 SEC/ITER)
     FOCK TIME ON FIRST ITERATION=       3.2, LAST ITERATION=       1.2
     TIME TO SOLVE SCF EQUATIONS=       0.4 SECONDS (       0.0 SEC/ITER)

 FINAL RHF ENERGY IS    -1389.6281127421 AFTER  11 ITERATIONS
 ...... END OF RHF CALCULATION ......
 CPU     0: STEP CPU TIME=    50.09 TOTAL CPU TIME=       2246.3 (     37.4 MIN)
 TOTAL WALL CLOCK TIME=       4891.6 SECONDS, CPU UTILIZATION IS    45.92%
 DONE PCM POT.
 CPU     0: STEP CPU TIME=     0.34 TOTAL CPU TIME=       2246.6 (     37.4 MIN)
 TOTAL WALL CLOCK TIME=       4892.6 SECONDS, CPU UTILIZATION IS    45.92%

 Iter=  5 iFrag=      2 EFMO= -1432.604575961, DD= 0.004065921, DE= 0.003135959


 RHF      monomer      1 corr= NONE       , L1=   358, L0=   336 ID=      6


 AO spaces for     1     0     0 n-mer: L1=   358, L0=   336

 DIRECT SCF CALCULATION, SCHWRZ=T   FDIFF=T,  DIRTHR=  0.00E+00 NITDIR=10

                                                                                   NONZERO     BLOCKS
 ITER EX DEM     TOTAL ENERGY        E CHANGE  DENSITY CHANGE     ORB. GRAD      INTEGRALS    SKIPPED
   1  0  0    -1411.0154718720 -1411.0154718720   0.000609168   0.000000000      771397624   13354518
          ---------------START SECOND ORDER SCF---------------
   2  1  0    -1411.0153988841     0.0000729880   0.000131350   0.000036928      619478142   15612891
   3  2  0    -1411.0154049109    -0.0000060268   0.000079318   0.000016041      581408956   15994415
   4  3  0    -1411.0153986820     0.0000062289   0.000022211   0.000003680      527677523   16458945
   5  4  0    -1411.0153969872     0.0000016948   0.000003325   0.000001121      495898582   16784564
   6  5  0    -1411.0153974072    -0.0000004200   0.000001650   0.000000530      453258934   17162584
   7  6  0    -1411.0153975126    -0.0000001054   0.000000483   0.000000178      407183564   17568526
   8  7  0    -1411.0153974973     0.0000000153   0.000000246   0.000000092      370482483   17894282
   9  8  0    -1411.0153974861     0.0000000112   0.000000074   0.000000035      330532321   18237857
  10  9  0    -1411.0153974863    -0.0000000002   0.000000037   0.000000014      295466467   18531190

          -----------------
          DENSITY CONVERGED
          -----------------
     TIME TO FORM FOCK OPERATORS=      15.2 SECONDS (       1.5 SEC/ITER)
     FOCK TIME ON FIRST ITERATION=       2.3, LAST ITERATION=       0.9
     TIME TO SOLVE SCF EQUATIONS=       0.3 SECONDS (       0.0 SEC/ITER)

 FINAL RHF ENERGY IS    -1411.0153974863 AFTER  10 ITERATIONS
 ...... END OF RHF CALCULATION ......
 CPU     0: STEP CPU TIME=    37.27 TOTAL CPU TIME=       2283.9 (     38.1 MIN)
 TOTAL WALL CLOCK TIME=       4966.7 SECONDS, CPU UTILIZATION IS    45.98%
 DONE PCM POT.
 CPU     0: STEP CPU TIME=     0.35 TOTAL CPU TIME=       2284.2 (     38.1 MIN)
 TOTAL WALL CLOCK TIME=       4967.8 SECONDS, CPU UTILIZATION IS    45.98%

 Iter=  5 iFrag=      1 EFMO= -1450.880134503, DD= 0.000726946, DE=-0.002292348


 RHF      monomer      7 corr= NONE       , L1=   341, L0=   320 ID=      7


 AO spaces for     7     0     0 n-mer: L1=   341, L0=   320

 DIRECT SCF CALCULATION, SCHWRZ=T   FDIFF=T,  DIRTHR=  0.00E+00 NITDIR=10

                                                                                   NONZERO     BLOCKS
 ITER EX DEM     TOTAL ENERGY        E CHANGE  DENSITY CHANGE     ORB. GRAD      INTEGRALS    SKIPPED
   1  0  0    -1325.8315712771 -1325.8315712771   0.004152884   0.000000000      661496086   10593751
          ---------------START SECOND ORDER SCF---------------
   2  1  0    -1325.8315505002     0.0000207769   0.001007072   0.000236761      542796459   12257528
   3  2  0    -1325.8315670470    -0.0000165468   0.000208003   0.000049694      518672214   12493838
   4  3  0    -1325.8315634065     0.0000036404   0.000060662   0.000008130      481123393   12837370
   5  4  0    -1325.8315632287     0.0000001779   0.000016223   0.000004441      444294384   13157602
   6  5  0    -1325.8315634082    -0.0000001795   0.000005225   0.000001100      416528914   13416160
   7  6  0    -1325.8315635092    -0.0000001010   0.000002084   0.000000461      372680190   13802922
   8  7  0    -1325.8315635291    -0.0000000199   0.000000524   0.000000186      344419825   14049383
   9  8  0    -1325.8315635413    -0.0000000122   0.000000228   0.000000058      311756940   14336379
  10  9  0    -1325.8315635448    -0.0000000035   0.000000075   0.000000026      281412181   14591518
  11 10  0    -1325.8315635424     0.0000000024   0.000000000   0.000000005      245252228   14875147

          -----------------
          DENSITY CONVERGED
          -----------------
     TIME TO FORM FOCK OPERATORS=      15.1 SECONDS (       1.4 SEC/ITER)
     FOCK TIME ON FIRST ITERATION=       2.6, LAST ITERATION=       1.0
     TIME TO SOLVE SCF EQUATIONS=       0.3 SECONDS (       0.0 SEC/ITER)

 FINAL RHF ENERGY IS    -1325.8315635424 AFTER  11 ITERATIONS
 ...... END OF RHF CALCULATION ......
 CPU     0: STEP CPU TIME=    46.59 TOTAL CPU TIME=       2330.8 (     38.8 MIN)
 TOTAL WALL CLOCK TIME=       5055.2 SECONDS, CPU UTILIZATION IS    46.11%
 DONE PCM POT.
 CPU     0: STEP CPU TIME=     0.26 TOTAL CPU TIME=       2331.1 (     38.9 MIN)
 TOTAL WALL CLOCK TIME=       5056.1 SECONDS, CPU UTILIZATION IS    46.10%

 Iter=  5 iFrag=      7 EFMO= -1360.677364302, DD= 0.003413406, DE= 0.003208308


 RHF      monomer      9 corr= NONE       , L1=   339, L0=   318 ID=      8


 AO spaces for     9     0     0 n-mer: L1=   339, L0=   318

 DIRECT SCF CALCULATION, SCHWRZ=T   FDIFF=T,  DIRTHR=  0.00E+00 NITDIR=10

                                                                                   NONZERO     BLOCKS
 ITER EX DEM     TOTAL ENERGY        E CHANGE  DENSITY CHANGE     ORB. GRAD      INTEGRALS    SKIPPED
   1  0  0    -1339.1012661319 -1339.1012661319   0.004657973   0.000000000      647239934    9539634
          ---------------START SECOND ORDER SCF---------------
   2  1  0    -1339.1011033635     0.0001627684   0.001153465   0.000242265      554099604   11023098
   3  2  0    -1339.1011478305    -0.0000444670   0.000236716   0.000071815      529319881   11269211
   4  3  0    -1339.1011328107     0.0000150198   0.000070084   0.000008850      493639912   11599237
   5  4  0    -1339.1011313961     0.0000014147   0.000024495   0.000010475      454239158   11932238
   6  5  0    -1339.1011314517    -0.0000000556   0.000007132   0.000001630      429377885   12168531
   7  6  0    -1339.1011316899    -0.0000002383   0.000002111   0.000001075      390102394   12508080
   8  7  0    -1339.1011317589    -0.0000000689   0.000001108   0.000000469      358807828   12777425
   9  8  0    -1339.1011317897    -0.0000000308   0.000000452   0.000000151      336376946   12962706
  10  9  0    -1339.1011318029    -0.0000000132   0.000000195   0.000000041      307670378   13208565
  11 10  0    -1339.1011317976     0.0000000054   0.000000086   0.000000021      272490487   13491612

          -----------------
          DENSITY CONVERGED
          -----------------
     TIME TO FORM FOCK OPERATORS=      18.4 SECONDS (       1.7 SEC/ITER)
     FOCK TIME ON FIRST ITERATION=       3.4, LAST ITERATION=       0.9
     TIME TO SOLVE SCF EQUATIONS=       0.3 SECONDS (       0.0 SEC/ITER)

 FINAL RHF ENERGY IS    -1339.1011317976 AFTER  11 ITERATIONS
 ...... END OF RHF CALCULATION ......
 CPU     0: STEP CPU TIME=    49.15 TOTAL CPU TIME=       2380.2 (     39.7 MIN)
 TOTAL WALL CLOCK TIME=       5144.7 SECONDS, CPU UTILIZATION IS    46.27%
 DONE PCM POT.
 CPU     0: STEP CPU TIME=     0.30 TOTAL CPU TIME=       2380.5 (     39.7 MIN)
 TOTAL WALL CLOCK TIME=       5145.5 SECONDS, CPU UTILIZATION IS    46.26%

 Iter=  5 iFrag=      9 EFMO= -1380.517582537, DD= 0.003881827, DE= 0.003139142


 RHF      monomer     10 corr= NONE       , L1=   309, L0=   290 ID=      9


 AO spaces for    10     0     0 n-mer: L1=   309, L0=   290

 DIRECT SCF CALCULATION, SCHWRZ=T   FDIFF=T,  DIRTHR=  0.00E+00 NITDIR=10

                                                                                   NONZERO     BLOCKS
 ITER EX DEM     TOTAL ENERGY        E CHANGE  DENSITY CHANGE     ORB. GRAD      INTEGRALS    SKIPPED
   1  0  0     -900.2938016904  -900.2938016904   0.005274642   0.000000000      498911610    7660437
          ---------------START SECOND ORDER SCF---------------
   2  1  0     -900.2936719550     0.0001297354   0.001303106   0.000298261      432820487    8924478
   3  2  0     -900.2937114068    -0.0000394518   0.000265399   0.000071545      415695918    9120969
   4  3  0     -900.2937019228     0.0000094840   0.000056711   0.000012267      394016266    9366209
   5  4  0     -900.2936999738     0.0000019489   0.000021928   0.000005646      365235935    9648495
   6  5  0     -900.2937004446    -0.0000004707   0.000007419   0.000001136      346792140    9844403
   7  6  0     -900.2937005266    -0.0000000820   0.000001730   0.000000802      319015162   10116514
   8  7  0     -900.2937005904    -0.0000000638   0.000000847   0.000000197      296409252   10347744
   9  8  0     -900.2937005910    -0.0000000006   0.000000368   0.000000148      271836365   10560927
  10  9  0     -900.2937006118    -0.0000000209   0.000000129   0.000000032      254065678   10742733

          -----------------
          DENSITY CONVERGED
          -----------------
     TIME TO FORM FOCK OPERATORS=      11.7 SECONDS (       1.2 SEC/ITER)
     FOCK TIME ON FIRST ITERATION=       1.7, LAST ITERATION=       0.9
     TIME TO SOLVE SCF EQUATIONS=       0.2 SECONDS (       0.0 SEC/ITER)

 FINAL RHF ENERGY IS     -900.2937006118 AFTER  10 ITERATIONS
 ...... END OF RHF CALCULATION ......
 CPU     0: STEP CPU TIME=    24.26 TOTAL CPU TIME=       2404.8 (     40.1 MIN)
 TOTAL WALL CLOCK TIME=       5196.4 SECONDS, CPU UTILIZATION IS    46.28%
 DONE PCM POT.
 CPU     0: STEP CPU TIME=     0.27 TOTAL CPU TIME=       2405.1 (     40.1 MIN)
 TOTAL WALL CLOCK TIME=       5197.2 SECONDS, CPU UTILIZATION IS    46.28%

 Iter=  5 iFrag=     10 EFMO=  -942.590565857, DD= 0.004252096, DE= 0.005623499


 RHF      monomer      5 corr= NONE       , L1=   296, L0=   278 ID=     10


 AO spaces for     5     0     0 n-mer: L1=   296, L0=   278

 DIRECT SCF CALCULATION, SCHWRZ=T   FDIFF=T,  DIRTHR=  0.00E+00 NITDIR=10

                                                                                   NONZERO     BLOCKS
 ITER EX DEM     TOTAL ENERGY        E CHANGE  DENSITY CHANGE     ORB. GRAD      INTEGRALS    SKIPPED
   1  0  0     -838.9542860332  -838.9542860332   0.005163002   0.000000000      346634817    7916759
          ---------------START SECOND ORDER SCF---------------
   2  1  0     -838.9541888683     0.0000971649   0.001250403   0.000272334      294605026    8797388
   3  2  0     -838.9542238212    -0.0000349529   0.000259555   0.000057043      285339531    8924397
   4  3  0     -838.9542160808     0.0000077405   0.000060086   0.000024756      269096723    9122550
   5  4  0     -838.9542147646     0.0000013162   0.000023730   0.000007538      249961026    9329872
   6  5  0     -838.9542151051    -0.0000003405   0.000005285   0.000001463      237634617    9482727
   7  6  0     -838.9542151722    -0.0000000671   0.000001863   0.000000584      215905468    9739780
   8  7  0     -838.9542152123    -0.0000000401   0.000000551   0.000000192      202948812    9882968
   9  8  0     -838.9542152089     0.0000000034   0.000000209   0.000000068      182845946   10110393
  10  9  0     -838.9542152107    -0.0000000017   0.000000055   0.000000029      171048862   10235026

          -----------------
          DENSITY CONVERGED
          -----------------
     TIME TO FORM FOCK OPERATORS=       8.9 SECONDS (       0.9 SEC/ITER)
     FOCK TIME ON FIRST ITERATION=       1.3, LAST ITERATION=       0.6
     TIME TO SOLVE SCF EQUATIONS=       0.2 SECONDS (       0.0 SEC/ITER)

 FINAL RHF ENERGY IS     -838.9542152107 AFTER  10 ITERATIONS
 ...... END OF RHF CALCULATION ......
 CPU     0: STEP CPU TIME=    25.95 TOTAL CPU TIME=       2431.0 (     40.5 MIN)
 TOTAL WALL CLOCK TIME=       5245.8 SECONDS, CPU UTILIZATION IS    46.34%
 DONE PCM POT.
 CPU     0: STEP CPU TIME=     0.25 TOTAL CPU TIME=       2431.3 (     40.5 MIN)
 TOTAL WALL CLOCK TIME=       5246.5 SECONDS, CPU UTILIZATION IS    46.34%

 Iter=  5 iFrag=      5 EFMO=  -870.948429884, DD= 0.004192461, DE= 0.003131093

 CPU     0: STEP CPU TIME=     0.00 TOTAL CPU TIME=       2431.3 (     40.5 MIN)
 TOTAL WALL CLOCK TIME=       5246.5 SECONDS, CPU UTILIZATION IS    46.34%

  Monomer SCF synchronisation on iteration   5.1 took     0.0 s.
 CPU     0: STEP CPU TIME=     0.00 TOTAL CPU TIME=       2431.3 (     40.5 MIN)
 TOTAL WALL CLOCK TIME=       5246.5 SECONDS, CPU UTILIZATION IS    46.34%
 dmexch needs              3853170  words of memory.
 CPU     0: STEP CPU TIME=     0.01 TOTAL CPU TIME=       2431.3 (     40.5 MIN)
 TOTAL WALL CLOCK TIME=       5246.5 SECONDS, CPU UTILIZATION IS    46.34%

 Data exchange of   1276421 words took     0.0 s.

 Calculating apparent surface charges...
     Using       50116 words of memory.
 ASC ITERATION=   1 CONVERGED TO  0.123657E-03
 ASC ITERATION=   2 CONVERGED TO  0.746063E-03
 ASC ITERATION=   3 CONVERGED TO  0.697920E-03
 ASC ITERATION=   4 CONVERGED TO  0.630250E-03
 ASC ITERATION=   5 CONVERGED TO  0.919118E-04
 ASC ITERATION=   6 CONVERGED TO  0.595330E-04
 ASC ITERATION=   7 CONVERGED TO  0.576285E-04
 ASC ITERATION=   8 CONVERGED TO  0.212606E-04
 ASC ITERATION=   9 CONVERGED TO  0.819390E-05
 ASC ITERATION=  10 CONVERGED TO  0.857459E-05
 ASC ITERATION=  11 CONVERGED TO  0.478634E-05
 ASC ITERATION=  12 CONVERGED TO  0.226979E-05
 ASC ITERATION=  13 CONVERGED TO  0.116460E-05
 ASC ITERATION=  14 CONVERGED TO  0.597770E-06
 ASC ITERATION=  15 CONVERGED TO  0.423373E-06
 ASC ITERATION=  16 CONVERGED TO  0.236396E-06
 ASC ITERATION=  17 CONVERGED TO  0.139092E-06
 ASC ITERATION=  18 CONVERGED TO  0.721653E-07
 ASC ITERATION=  19 CONVERGED TO  0.466791E-07
 ASC ITERATION=  20 CONVERGED TO  0.255067E-07
 ASC ITERATION=  21 CONVERGED TO  0.169248E-07
 ASC ITERATION=  22 CONVERGED TO  0.123434E-07
 ASC ITERATION=  23 CONVERGED TO  0.609079E-08
 ASC ITERATION=  24 CONVERGED TO  0.401575E-08
 ASC ITERATION=  25 CONVERGED TO  0.195783E-08
 ASC ITERATION=  26 CONVERGED TO  0.121422E-08
 ASC ITERATION=  27 CONVERGED TO  0.559518E-09
 ASC ITERATION=  28 CONVERGED TO  0.279805E-09
 ASC ITERATION=  29 CONVERGED TO  0.175348E-09
 ASC ITERATION=  30 CONVERGED TO  0.100076E-09
 ASC ITERATION=  31 CONVERGED TO  0.628586E-10

 THE ASC EQUATIONS FOR PHASE=1 CONVERGED IN  31 ITERATIONS.

 PCM ASC=      7.8358308592 normalised to=      7.8979461666
 Nuclear factor=   1.0029888739, electronic factor=   1.0030129629

 CPU     0: STEP CPU TIME=     0.15 TOTAL CPU TIME=       2431.4 (     40.5 MIN)
 TOTAL WALL CLOCK TIME=       5247.0 SECONDS, CPU UTILIZATION IS    46.34%


 ------------------------------------------------------------------------------
 FMO iter  5.1,      0 fragment(s) converged, maxD 0.004252096 maxE 0.005623499
 ------------------------------------------------------------------------------

 RHF      monomer      6 corr= NONE       , L1=   386, L0=   362 ID=      1


 AO spaces for     6     0     0 n-mer: L1=   386, L0=   362

 DIRECT SCF CALCULATION, SCHWRZ=T   FDIFF=T,  DIRTHR=  0.00E+00 NITDIR=10

                                                                                   NONZERO     BLOCKS
 ITER EX DEM     TOTAL ENERGY        E CHANGE  DENSITY CHANGE     ORB. GRAD      INTEGRALS    SKIPPED
   1  0  0    -1472.4164019151 -1472.4164019151   0.000706037   0.000000000      922014467   17585632
          ---------------START SECOND ORDER SCF---------------
   2  1  0    -1472.4163615191     0.0000403960   0.000145626   0.000045378      710290947   20198730
   3  2  0    -1472.4163666651    -0.0000051461   0.000077785   0.000016276      675831246   20492523
   4  3  0    -1472.4163621537     0.0000045115   0.000019041   0.000006175      627119906   20897420
   5  4  0    -1472.4163625245    -0.0000003709   0.000004812   0.000002942      579295779   21297232
   6  5  0    -1472.4163625663    -0.0000000417   0.000002108   0.000000396      532321251   21672730
   7  6  0    -1472.4163626664    -0.0000001001   0.000000787   0.000000347      479773342   22078019
   8  7  0    -1472.4163626498     0.0000000165   0.000000190   0.000000085      435038152   22455139
   9  8  0    -1472.4163626524    -0.0000000026   0.000000072   0.000000051      396821923   22749860

          -----------------
          DENSITY CONVERGED
          -----------------
     TIME TO FORM FOCK OPERATORS=      18.3 SECONDS (       2.0 SEC/ITER)
     FOCK TIME ON FIRST ITERATION=       3.3, LAST ITERATION=       1.4
     TIME TO SOLVE SCF EQUATIONS=       0.3 SECONDS (       0.0 SEC/ITER)

 FINAL RHF ENERGY IS    -1472.4163626524 AFTER   9 ITERATIONS
 ...... END OF RHF CALCULATION ......
 CPU     0: STEP CPU TIME=    35.75 TOTAL CPU TIME=       2467.2 (     41.1 MIN)
 TOTAL WALL CLOCK TIME=       5325.4 SECONDS, CPU UTILIZATION IS    46.33%
 DONE PCM POT.
 CPU     0: STEP CPU TIME=     0.43 TOTAL CPU TIME=       2467.6 (     41.1 MIN)
 TOTAL WALL CLOCK TIME=       5326.7 SECONDS, CPU UTILIZATION IS    46.33%

 Iter=  6 iFrag=      6 EFMO= -1507.443574056, DD= 0.000864855, DE=-0.002443760


 RHF      monomer      8 corr= NONE       , L1=   386, L0=   362 ID=      2


 AO spaces for     8     0     0 n-mer: L1=   386, L0=   362

 DIRECT SCF CALCULATION, SCHWRZ=T   FDIFF=T,  DIRTHR=  0.00E+00 NITDIR=10

                                                                                   NONZERO     BLOCKS
 ITER EX DEM     TOTAL ENERGY        E CHANGE  DENSITY CHANGE     ORB. GRAD      INTEGRALS    SKIPPED
   1  0  0    -1458.6857483147 -1458.6857483147   0.001025776   0.000000000      975134105   16946161
          ---------------START SECOND ORDER SCF---------------
   2  1  0    -1458.6856868303     0.0000614844   0.000171822   0.000058176      756798455   19768188
   3  2  0    -1458.6856909672    -0.0000041369   0.000094266   0.000017912      711139019   20163494
   4  3  0    -1458.6856850767     0.0000058905   0.000019232   0.000007244      663511282   20573234
   5  4  0    -1458.6856852650    -0.0000001883   0.000006875   0.000002985      616388103   20957336
   6  5  0    -1458.6856856501    -0.0000003851   0.000003334   0.000000674      563981848   21379863
   7  6  0    -1458.6856856593    -0.0000000092   0.000000999   0.000000353      512291458   21802065
   8  7  0    -1458.6856856538     0.0000000055   0.000000328   0.000000093      465942073   22182328
   9  8  0    -1458.6856856550    -0.0000000012   0.000000180   0.000000087      427487718   22497469

          -----------------
          DENSITY CONVERGED
          -----------------
     TIME TO FORM FOCK OPERATORS=      17.2 SECONDS (       1.9 SEC/ITER)
     FOCK TIME ON FIRST ITERATION=       2.6, LAST ITERATION=       1.3
     TIME TO SOLVE SCF EQUATIONS=       0.4 SECONDS (       0.0 SEC/ITER)

 FINAL RHF ENERGY IS    -1458.6856856550 AFTER   9 ITERATIONS
 ...... END OF RHF CALCULATION ......
 CPU     0: STEP CPU TIME=    64.55 TOTAL CPU TIME=       2532.1 (     42.2 MIN)
 TOTAL WALL CLOCK TIME=       5432.5 SECONDS, CPU UTILIZATION IS    46.61%
 DONE PCM POT.
 CPU     0: STEP CPU TIME=     0.41 TOTAL CPU TIME=       2532.6 (     42.2 MIN)
 TOTAL WALL CLOCK TIME=       5433.7 SECONDS, CPU UTILIZATION IS    46.61%

 Iter=  6 iFrag=      8 EFMO= -1507.470741361, DD= 0.001258328, DE=-0.002794633


 RHF      monomer      3 corr= NONE       , L1=   386, L0=   362 ID=      3

