‘1F5G_2_fmo_input.inp’ -> ‘/scratch/hazwong/820706/./1F5G_2_fmo_input.inp’
‘rungms’ -> ‘/scratch/hazwong/820706/./rungms’
‘gms-files.csh’ -> ‘/scratch/hazwong/820706/./gms-files.csh’
----- GAMESS execution script 'rungms' -----
This job is running on host gollum084.lsa.umich.edu
under operating system Linux at Thu Dec 5 23:25:02 EST 2019
Available scratch disk space (Kbyte units) at beginning of the job is
Filesystem     1K-blocks  Used Available Use% Mounted on
/dev/sda4      426933580 33428 426900152   1% /scratch
GAMESS temporary binary files will be written to /scratch/hazwong/820706/1F5G_2/usrc
GAMESS supplementary output files will be written to /scratch/hazwong/820706/1F5G_2/src
Copying input file 1F5G_2_fmo_input.inp to your run's scratch directory...
cp 1F5G_2_fmo_input.inp /scratch/hazwong/820706/1F5G_2/usrc/1F5G_2_fmo_input.F05
unset echo
This is a GDDI run, keeping various output files on local disks
setenv OUTPUT /scratch/hazwong/820706/1F5G_2/usrc/1F5G_2_fmo_input.F06
setenv PUNCH /scratch/hazwong/820706/1F5G_2/usrc/1F5G_2_fmo_input.F07
unset echo
 
Assuming a single but multicore node.
 
/export/apps/CentOS7/gamess/src/build//ddikick.x /export/apps/CentOS7/gamess/src/build//gamess.R3.x 1F5G_2_fmo_input -ddi 1 16 gollum084.lsa.umich.edu:cpus=16 -scr /scratch/hazwong/820706/1F5G_2/usrc

 Distributed Data Interface kickoff program.
 Initiating 16 compute processes on 1 nodes to run the following command:
 /export/apps/CentOS7/gamess/src/build//gamess.R3.x 1F5G_2_fmo_input 

          ******************************************************
          *         GAMESS VERSION = 30 SEP 2018 (R3)         *
          *             FROM IOWA STATE UNIVERSITY             *
          * M.W.SCHMIDT, K.K.BALDRIDGE, J.A.BOATZ, S.T.ELBERT, *
          *   M.S.GORDON, J.H.JENSEN, S.KOSEKI, N.MATSUNAGA,   *
          *          K.A.NGUYEN, S.J.SU, T.L.WINDUS,           *
          *       TOGETHER WITH M.DUPUIS, J.A.MONTGOMERY       *
          *         J.COMPUT.CHEM.  14, 1347-1363(1993)        *
          **************** 64 BIT LINUX VERSION ****************

  SINCE 1993, STUDENTS AND POSTDOCS WORKING AT IOWA STATE UNIVERSITY
  AND ALSO IN THEIR VARIOUS JOBS AFTER LEAVING ISU HAVE MADE IMPORTANT
  CONTRIBUTIONS TO THE CODE:
     IVANA ADAMOVIC, CHRISTINE AIKENS, YURI ALEXEEV, POOJA ARORA,
     ANDREY ASADCHEV, ROB BELL, PRADIPTA BANDYOPADHYAY, JONATHAN BENTZ,
     BRETT BODE, KURT BRORSEN, CALEB CARLIN, GALINA CHABAN, WEI CHEN,
     CHEOL HO CHOI, PAUL DAY, ALBERT DEFUSCO, NUWAN DESILVA, TIM DUDLEY,
     DMITRI FEDOROV, ALEX FINDLATER, GRAHAM FLETCHER, MARK FREITAG,
     KURT GLAESEMANN, ANASTASIA GUNINA,
     DAN KEMP, GRANT MERRILL, NORIYUKI MINEZAWA, JONATHAN MULLIN,
     TAKESHI NAGATA, SEAN NEDD, HEATHER NETZLOFF, BOSILJKA NJEGIC, RYAN OLSON,
     MIKE PAK, BUU PHAM,
     SPENCER PRUITT, LUKE ROSKOP, JIM SHOEMAKER, LYUDMILA SLIPCHENKO,
     TONY SMITH, SAROM SOK LEANG, JIE SONG, TETSUYA TAKETSUGU, SIMON WEBB,
     PENG XU, SOOHAENG YOO, FEDERICO ZAHARIEV

  ADDITIONAL CODE HAS BEEN PROVIDED BY COLLABORATORS IN OTHER GROUPS:
     IOWA STATE UNIVERSITY:
          JOE IVANIC, AARON WEST, LAIMUTIS BYTAUTAS, KLAUS RUEDENBERG
     UNIVERSITY OF TOKYO: KIMIHIKO HIRAO, TAKAHITO NAKAJIMA,
          TAKAO TSUNEDA, MUNEAKI KAMIYA, SUSUMU YANAGISAWA,
          KIYOSHI YAGI, MAHITO CHIBA, SEIKEN TOKURA, NAOAKI KAWAKAMI
     UNIVERSITY OF AARHUS: FRANK JENSEN
     UNIVERSITY OF IOWA: VISVALDAS KAIRYS, HUI LI
     NATIONAL INST. OF STANDARDS AND TECHNOLOGY: WALT STEVENS, DAVID GARMER
     UNIVERSITY OF PISA: BENEDETTA MENNUCCI, JACOPO TOMASI
     UNIVERSITY OF MEMPHIS: HENRY KURTZ, PRAKASHAN KORAMBATH
     UNIVERSITY OF ALBERTA: TOBY ZENG, MARIUSZ KLOBUKOWSKI
     UNIVERSITY OF NEW ENGLAND: MARK SPACKMAN
     MIE UNIVERSITY: HIROAKI UMEDA
     NAT. INST. OF ADVANCED INDUSTRIAL SCIENCE AND TECHNOLOGY: KAZUO KITAURA
     MICHIGAN STATE UNIVERSITY:
          KAROL KOWALSKI, MARTA WLOCH, JEFFREY GOUR, JESSE LUTZ,
          WEI LI, JUN SHEN, J. EMILIANO DEUSTUA, PIOTR PIECUCH
     UNIVERSITY OF MINNESOTA:
          YINAN SHU
     UNIVERSITY OF SILESIA: MONIKA MUSIAL, STANISLAW KUCHARSKI
     FACULTES UNIVERSITAIRES NOTRE-DAME DE LA PAIX:
          OLIVIER QUINET, BENOIT CHAMPAGNE
     UNIVERSITY OF CALIFORNIA - SANTA BARBARA: BERNARD KIRTMAN
     INSTITUTE FOR MOLECULAR SCIENCE:
          KAZUYA ISHIMURA, MICHIO KATOUDA, AND SHIGERU NAGASE
     UNIVERSITY OF NOTRE DAME: ANNA POMOGAEVA, DAN CHIPMAN
     KYUSHU UNIVERSITY:
          HARUYUKI NAKANO,
          FENG LONG GU, JACEK KORCHOWIEC, MARCIN MAKOWSKI, AND YURIKO AOKI,
          HIROTOSHI MORI AND EISAKU MIYOSHI
     PENNSYLVANIA STATE UNIVERSITY:
          TZVETELIN IORDANOV, CHET SWALINA, JONATHAN SKONE,
          SHARON HAMMES-SCHIFFER
     WASEDA UNIVERSITY:
          MASATO KOBAYASHI, TOMOKO AKAMA, TSUGUKI TOUMA,
          TAKESHI YOSHIKAWA, YASUHIRO IKABATA, JUNJI SEINO,
          YUYA NAKAJIMA, HIROMI NAKAI
     NANJING UNIVERSITY: SHUHUA LI
     UNIVERSITY OF NEBRASKA:
          PEIFENG SU, DEJUN SI, NANDUN THELLAMUREGE, YALI WANG, HUI LI
     UNIVERSITY OF ZURICH: ROBERTO PEVERATI, KIM BALDRIDGE
     N. COPERNICUS UNIVERSITY AND JACKSON STATE UNIVERSITY:
          MARIA BARYSZ
     UNIVERSITY OF COPENHAGEN: Jimmy Kromann, CASPER STEINMANN
     TOKYO INSTITUTE OF TECHNOLOGY: HIROYA NAKATA
     NAGOYA UNIVERSITY: YOSHIO NISHIMOTO, STEPHAN IRLE
     MOSCOW STATE UNIVERSITY: VLADIMIR MIRONOV


 PARALLEL VERSION RUNNING ON       16 PROCESSORS IN        1 NODES.

 EXECUTION OF GAMESS BEGUN Thu Dec  5 23:25:03 2019

            ECHO OF THE FIRST FEW INPUT CARDS -
 INPUT CARD>!*** FMO 5.3 (Gamess) INPUT generated by Facio 22.1.1.32 ***                    
 INPUT CARD> $CONTRL RUNTYP=ENERGY NPRINT=-5 ISPHER=1 MAXIT=200 $END                        
 INPUT CARD> $SYSTEM MWORDS=63 MEMDDI=63 $END                                               
 INPUT CARD> $GDDI NGROUP=1 $END                                                            
 INPUT CARD> $SCF DIRSCF=.TRUE. NPUNCH=0 $END                                               
 INPUT CARD>!*** NumCPU : 2  MemPerNode : 512MB                                             
 INPUT CARD> $PCM SOLVNT=WATER IEF=-10 ICOMP=2 ICAV=1 IDISP=1 IFMO=-1 $END                  
 INPUT CARD> $PCMCAV RADII=SUAHF $END                                                       
 INPUT CARD> $TESCAV NTSALL=60 $END                                                         
 INPUT CARD> $FMOPRP                                                                        
 INPUT CARD>    NAODIR=200                                                                  
 INPUT CARD>    NGRFMO(1)=1, 1, 0, 0, 0,   0, 0, 0, 0, 0                                    
 INPUT CARD>    IPIEDA=1                                                                    
 INPUT CARD>    NPRINT=9                                                                    
 INPUT CARD> $END                                                                           
 INPUT CARD> $FMO                                                                           
 INPUT CARD>      SCFTYP(1)=RHF                                                             
 INPUT CARD>      MODGRD=10                                                                 
 INPUT CARD>      MODMUL=0                                                                  
 INPUT CARD>      MAXCAO=5                                                                  
 INPUT CARD>      MAXBND=12                                                                 
 INPUT CARD>      NLAYER=1                                                                  
 INPUT CARD>      MPLEVL(1)=2                                                               
 INPUT CARD>      NFRAG=10                                                                  
 INPUT CARD>      ICHARG(1)=-1, -1, -1, -1, 0, -1, -1, -1, -1, 0                            
 INPUT CARD>      FRGNAM(1)=F1, F2, F3, F4, F5, F6, F7, F8, F9, F10                         
 INPUT CARD>      indat(1)=0                                                                
 INPUT CARD>               1   -33   0                                                      
 INPUT CARD>               34   -66   0                                                     
 INPUT CARD>               67   -100   0                                                    
 INPUT CARD>               101   -134   0                                                   
 INPUT CARD>               135   -164   0                                                   
 INPUT CARD>               165   -198   0                                                   
 INPUT CARD>               199   -229   0                                                   
 INPUT CARD>               230   -263   0                                                   
 INPUT CARD>               264   -293   0                                                   
 INPUT CARD>               294   -324   0                                                   
 INPUT CARD> $END                                                                           
 INPUT CARD>                                                                                
 INPUT CARD> $FMOBND                                                                        
 INPUT CARD>   -34   33       6-31G*    MINI                                                
 INPUT CARD>   -67   66       6-31G*    MINI                                                
 INPUT CARD>   -101   100       6-31G*    MINI                                              
 INPUT CARD>   -135   134       6-31G*    MINI                                              
 INPUT CARD>   -165   164       6-31G*    MINI                                              
 INPUT CARD>   -199   198       6-31G*    MINI                                              
 INPUT CARD>   -230   229       6-31G*    MINI                                              
 INPUT CARD>   -264   263       6-31G*    MINI                                              
 INPUT CARD>   -294   293       6-31G*    MINI                                              
 INPUT CARD> $END                                                                           


 -------------------------------------------------------------
 GROUP DDI, PROGRAMMED BY: RYAN M. OLSON AND DMITRI G. FEDOROV
        FEDOROV ET AL., J. COMPUT. CHEM., 25 (2004) 872.
 -------------------------------------------------------------

 -------------------------------------------------------
 GDDI: INITIALIZATION COMPLETED FOR GROUP     1 OF     1
 WITH    16 PROCESSES BALTYP=DLB   global rank=        0
 -------------------------------------------------------

   63000000 WORDS OF MEMORY AVAILABLE


     RUN TITLE
     ---------
  FMO calculation                                                                

 THE POINT GROUP OF THE MOLECULE IS C1      
 THE ORDER OF THE PRINCIPAL AXIS IS     0

 ATOM   ATOMIC CHARGE
 H.1-1       1.0
 O.1-1       8.0
 C.1-1       6.0
 N.1-1       7.0
 P.1-1      15.0

     ATOMIC BASIS SET LIBRARY
     ----------------
 THE CONTRACTED PRIMITIVE FUNCTIONS HAVE BEEN UNNORMALIZED
 THE CONTRACTED BASIS FUNCTIONS ARE NOW NORMALIZED TO UNITY

  SHELL TYPE  PRIMITIVE        EXPONENT          CONTRACTION COEFFICIENT(S)

 H.1-1     

      1   S       1            18.7311370    0.033494604338
      1   S       2             2.8253944    0.234726953484
      1   S       3             0.6401217    0.813757326146

      2   S       4             0.1612778    1.000000000000

 O.1-1     

      3   S       5          5484.6716600    0.001831074430
      3   S       6           825.2349460    0.013950172200
      3   S       7           188.0469580    0.068445078098
      3   S       8            52.9645000    0.232714335992
      3   S       9            16.8975704    0.470192897984
      3   S      10             5.7996353    0.358520852987

      4   L      11            15.5396162   -0.110777549525    0.070874268231
      4   L      12             3.5999336   -0.148026262701    0.339752839147
      4   L      13             1.0137618    1.130767015354    0.727158577316

      5   L      14             0.2700058    1.000000000000    1.000000000000

      6   D      15             0.8000000    1.000000000000

 C.1-1     

      7   S      16          3047.5248800    0.001834737132
      7   S      17           457.3695180    0.014037322813
      7   S      18           103.9486850    0.068842622264
      7   S      19            29.2101553    0.232184443216
      7   S      20             9.2866630    0.467941348435
      7   S      21             3.1639270    0.362311985337

      8   L      22             7.8682723   -0.119332419775    0.068999066591
      8   L      23             1.8812885   -0.160854151696    0.316423960957
      8   L      24             0.5442493    1.143456437840    0.744308290898

      9   L      25             0.1687145    1.000000000000    1.000000000000

     10   D      26             0.8000000    1.000000000000

 N.1-1     

     11   S      27          4173.5114600    0.001834772160
     11   S      28           627.4579110    0.013994627002
     11   S      29           142.9020930    0.068586551812
     11   S      30            40.2343293    0.232240873040
     11   S      31            12.8202129    0.469069948082
     11   S      32             4.3904370    0.360455199063

     12   L      33            11.6263619   -0.114961181702    0.067579743878
     12   L      34             2.7162798   -0.169117478561    0.323907295893
     12   L      35             0.7722184    1.145851947027    0.740895139755

     13   L      36             0.2120315    1.000000000000    1.000000000000

     14   D      37             0.8000000    1.000000000000

 P.1-1     

     15   S      38         19413.3000000    0.001851598923
     15   S      39          2909.4200000    0.014206191735
     15   S      40           661.3640000    0.069999459277
     15   S      41           185.7590000    0.240078860331
     15   S      42            59.1943000    0.484761717984
     15   S      43            20.0310000    0.335199804993

     16   L      44           339.4780000   -0.002782170105    0.004564616191
     16   L      45            81.0101000   -0.036049901354    0.033693571881
     16   L      46            25.8780000   -0.116631004382    0.139754883368
     16   L      47             9.4522100    0.096832803638    0.339361716786
     16   L      48             3.6656600    0.614418023082    0.450920623685
     16   L      49             1.4674600    0.403798015170    0.238585800889

     17   L      50             2.1562300   -0.252924113863   -0.017765312733
     17   L      51             0.7489970    0.032851844678    0.274058196433
     17   L      52             0.2831450    1.081254761783    0.785421562957

     18   L      53             0.0998317    1.000000000000    1.000000000000

     19   D      54             0.5500000    1.000000000000

 TOTAL NUMBER OF BASIS SET SHELLS             =   19
 NUMBER OF CARTESIAN GAUSSIAN BASIS FUNCTIONS =   66

     $CONTRL OPTIONS
     ---------------
 SCFTYP=RHF          RUNTYP=ENERGY       EXETYP=RUN     
 MPLEVL=       0     CITYP =NONE         CCTYP =NONE         VBTYP =NONE    
 DFTTYP=NONE         TDDFT =NONE    
 MULT  =       1     ICHARG=       0     NZVAR =       0     COORD =UNIQUE  
 PP    =NONE         RELWFN=NONE         LOCAL =NONE         NUMGRD=       F
 ISPHER=       1     NOSYM =       0     MAXIT =     200     UNITS =ANGS    
 PLTORB=       F     MOLPLT=       F     AIMPAC=       F     FRIEND=        
 NPRINT=      -5     IREST =       0     GEOM  =INPUT   
 NORMF =       0     NORMP =       0     ITOL  =      24     ICUT  =      12
 INTTYP=BEST         GRDTYP=BEST         QMTTOL= 1.0E-06

     $SYSTEM OPTIONS
     ---------------
  REPLICATED MEMORY=    63000000 WORDS (ON EVERY NODE).
 DISTRIBUTED MEMDDI=          63 MILLION WORDS IN AGGREGATE,
 MEMDDI DISTRIBUTED OVER  16 PROCESSORS IS     3937500 WORDS/PROCESSOR.
 TOTAL MEMORY REQUESTED ON EACH PROCESSOR=    66937500 WORDS.
 TIMLIM=      525600.00 MINUTES, OR     365.0 DAYS.
 PARALL= T  BALTYP=  DLB     KDIAG=    0  COREFL= F
 MXSEQ2=     300 MXSEQ3=     150  mem10=         0

 ** LOOKING UP INTERNALLY STORED DATA FOR SOLVENT=WATER    **
 OPTICAL AND PHYSICAL CONSTANTS:
 EPS= 78.390; EPSINF=  1.776; RSOLV=  1.385 A; VMOL=  18.070 ML/MOL;
 TCE= .25700E-03 1/K; STEN= 71.810 DYN/CM;  DSTEN=  0.6500; CMF=  1.2770


     -----------------------------------
     INPUT FOR PCM SOLVATION CALCULATION 
     -----------------------------------
     IEF   =     -10
     ICOMP =       2     IFIELD=       0     ICAV  =       1
     IDISP =       1     IREP  =       0     IDP   =       0

     SOLVNT=WATER        EPS   = 78.3900     EPSINF=  1.7760
     VMOL  = 18.0700     TCE   =  0.00025700 STEN  = 71.8100
     DSTEN =  0.6500     CMF   =  1.2770     RSOLV =  1.3850

     NESFP =       0
     OMEGA = 40.0000     RET   =100.0000     FRO   =  0.7000

     TABS  =298.0000     IPRINT=       0

     --------------------------------
     INPUT FOR ITERATIVE C-PCM METHOD 
     --------------------------------
     IPCMIT  =         1     MXDIIS  =        50
     MXITR1  =       200     MXITR2  =       200
     THRES   = 0.100E-09     IMUL    =         3
     RCUT(1) =   20.0000     RCUT(2) =   50.0000

     IDIRCT  =         1
     IMGABI  =         0     RABI    =    4.0000
     IMGASC  =         0     RASC    =   20.0000
     THRSLS  = 0.500E-03     DENSLS  =    0.0100
     IEFPOL  =         1     REFPOL  =    0.0000

     INPUT FOR ISOTROPIC DIELECTRICS
     -------------------------------
     EPS=    78.39

          ----------------
          PROPERTIES INPUT
          ----------------

     MOMENTS            FIELD           POTENTIAL          DENSITY
 IEMOM =       1   IEFLD =       0   IEPOT =       0   IEDEN =       0
 WHERE =COMASS     WHERE =NUCLEI     WHERE =NUCLEI     WHERE =NUCLEI  
 OUTPUT=BOTH       OUTPUT=BOTH       OUTPUT=NONE       OUTPUT=BOTH    
 IEMINT=       0   IEFINT=       0                     IEDINT=       0
                                                       MORB  =       0
          EXTRAPOLATION IN EFFECT
          SOSCF IN EFFECT
 ORBITAL PRINTING OPTION: NPREO=     1 32767     2     1

     -------------------------------
     INTEGRAL TRANSFORMATION OPTIONS
     -------------------------------
     NWORD  =            0
     CUTOFF = 1.0E-10     MPTRAN =       0
     DIRTRF =       T     AOINTS =DUP     

          ----------------------
          INTEGRAL INPUT OPTIONS
          ----------------------
 NOPK  =       1 NORDER=       0 SCHWRZ=       T

 ..... DONE SETTING UP THE RUN .....
 CPU     0: STEP CPU TIME=     0.04 TOTAL CPU TIME=          0.0 (      0.0 MIN)
 TOTAL WALL CLOCK TIME=          0.1 SECONDS, CPU UTILIZATION IS    40.00%
 CPU     0: STEP CPU TIME=     0.00 TOTAL CPU TIME=          0.0 (      0.0 MIN)
 TOTAL WALL CLOCK TIME=          0.1 SECONDS, CPU UTILIZATION IS    40.00%

                    ----------------------
                    AO INTEGRAL TECHNOLOGY
                    ----------------------
     S,P,L SHELL ROTATED AXIS INTEGRALS, REPROGRAMMED BY
        KAZUYA ISHIMURA (IMS) AND JOSE SIERRA (SYNSTAR).
     S,P,D,L SHELL ROTATED AXIS INTEGRALS PROGRAMMED BY
        KAZUYA ISHIMURA (INSTITUTE FOR MOLECULAR SCIENCE).
     S,P,D,F,G SHELL TO TOTAL QUARTET ANGULAR MOMENTUM SUM 5,
        ERIC PROGRAM BY GRAHAM FLETCHER (ELORET AND NASA ADVANCED
        SUPERCOMPUTING DIVISION, AMES RESEARCH CENTER).
     S,P,D,F,G,L SHELL GENERAL RYS QUADRATURE PROGRAMMED BY
        MICHEL DUPUIS (PACIFIC NORTHWEST NATIONAL LABORATORY).
 Setting modorb=1 flag...
 Setting modorb=1 flag...

          -----------------------
          MP2 CONTROL INFORMATION
          -----------------------
          NACORE =        8  NBCORE =        8
          LMOMP2 =        F  AOINTS = DUP     
          METHOD =        2  NWORD  =               0
          MP2PRP =        F  OSPT   = NONE    
          CUTOFF = 1.00E-12  CPHFBS = BASISAO 
          CODE   = IMS     

          NUMBER OF CORE -A-  ORBITALS =     8
          NUMBER OF CORE -B-  ORBITALS =     8
          NUMBER OF OCC. -A-  ORBITALS =    18
          NUMBER OF OCC. -B-  ORBITALS =    18
          NUMBER OF MOLECULAR ORBITALS =    66
          NUMBER OF   BASIS  FUNCTIONS =    66

 CPU     0: STEP CPU TIME=     0.02 TOTAL CPU TIME=          0.1 (      0.0 MIN)
 TOTAL WALL CLOCK TIME=          0.1 SECONDS, CPU UTILIZATION IS    46.15%
 CPU     0: STEP CPU TIME=     0.00 TOTAL CPU TIME=          0.1 (      0.0 MIN)
 TOTAL WALL CLOCK TIME=          0.1 SECONDS, CPU UTILIZATION IS    46.15%

     INPUT FOR CAVITY DEFINITION 
     ---------------------------
   ATOM               COORDINATES                RADIUS       EPS
      1     -5.9460     11.0170     -6.6670      0.0100     78.3900
      2     -5.0270     10.9630     -6.9920      1.5900     78.3900
      3     -5.0440     11.3890     -8.3630      1.7700     78.3900
      4     -5.4690     12.4160     -8.4150      0.0100     78.3900
      5     -5.7080     10.7130     -8.9470      0.0100     78.3900
      6     -3.6560     11.3800     -9.0150      1.7700     78.3900
      7     -3.7250     11.6580    -10.0880      0.0100     78.3900
      8     -2.7810     12.3560     -8.3700      1.5900     78.3900
      9     -1.4730     11.8060     -8.2640      1.7700     78.3900
     10     -0.7900     12.5320     -8.7620      0.0100     78.3900
     11     -1.0360     11.6270     -6.8510      1.6800     78.3900
     12     -1.9640     11.5890     -5.8340      1.7700     78.3900
     13     -3.0080     11.7070     -6.1260      0.0100     78.3900
     14     -1.5920     11.4590     -4.5530      1.7700     78.3900
     15     -2.3130     11.4550     -3.7360      0.0100     78.3900
     16      0.3170     11.4840     -6.5540      1.7700     78.3900
     17      1.1450     11.5000     -7.4760      1.5900     78.3900
     18      0.7120     11.3660     -5.2660      1.6800     78.3900
     19     -0.2000     11.3520     -4.2780      1.7700     78.3900
     20      0.2210     11.2400     -3.0190      1.6800     78.3900
     21      1.1990     11.1170     -2.8320      0.0100     78.3900
     22     -0.4170     11.2420     -2.2470      0.0100     78.3900
     23     -1.4630     10.5140     -9.0580      1.7700     78.3900
     24     -0.7410      9.7720     -8.6580      0.0100     78.3900
     25     -1.1670     10.7940    -10.4120      1.5900     78.3900
     26     -1.2210      9.9560    -10.8860      0.0100     78.3900
     27     -2.9070     10.0440     -8.9000      1.7700     78.3900
     28     -3.0740      9.6650     -7.8650      0.0100     78.3900
     29     -3.3920      9.1250     -9.9110      1.5900     78.3900
     30     -3.0830      7.5840     -9.7480      2.1000     78.3900
     31     -3.5550      7.1180     -8.4230      1.5900     78.3900
     32     -3.6690      6.8930    -10.9210      1.5900     78.3900
     33     -1.5180      7.4870     -9.8030      1.5900     78.3900
     34     -0.8090      7.5470    -11.0620      1.7700     78.3900
     35     -0.8850      8.5540    -11.5260      0.0100     78.3900
     36     -1.2250      6.8180    -11.7950      0.0100     78.3900
     37      0.6790      7.2320    -10.8540      1.7700     78.3900
     38      1.2280      7.2770    -11.8170      0.0100     78.3900
     39      1.2810      8.2150     -9.9590      1.5900     78.3900
     40      2.2060      7.5540     -9.1020      1.7700     78.3900
     41      3.1790      8.0830     -9.2300      0.0100     78.3900
     42      1.8050      7.6320     -7.6970      1.6800     78.3900
     43      1.8390      7.7210     -5.5020      1.7700     78.3900
     44      0.5070      7.8460     -5.8740      1.6800     78.3900
     45      0.5410      7.7890     -7.1830      1.7700     78.3900
     46     -0.3300      7.8680     -7.8340      0.0100     78.3900
     47      3.8240      7.5520     -4.2240      1.6800     78.3900
     48      4.4600      7.3680     -5.3810      1.7700     78.3900
     49      5.5370      7.2070     -5.2860      0.0100     78.3900
     50      3.9770      7.3930     -6.6270      1.6800     78.3900
     51      2.6460      7.5720     -6.6160      1.7700     78.3900
     52      2.4790      7.7280     -4.2450      1.7700     78.3900
     53      1.8230      7.8800     -3.0820      1.6800     78.3900
     54      0.8220      7.9490     -3.0340      0.0100     78.3900
     55      2.3420      7.8860     -2.2230      0.0100     78.3900
     56      2.3510      6.1250     -9.5890      1.7700     78.3900
     57      2.5640      5.4040     -8.7670      0.0100     78.3900
     58      3.3670      6.0430    -10.5740      1.5900     78.3900
     59      3.3520      5.1310    -10.9030      0.0100     78.3900
     60      0.9730      5.8780    -10.1950      1.7700     78.3900
     61      0.2150      5.7380     -9.3910      0.0100     78.3900
     62      0.9170      4.8320    -11.1880      1.5900     78.3900
     63      0.8770      3.3340    -10.7040      2.1000     78.3900
     64      0.0610      3.2700     -9.4600      1.5900     78.3900
     65      0.4480      2.5000    -11.8390      1.5900     78.3900
     66      2.3820      2.9950    -10.3690      1.5900     78.3900
     67      2.6460      1.9280     -9.4180      1.7700     78.3900
     68      2.3080      0.9440     -9.8190      0.0100     78.3900
     69      2.0940      2.0930     -8.4670      0.0100     78.3900
     70      4.1480      1.8100     -9.0910      1.7700     78.3900
     71      4.7110      1.5720    -10.0170      0.0100     78.3900
     72      4.6920      3.0730     -8.5900      1.5900     78.3900
     73      5.5620      2.8060     -7.4940      1.7700     78.3900
     74      6.5040      3.3570     -7.7220      0.0100     78.3900
     75      5.0340      3.2730     -6.1890      1.6800     78.3900
     76      3.7430      3.6090     -5.8250      1.7700     78.3900
     77      0.4190      4.0030     -6.6910      1.6800     78.3900
     78     -0.4580      4.2200     -6.2610      0.0100     78.3900
     79      0.4280      3.7000     -7.6480      0.0100     78.3900
     80      2.6600      3.5860     -6.6140      1.6800     78.3900
     81      1.5510      3.9590     -6.0100      1.7700     78.3900
     82      1.5120      4.3150     -4.6880      1.6800     78.3900
     83      0.6280      4.5710     -4.2850      0.0100     78.3900
     84      2.6120      4.3290     -3.8310      1.7700     78.3900
     85      2.5140      4.6510     -2.6430      1.5900     78.3900
     86      3.8090      3.9550     -4.4960      1.7700     78.3900
     87      5.1090      3.8600     -4.0230      1.6800     78.3900
     88      5.8020      3.4500     -5.0590      1.7700     78.3900
     89      6.8800      3.2630     -5.0570      0.0100     78.3900
     90      5.8310      1.3170     -7.4860      1.7700     78.3900
     91      6.0310      0.9170     -6.4690      0.0100     78.3900
     92      6.9210      1.0250     -8.3400      1.5900     78.3900
     93      6.8790      0.0800     -8.5500      0.0100     78.3900
     94      4.5220      0.7580     -8.0320      1.7700     78.3900
     95      3.7290      0.8060     -7.2500      0.0100     78.3900
     96      4.6320     -0.5500     -8.6440      1.5900     78.3900
     97      4.3390     -1.8610     -7.8190      2.1000     78.3900
     98      2.8950     -1.8830     -7.4750      1.5900     78.3900
     99      4.8440     -3.0140     -8.5960      1.5900     78.3900
    100      5.1890     -1.7020     -6.4990      1.5900     78.3900
    101      6.6120     -1.9870     -6.5010      1.7700     78.3900
    102      7.1680     -1.2360     -7.1040      0.0100     78.3900
    103      6.8350     -2.9890     -6.9380      0.0100     78.3900
    104      7.1960     -1.9570     -5.0850      1.7700     78.3900
    105      8.2800     -2.2030     -5.0950      0.0100     78.3900
    106      7.0550     -0.6190     -4.5280      1.5900     78.3900
    107      6.7480     -0.7170     -3.1450      1.7700     78.3900
    108      7.5230     -0.1290     -2.6000      0.0100     78.3900
    109      5.4200     -0.1490     -2.8530      1.6800     78.3900
    110      4.9080      0.1570     -1.6190      1.7700     78.3900
    111      5.2140      0.2270      1.8330      1.6800     78.3900
    112      6.1230     -0.1610      1.9880      0.0100     78.3900
    113      4.6600      0.4860      2.6280      0.0100     78.3900
    114      5.5250     -0.0310     -0.4390      1.6800     78.3900
    115      4.7850      0.3720      0.5930      1.7700     78.3900
    116      3.5450      0.9370      0.4470      1.6800     78.3900
    117      3.0460      1.1970      1.2830      0.0100     78.3900
    118      2.8840      1.1590     -0.7580      1.7700     78.3900
    119      1.7640      1.6810     -0.7920      1.5900     78.3900
    120      3.6580      0.6980     -1.8580      1.7700     78.3900
    121      3.3760      0.7050     -3.2170      1.6800     78.3900
    122      4.4540      0.2010     -3.7700      1.7700     78.3900
    123      4.6100      0.0520     -4.8410      0.0100     78.3900
    124      6.8590     -2.1800     -2.7580      1.7700     78.3900
    125      6.1590     -2.4620     -1.9480      0.0100     78.3900
    126      8.1850     -2.4690     -2.3590      1.5900     78.3900
    127      8.2480     -3.4290     -2.2660      0.0100     78.3900
    128      6.5060     -2.8720     -4.0690      1.7700     78.3900
    129      5.4110     -2.7790     -4.2640      0.0100     78.3900
    130      7.0090     -4.2260     -4.2010      1.5900     78.3900
    131      6.0180     -5.4230     -3.9600      2.1000     78.3900
    132      4.7120     -5.1100     -4.5740      1.5900     78.3900
    133      6.6710     -6.6830     -4.3760      1.5900     78.3900
    134      5.8520     -5.4280     -2.3950      1.5900     78.3900
    135      6.9580     -5.8430     -1.5610      1.7700     78.3900
    136      7.8640     -5.2240     -1.7570      0.0100     78.3900
    137      7.2130     -6.9110     -1.7580      0.0100     78.3900
    138      6.6130     -5.7100     -0.0720      1.7700     78.3900
    139      7.4540     -6.0500      0.5680      0.0100     78.3900
    140      6.3690     -4.3100      0.2490      1.5900     78.3900
    141      5.2900     -4.2210      1.1720      1.7700     78.3900
    142      5.6920     -3.6640      2.0500      0.0100     78.3900
    143      4.1230     -3.4730      0.6230      1.6800     78.3900
    144      3.9820     -3.3100     -0.7340      1.7700     78.3900
    145      4.7650     -3.7450     -1.3500      0.0100     78.3900
    146      2.9580     -2.6250     -1.2590      1.7700     78.3900
    147      2.8550     -2.4640     -2.3300      0.0100     78.3900
    148      3.1550     -2.9600      1.4800      1.7700     78.3900
    149      3.2670     -3.1450      2.7000      1.5900     78.3900
    150      2.1120     -2.2620      0.9710      1.6800     78.3900
    151      1.9970     -2.0900     -0.3570      1.7700     78.3900
    152      0.9710     -1.3860     -0.8280      1.6800     78.3900
    153      0.2970     -1.0070     -0.1890      0.0100     78.3900
    154      0.8480     -1.2130     -1.8060      0.0100     78.3900
    155      4.9380     -5.6350      1.6050      1.7700     78.3900
    156      3.8540     -5.7530      1.8200      0.0100     78.3900
    157      5.7050     -5.9870      2.7470      1.5900     78.3900
    158      5.6110     -6.9430      2.8960      0.0100     78.3900
    159      5.3390     -6.4400      0.3720      1.7700     78.3900
    160      4.5760     -6.3260     -0.4290      0.0100     78.3900
    161      5.6080     -7.8320      0.6320      1.5900     78.3900
    162      4.7780     -8.2950      0.8430      0.0100     78.3900
    163     -6.1820      3.4820      6.1610      0.0100     78.3900
    164     -5.3590      2.9690      6.2630      1.5900     78.3900
    165     -5.3430      2.4900      7.6170      1.7700     78.3900
    166     -6.2490      1.8650      7.7880      0.0100     78.3900
    167     -5.3860      3.3590      8.3110      0.0100     78.3900
    168     -4.1020      1.6560      7.9590      1.7700     78.3900
    169     -4.1070      1.3620      9.0300      0.0100     78.3900
    170     -4.0880      0.4320      7.1670      1.5900     78.3900
    171     -2.7500      0.1290      6.8010      1.7700     78.3900
    172     -2.5330     -0.9030      7.1560      0.0100     78.3900
    173     -2.5630      0.1930      5.3440      1.6800     78.3900
    174     -1.5310     -0.3630      4.6400      1.7700     78.3900
    175      1.4490     -2.1240      4.5540      1.6800     78.3900
    176      1.6180     -2.3370      5.5150      0.0100     78.3900
    177      2.0960     -2.4550      3.8610      0.0100     78.3900
    178     -0.5070     -1.0610      5.1610      1.6800     78.3900
    179      0.3500     -1.4730      4.2270      1.7700     78.3900
    180      0.1560     -1.2640      2.8860      1.6800     78.3900
    181      0.8370     -1.6350      2.2430      0.0100     78.3900
    182     -0.9030     -0.5680      2.3180      1.7700     78.3900
    183     -0.9980     -0.4270      1.0950      1.5900     78.3900
    184     -1.7850     -0.0680      3.3130      1.7700     78.3900
    185     -2.9400      0.6940      3.1880      1.6800     78.3900
    186     -3.3680      0.8290      4.4230      1.7700     78.3900
    187     -4.2770      1.3550      4.7300      0.0100     78.3900
    188     -1.8520      1.1070      7.5240      1.7700     78.3900
    189     -0.9340      1.3390      6.9490      0.0100     78.3900
    190     -1.4960      0.6010      8.7960      1.5900     78.3900
    191     -0.9450      1.2770      9.2110      0.0100     78.3900
    192     -2.7560      2.3270      7.6440      1.7700     78.3900
    193     -2.8710      2.8280      6.6540      0.0100     78.3900
    194     -2.4010      3.2420      8.7060      1.5900     78.3900
    195     -1.4240      4.4360      8.3770      2.1000     78.3900
    196     -1.8810      5.0880      7.1300      1.5900     78.3900
    197     -1.3450      5.2980      9.5800      1.5900     78.3900
    198     -0.0390      3.7520      8.0940      1.5900     78.3900
    199      0.7240      3.1140      9.1390      1.7700     78.3900
    200      0.1110      2.3750      9.7020      0.0100     78.3900
    201      1.0780      3.8660      9.8780      0.0100     78.3900
    202      1.9530      2.3870      8.5680      1.7700     78.3900
    203      2.5100      1.8720      9.3760      0.0100     78.3900
    204      1.5390      1.3710      7.6070      1.5900     78.3900
    205      2.4870      1.3150      6.5440      1.7700     78.3900
    206      2.8500      0.2600      6.5160      0.0100     78.3900
    207      1.9040      1.6660      5.2150      1.6800     78.3900
    208      0.7400      2.3940      5.1340      1.7700     78.3900
    209      0.2790      2.6570      6.0840      0.0100     78.3900
    210      0.1920      2.7120      3.9520      1.7700     78.3900
    211     -0.7580      3.2380      3.8740      0.0100     78.3900
    212      2.5810      1.3260      4.0480      1.7700     78.3900
    213      3.6740      0.7460      4.1310      1.5900     78.3900
    214      2.0350      1.6120      2.8440      1.6800     78.3900
    215      0.8710      2.2800      2.7770      1.7700     78.3900
    216      0.3430      2.5210      1.5800      1.6800     78.3900
    217      0.8240      2.2160      0.7560      0.0100     78.3900
    218     -0.5420      2.9750      1.4650      0.0100     78.3900
    219      3.6390      2.2170      6.9260      1.7700     78.3900
    220      4.1270      2.6810      6.0470      0.0100     78.3900
    221      4.5960      1.4930      7.6750      1.5900     78.3900
    222      5.2230      2.1480      8.0070      0.0100     78.3900
    223      2.9450      3.2620      7.7880      1.7700     78.3900
    224      2.3410      3.9560      7.1570      0.0100     78.3900
    225      3.8220      3.9440      8.7080      1.5900     78.3900
    226      4.4770      5.3130      8.3080      2.1000     78.3900
    227      3.4380      6.1900      7.7200      1.5900     78.3900
    228      5.1770      5.8680      9.4870      1.5900     78.3900
    229      5.5040      4.9450      7.1730      1.5900     78.3900
    230      6.7030      4.1800      7.4100      1.7700     78.3900
    231      6.4890      3.2480      7.9790      0.0100     78.3900
    232      7.4240      4.7740      8.0180      0.0100     78.3900
    233      7.3930      3.7860      6.0920      1.7700     78.3900
    234      8.2940      3.1670      6.2950      0.0100     78.3900
    235      6.4980      2.9760      5.2780      1.5900     78.3900
    236      6.6390      3.3360      3.9120      1.7700     78.3900
    237      6.8730      2.3990      3.3570      0.0100     78.3900
    238      5.4010      3.9050      3.3670      1.6800     78.3900
    239      5.0750      3.9980      2.0400      1.7700     78.3900
    240      5.8560      3.5180     -1.2940      1.6800     78.3900
    241      6.7830      3.1490     -1.2330      0.0100     78.3900
    242      5.4580      3.7020     -2.1990      0.0100     78.3900
    243      5.8360      3.5880      1.0070      1.6800     78.3900
    244      5.2510      3.8250     -0.1680      1.7700     78.3900
    245      3.9960      4.3640     -0.2930      1.6800     78.3900
    246      3.5940      4.4730     -1.2120      0.0100     78.3900
    247      3.1750      4.7510      0.7580      1.7700     78.3900
    248      2.0480      5.2180      0.5710      1.5900     78.3900
    249      3.8190      4.5740      2.0100      1.7700     78.3900
    250      3.3770      4.8620      3.2940      1.6800     78.3900
    251      4.3490      4.4500      4.0680      1.7700     78.3900
    252      4.3570      4.5140      5.1570      0.0100     78.3900
    253      7.8040      4.2960      3.8050      1.7700     78.3900
    254      7.6650      5.0510      2.9990      0.0100     78.3900
    255      9.0010      3.5750      3.5770      1.5900     78.3900
    256      9.7160      4.2290      3.6000      0.0100     78.3900
    257      7.8060      4.9580      5.1840      1.7700     78.3900
    258      6.9940      5.7170      5.2520      0.0100     78.3900
    259      9.0860      5.4770      5.6130      1.5900     78.3900
    260      9.5750      6.8720      5.0730      2.1000     78.3900
    261      8.4710      7.8450      5.2200      1.5900     78.3900
    262     10.8510      7.2150      5.7410      1.5900     78.3900
    263      9.8570      6.6300      3.5380      1.5900     78.3900
    264      9.8700      7.7870      2.6610      1.7700     78.3900
    265     10.6680      8.5010      2.9650      0.0100     78.3900
    266      8.8980      8.3320      2.7060      0.0100     78.3900
    267     10.1230      7.4190      1.1890      1.7700     78.3900
    268     11.1490      7.0170      1.0580      0.0100     78.3900
    269      9.1860      6.3920      0.7490      1.5900     78.3900
    270      8.7270      6.6950     -0.5640      1.7700     78.3900
    271      8.8970      5.7760     -1.1680      0.0100     78.3900
    272      7.2750      7.0580     -0.5750      1.6800     78.3900
    273      6.6040      7.3370      0.5980      1.7700     78.3900
    274      7.2010      7.2940      1.5120      0.0100     78.3900
    275      6.6160      7.0860     -1.7890      1.7700     78.3900
    276      7.1730      6.8360     -2.8480      1.5900     78.3900
    277      5.2820      7.4110     -1.7110      1.6800     78.3900
    278      4.7900      7.4580     -2.5970      0.0100     78.3900
    279      4.5500      7.6990     -0.5800      1.7700     78.3900
    280      3.3500      7.9500     -0.6630      1.5900     78.3900
    281      5.2990      7.6430      0.6380      1.7700     78.3900
    282      4.7830      7.8390      1.5730      0.0100     78.3900
    283      9.6120      7.8140     -1.0910      1.7700     78.3900
    284      9.0920      8.4610     -1.8280      0.0100     78.3900
    285     10.7920      7.2880     -1.6740      1.5900     78.3900
    286     11.3860      8.0340     -1.8260      0.0100     78.3900
    287      9.9130      8.5700      0.1930      1.7700     78.3900
    288      9.0010      9.1130      0.5320      0.0100     78.3900
    289     11.0900      9.4020      0.1380      1.5900     78.3900
    290     10.9300     10.9590     -0.0100      2.1000     78.3900
    291      9.8540     11.4340      0.8870      1.5900     78.3900
    292     12.2570     11.5910      0.1620      1.5900     78.3900
    293     10.4700     11.1290     -1.5060      1.5900     78.3900
    294     11.4210     10.8570     -2.5650      1.7700     78.3900
    295     11.8020      9.8110     -2.5010      0.0100     78.3900
    296     12.3020     11.5460     -2.4970      0.0100     78.3900
    297     10.7620     11.0290     -3.9400      1.7700     78.3900
    298     11.4980     10.8640     -4.7590      0.0100     78.3900
    299      9.7160     10.0240     -4.1080      1.5900     78.3900
    300      8.6150     10.6100     -4.7930      1.7700     78.3900
    301      8.4170      9.9780     -5.6870      0.0100     78.3900
    302      7.4030     10.6360     -3.9590      1.6800     78.3900
    303      6.1170     10.7760     -4.4090      1.7700     78.3900
    304      3.8670     11.1920     -7.0060      1.6800     78.3900
    305      4.4680     11.2410     -7.8030      0.0100     78.3900
    306      2.8780     11.3090     -7.1300      0.0100     78.3900
    307      5.7400     10.9240     -5.6940      1.6800     78.3900
    308      4.4190     11.0240     -5.8200      1.7700     78.3900
    309      3.5560     11.0020     -4.7550      1.6800     78.3900
    310      2.5710     11.1050     -4.9390      0.0100     78.3900
    311      3.9160     10.8680     -3.4200      1.7700     78.3900
    312      3.0660     10.8710     -2.5240      1.5900     78.3900
    313      5.3250     10.7530     -3.2740      1.7700     78.3900
    314      6.1030     10.6060     -2.1300      1.6800     78.3900
    315      7.3300     10.5400     -2.5880      1.7700     78.3900
    316      8.2280     10.4270     -1.9780      0.0100     78.3900
    317      9.0290     12.0020     -5.2400      1.7700     78.3900
    318      8.1770     12.7130     -5.2320      0.0100     78.3900
    319      9.5990     11.9530     -6.5390      1.5900     78.3900
    320     10.0010     12.8180     -6.7350      0.0100     78.3900
    321     10.0540     12.3720     -4.1730      1.7700     78.3900
    322      9.5380     12.6680     -3.2330      0.0100     78.3900
    323     10.9950     13.3850     -4.5770      1.5900     78.3900
    324     10.5510     14.2540     -4.6290      0.0100     78.3900

     ----------------------------
     INPUT FOR TESSERA DEFINITION
     ----------------------------
     NTSALL  =        60     MTHALL  =         4
     MTHAUT  =         0     AUTFRE  =    2.0000
     NTSFRZ  =        60     KEEPSM  =         0
     AREAKP  =   10.0000     BONDRY  =    1.0000
     AREATL  =    0.0100

     SPHERE     INITS       METHOD
          1        60       FIXPVA
          2        60       FIXPVA
          3        60       FIXPVA
          4        60       FIXPVA
          5        60       FIXPVA
          6        60       FIXPVA
          7        60       FIXPVA
          8        60       FIXPVA
          9        60       FIXPVA
         10        60       FIXPVA
         11        60       FIXPVA
         12        60       FIXPVA
         13        60       FIXPVA
         14        60       FIXPVA
         15        60       FIXPVA
         16        60       FIXPVA
         17        60       FIXPVA
         18        60       FIXPVA
         19        60       FIXPVA
         20        60       FIXPVA
         21        60       FIXPVA
         22        60       FIXPVA
         23        60       FIXPVA
         24        60       FIXPVA
         25        60       FIXPVA
         26        60       FIXPVA
         27        60       FIXPVA
         28        60       FIXPVA
         29        60       FIXPVA
         30        60       FIXPVA
         31        60       FIXPVA
         32        60       FIXPVA
         33        60       FIXPVA
         34        60       FIXPVA
         35        60       FIXPVA
         36        60       FIXPVA
         37        60       FIXPVA
         38        60       FIXPVA
         39        60       FIXPVA
         40        60       FIXPVA
         41        60       FIXPVA
         42        60       FIXPVA
         43        60       FIXPVA
         44        60       FIXPVA
         45        60       FIXPVA
         46        60       FIXPVA
         47        60       FIXPVA
         48        60       FIXPVA
         49        60       FIXPVA
         50        60       FIXPVA
         51        60       FIXPVA
         52        60       FIXPVA
         53        60       FIXPVA
         54        60       FIXPVA
         55        60       FIXPVA
         56        60       FIXPVA
         57        60       FIXPVA
         58        60       FIXPVA
         59        60       FIXPVA
         60        60       FIXPVA
         61        60       FIXPVA
         62        60       FIXPVA
         63        60       FIXPVA
         64        60       FIXPVA
         65        60       FIXPVA
         66        60       FIXPVA
         67        60       FIXPVA
         68        60       FIXPVA
         69        60       FIXPVA
         70        60       FIXPVA
         71        60       FIXPVA
         72        60       FIXPVA
         73        60       FIXPVA
         74        60       FIXPVA
         75        60       FIXPVA
         76        60       FIXPVA
         77        60       FIXPVA
         78        60       FIXPVA
         79        60       FIXPVA
         80        60       FIXPVA
         81        60       FIXPVA
         82        60       FIXPVA
         83        60       FIXPVA
         84        60       FIXPVA
         85        60       FIXPVA
         86        60       FIXPVA
         87        60       FIXPVA
         88        60       FIXPVA
         89        60       FIXPVA
         90        60       FIXPVA
         91        60       FIXPVA
         92        60       FIXPVA
         93        60       FIXPVA
         94        60       FIXPVA
         95        60       FIXPVA
         96        60       FIXPVA
         97        60       FIXPVA
         98        60       FIXPVA
         99        60       FIXPVA
        100        60       FIXPVA
        101        60       FIXPVA
        102        60       FIXPVA
        103        60       FIXPVA
        104        60       FIXPVA
        105        60       FIXPVA
        106        60       FIXPVA
        107        60       FIXPVA
        108        60       FIXPVA
        109        60       FIXPVA
        110        60       FIXPVA
        111        60       FIXPVA
        112        60       FIXPVA
        113        60       FIXPVA
        114        60       FIXPVA
        115        60       FIXPVA
        116        60       FIXPVA
        117        60       FIXPVA
        118        60       FIXPVA
        119        60       FIXPVA
        120        60       FIXPVA
        121        60       FIXPVA
        122        60       FIXPVA
        123        60       FIXPVA
        124        60       FIXPVA
        125        60       FIXPVA
        126        60       FIXPVA
        127        60       FIXPVA
        128        60       FIXPVA
        129        60       FIXPVA
        130        60       FIXPVA
        131        60       FIXPVA
        132        60       FIXPVA
        133        60       FIXPVA
        134        60       FIXPVA
        135        60       FIXPVA
        136        60       FIXPVA
        137        60       FIXPVA
        138        60       FIXPVA
        139        60       FIXPVA
        140        60       FIXPVA
        141        60       FIXPVA
        142        60       FIXPVA
        143        60       FIXPVA
        144        60       FIXPVA
        145        60       FIXPVA
        146        60       FIXPVA
        147        60       FIXPVA
        148        60       FIXPVA
        149        60       FIXPVA
        150        60       FIXPVA
        151        60       FIXPVA
        152        60       FIXPVA
        153        60       FIXPVA
        154        60       FIXPVA
        155        60       FIXPVA
        156        60       FIXPVA
        157        60       FIXPVA
        158        60       FIXPVA
        159        60       FIXPVA
        160        60       FIXPVA
        161        60       FIXPVA
        162        60       FIXPVA
        163        60       FIXPVA
        164        60       FIXPVA
        165        60       FIXPVA
        166        60       FIXPVA
        167        60       FIXPVA
        168        60       FIXPVA
        169        60       FIXPVA
        170        60       FIXPVA
        171        60       FIXPVA
        172        60       FIXPVA
        173        60       FIXPVA
        174        60       FIXPVA
        175        60       FIXPVA
        176        60       FIXPVA
        177        60       FIXPVA
        178        60       FIXPVA
        179        60       FIXPVA
        180        60       FIXPVA
        181        60       FIXPVA
        182        60       FIXPVA
        183        60       FIXPVA
        184        60       FIXPVA
        185        60       FIXPVA
        186        60       FIXPVA
        187        60       FIXPVA
        188        60       FIXPVA
        189        60       FIXPVA
        190        60       FIXPVA
        191        60       FIXPVA
        192        60       FIXPVA
        193        60       FIXPVA
        194        60       FIXPVA
        195        60       FIXPVA
        196        60       FIXPVA
        197        60       FIXPVA
        198        60       FIXPVA
        199        60       FIXPVA
        200        60       FIXPVA
        201        60       FIXPVA
        202        60       FIXPVA
        203        60       FIXPVA
        204        60       FIXPVA
        205        60       FIXPVA
        206        60       FIXPVA
        207        60       FIXPVA
        208        60       FIXPVA
        209        60       FIXPVA
        210        60       FIXPVA
        211        60       FIXPVA
        212        60       FIXPVA
        213        60       FIXPVA
        214        60       FIXPVA
        215        60       FIXPVA
        216        60       FIXPVA
        217        60       FIXPVA
        218        60       FIXPVA
        219        60       FIXPVA
        220        60       FIXPVA
        221        60       FIXPVA
        222        60       FIXPVA
        223        60       FIXPVA
        224        60       FIXPVA
        225        60       FIXPVA
        226        60       FIXPVA
        227        60       FIXPVA
        228        60       FIXPVA
        229        60       FIXPVA
        230        60       FIXPVA
        231        60       FIXPVA
        232        60       FIXPVA
        233        60       FIXPVA
        234        60       FIXPVA
        235        60       FIXPVA
        236        60       FIXPVA
        237        60       FIXPVA
        238        60       FIXPVA
        239        60       FIXPVA
        240        60       FIXPVA
        241        60       FIXPVA
        242        60       FIXPVA
        243        60       FIXPVA
        244        60       FIXPVA
        245        60       FIXPVA
        246        60       FIXPVA
        247        60       FIXPVA
        248        60       FIXPVA
        249        60       FIXPVA
        250        60       FIXPVA
        251        60       FIXPVA
        252        60       FIXPVA
        253        60       FIXPVA
        254        60       FIXPVA
        255        60       FIXPVA
        256        60       FIXPVA
        257        60       FIXPVA
        258        60       FIXPVA
        259        60       FIXPVA
        260        60       FIXPVA
        261        60       FIXPVA
        262        60       FIXPVA
        263        60       FIXPVA
        264        60       FIXPVA
        265        60       FIXPVA
        266        60       FIXPVA
        267        60       FIXPVA
        268        60       FIXPVA
        269        60       FIXPVA
        270        60       FIXPVA
        271        60       FIXPVA
        272        60       FIXPVA
        273        60       FIXPVA
        274        60       FIXPVA
        275        60       FIXPVA
        276        60       FIXPVA
        277        60       FIXPVA
        278        60       FIXPVA
        279        60       FIXPVA
        280        60       FIXPVA
        281        60       FIXPVA
        282        60       FIXPVA
        283        60       FIXPVA
        284        60       FIXPVA
        285        60       FIXPVA
        286        60       FIXPVA
        287        60       FIXPVA
        288        60       FIXPVA
        289        60       FIXPVA
        290        60       FIXPVA
        291        60       FIXPVA
        292        60       FIXPVA
        293        60       FIXPVA
        294        60       FIXPVA
        295        60       FIXPVA
        296        60       FIXPVA
        297        60       FIXPVA
        298        60       FIXPVA
        299        60       FIXPVA
        300        60       FIXPVA
        301        60       FIXPVA
        302        60       FIXPVA
        303        60       FIXPVA
        304        60       FIXPVA
        305        60       FIXPVA
        306        60       FIXPVA
        307        60       FIXPVA
        308        60       FIXPVA
        309        60       FIXPVA
        310        60       FIXPVA
        311        60       FIXPVA
        312        60       FIXPVA
        313        60       FIXPVA
        314        60       FIXPVA
        315        60       FIXPVA
        316        60       FIXPVA
        317        60       FIXPVA
        318        60       FIXPVA
        319        60       FIXPVA
        320        60       FIXPVA
        321        60       FIXPVA
        322        60       FIXPVA
        323        60       FIXPVA
        324        60       FIXPVA

     ------------------------------
      FIXPVA TESSELLATION FOR PCM
         PEIFENG SU AND HUI LI
     UNIVERSITY OF NEBRASKA-LINCOLN
     ------------------------------


 PCM DIMENSIONS: MXSP=   324, MXTS=     12960, MEMORY=        133167

     INPUT FOR CAVITY DEFINITION 
     ---------------------------
   ATOM               COORDINATES                RADIUS       EPS
      1     -5.9460     11.0170     -6.6670      0.0100     78.3900
      2     -5.0270     10.9630     -6.9920      1.5900     78.3900
      3     -5.0440     11.3890     -8.3630      1.7700     78.3900
      4     -5.4690     12.4160     -8.4150      0.0100     78.3900
      5     -5.7080     10.7130     -8.9470      0.0100     78.3900
      6     -3.6560     11.3800     -9.0150      1.7700     78.3900
      7     -3.7250     11.6580    -10.0880      0.0100     78.3900
      8     -2.7810     12.3560     -8.3700      1.5900     78.3900
      9     -1.4730     11.8060     -8.2640      1.7700     78.3900
     10     -0.7900     12.5320     -8.7620      0.0100     78.3900
     11     -1.0360     11.6270     -6.8510      1.6800     78.3900
     12     -1.9640     11.5890     -5.8340      1.7700     78.3900
     13     -3.0080     11.7070     -6.1260      0.0100     78.3900
     14     -1.5920     11.4590     -4.5530      1.7700     78.3900
     15     -2.3130     11.4550     -3.7360      0.0100     78.3900
     16      0.3170     11.4840     -6.5540      1.7700     78.3900
     17      1.1450     11.5000     -7.4760      1.5900     78.3900
     18      0.7120     11.3660     -5.2660      1.6800     78.3900
     19     -0.2000     11.3520     -4.2780      1.7700     78.3900
     20      0.2210     11.2400     -3.0190      1.6800     78.3900
     21      1.1990     11.1170     -2.8320      0.0100     78.3900
     22     -0.4170     11.2420     -2.2470      0.0100     78.3900
     23     -1.4630     10.5140     -9.0580      1.7700     78.3900
     24     -0.7410      9.7720     -8.6580      0.0100     78.3900
     25     -1.1670     10.7940    -10.4120      1.5900     78.3900
     26     -1.2210      9.9560    -10.8860      0.0100     78.3900
     27     -2.9070     10.0440     -8.9000      1.7700     78.3900
     28     -3.0740      9.6650     -7.8650      0.0100     78.3900
     29     -3.3920      9.1250     -9.9110      1.5900     78.3900
     30     -3.0830      7.5840     -9.7480      2.1000     78.3900
     31     -3.5550      7.1180     -8.4230      1.5900     78.3900
     32     -3.6690      6.8930    -10.9210      1.5900     78.3900
     33     -1.5180      7.4870     -9.8030      1.5900     78.3900
     34     -0.8090      7.5470    -11.0620      1.7700     78.3900
     35     -0.8850      8.5540    -11.5260      0.0100     78.3900
     36     -1.2250      6.8180    -11.7950      0.0100     78.3900
     37      0.6790      7.2320    -10.8540      1.7700     78.3900
     38      1.2280      7.2770    -11.8170      0.0100     78.3900
     39      1.2810      8.2150     -9.9590      1.5900     78.3900
     40      2.2060      7.5540     -9.1020      1.7700     78.3900
     41      3.1790      8.0830     -9.2300      0.0100     78.3900
     42      1.8050      7.6320     -7.6970      1.6800     78.3900
     43      1.8390      7.7210     -5.5020      1.7700     78.3900
     44      0.5070      7.8460     -5.8740      1.6800     78.3900
     45      0.5410      7.7890     -7.1830      1.7700     78.3900
     46     -0.3300      7.8680     -7.8340      0.0100     78.3900
     47      3.8240      7.5520     -4.2240      1.6800     78.3900
     48      4.4600      7.3680     -5.3810      1.7700     78.3900
     49      5.5370      7.2070     -5.2860      0.0100     78.3900
     50      3.9770      7.3930     -6.6270      1.6800     78.3900
     51      2.6460      7.5720     -6.6160      1.7700     78.3900
     52      2.4790      7.7280     -4.2450      1.7700     78.3900
     53      1.8230      7.8800     -3.0820      1.6800     78.3900
     54      0.8220      7.9490     -3.0340      0.0100     78.3900
     55      2.3420      7.8860     -2.2230      0.0100     78.3900
     56      2.3510      6.1250     -9.5890      1.7700     78.3900
     57      2.5640      5.4040     -8.7670      0.0100     78.3900
     58      3.3670      6.0430    -10.5740      1.5900     78.3900
     59      3.3520      5.1310    -10.9030      0.0100     78.3900
     60      0.9730      5.8780    -10.1950      1.7700     78.3900
     61      0.2150      5.7380     -9.3910      0.0100     78.3900
     62      0.9170      4.8320    -11.1880      1.5900     78.3900
     63      0.8770      3.3340    -10.7040      2.1000     78.3900
     64      0.0610      3.2700     -9.4600      1.5900     78.3900
     65      0.4480      2.5000    -11.8390      1.5900     78.3900
     66      2.3820      2.9950    -10.3690      1.5900     78.3900
     67      2.6460      1.9280     -9.4180      1.7700     78.3900
     68      2.3080      0.9440     -9.8190      0.0100     78.3900
     69      2.0940      2.0930     -8.4670      0.0100     78.3900
     70      4.1480      1.8100     -9.0910      1.7700     78.3900
     71      4.7110      1.5720    -10.0170      0.0100     78.3900
     72      4.6920      3.0730     -8.5900      1.5900     78.3900
     73      5.5620      2.8060     -7.4940      1.7700     78.3900
     74      6.5040      3.3570     -7.7220      0.0100     78.3900
     75      5.0340      3.2730     -6.1890      1.6800     78.3900
     76      3.7430      3.6090     -5.8250      1.7700     78.3900
     77      0.4190      4.0030     -6.6910      1.6800     78.3900
     78     -0.4580      4.2200     -6.2610      0.0100     78.3900
     79      0.4280      3.7000     -7.6480      0.0100     78.3900
     80      2.6600      3.5860     -6.6140      1.6800     78.3900
     81      1.5510      3.9590     -6.0100      1.7700     78.3900
     82      1.5120      4.3150     -4.6880      1.6800     78.3900
     83      0.6280      4.5710     -4.2850      0.0100     78.3900
     84      2.6120      4.3290     -3.8310      1.7700     78.3900
     85      2.5140      4.6510     -2.6430      1.5900     78.3900
     86      3.8090      3.9550     -4.4960      1.7700     78.3900
     87      5.1090      3.8600     -4.0230      1.6800     78.3900
     88      5.8020      3.4500     -5.0590      1.7700     78.3900
     89      6.8800      3.2630     -5.0570      0.0100     78.3900
     90      5.8310      1.3170     -7.4860      1.7700     78.3900
     91      6.0310      0.9170     -6.4690      0.0100     78.3900
     92      6.9210      1.0250     -8.3400      1.5900     78.3900
     93      6.8790      0.0800     -8.5500      0.0100     78.3900
     94      4.5220      0.7580     -8.0320      1.7700     78.3900
     95      3.7290      0.8060     -7.2500      0.0100     78.3900
     96      4.6320     -0.5500     -8.6440      1.5900     78.3900
     97      4.3390     -1.8610     -7.8190      2.1000     78.3900
     98      2.8950     -1.8830     -7.4750      1.5900     78.3900
     99      4.8440     -3.0140     -8.5960      1.5900     78.3900
    100      5.1890     -1.7020     -6.4990      1.5900     78.3900
    101      6.6120     -1.9870     -6.5010      1.7700     78.3900
    102      7.1680     -1.2360     -7.1040      0.0100     78.3900
    103      6.8350     -2.9890     -6.9380      0.0100     78.3900
    104      7.1960     -1.9570     -5.0850      1.7700     78.3900
    105      8.2800     -2.2030     -5.0950      0.0100     78.3900
    106      7.0550     -0.6190     -4.5280      1.5900     78.3900
    107      6.7480     -0.7170     -3.1450      1.7700     78.3900
    108      7.5230     -0.1290     -2.6000      0.0100     78.3900
    109      5.4200     -0.1490     -2.8530      1.6800     78.3900
    110      4.9080      0.1570     -1.6190      1.7700     78.3900
    111      5.2140      0.2270      1.8330      1.6800     78.3900
    112      6.1230     -0.1610      1.9880      0.0100     78.3900
    113      4.6600      0.4860      2.6280      0.0100     78.3900
    114      5.5250     -0.0310     -0.4390      1.6800     78.3900
    115      4.7850      0.3720      0.5930      1.7700     78.3900
    116      3.5450      0.9370      0.4470      1.6800     78.3900
    117      3.0460      1.1970      1.2830      0.0100     78.3900
    118      2.8840      1.1590     -0.7580      1.7700     78.3900
    119      1.7640      1.6810     -0.7920      1.5900     78.3900
    120      3.6580      0.6980     -1.8580      1.7700     78.3900
    121      3.3760      0.7050     -3.2170      1.6800     78.3900
    122      4.4540      0.2010     -3.7700      1.7700     78.3900
    123      4.6100      0.0520     -4.8410      0.0100     78.3900
    124      6.8590     -2.1800     -2.7580      1.7700     78.3900
    125      6.1590     -2.4620     -1.9480      0.0100     78.3900
    126      8.1850     -2.4690     -2.3590      1.5900     78.3900
    127      8.2480     -3.4290     -2.2660      0.0100     78.3900
    128      6.5060     -2.8720     -4.0690      1.7700     78.3900
    129      5.4110     -2.7790     -4.2640      0.0100     78.3900
    130      7.0090     -4.2260     -4.2010      1.5900     78.3900
    131      6.0180     -5.4230     -3.9600      2.1000     78.3900
    132      4.7120     -5.1100     -4.5740      1.5900     78.3900
    133      6.6710     -6.6830     -4.3760      1.5900     78.3900
    134      5.8520     -5.4280     -2.3950      1.5900     78.3900
    135      6.9580     -5.8430     -1.5610      1.7700     78.3900
    136      7.8640     -5.2240     -1.7570      0.0100     78.3900
    137      7.2130     -6.9110     -1.7580      0.0100     78.3900
    138      6.6130     -5.7100     -0.0720      1.7700     78.3900
    139      7.4540     -6.0500      0.5680      0.0100     78.3900
    140      6.3690     -4.3100      0.2490      1.5900     78.3900
    141      5.2900     -4.2210      1.1720      1.7700     78.3900
    142      5.6920     -3.6640      2.0500      0.0100     78.3900
    143      4.1230     -3.4730      0.6230      1.6800     78.3900
    144      3.9820     -3.3100     -0.7340      1.7700     78.3900
    145      4.7650     -3.7450     -1.3500      0.0100     78.3900
    146      2.9580     -2.6250     -1.2590      1.7700     78.3900
    147      2.8550     -2.4640     -2.3300      0.0100     78.3900
    148      3.1550     -2.9600      1.4800      1.7700     78.3900
    149      3.2670     -3.1450      2.7000      1.5900     78.3900
    150      2.1120     -2.2620      0.9710      1.6800     78.3900
    151      1.9970     -2.0900     -0.3570      1.7700     78.3900
    152      0.9710     -1.3860     -0.8280      1.6800     78.3900
    153      0.2970     -1.0070     -0.1890      0.0100     78.3900
    154      0.8480     -1.2130     -1.8060      0.0100     78.3900
    155      4.9380     -5.6350      1.6050      1.7700     78.3900
    156      3.8540     -5.7530      1.8200      0.0100     78.3900
    157      5.7050     -5.9870      2.7470      1.5900     78.3900
    158      5.6110     -6.9430      2.8960      0.0100     78.3900
    159      5.3390     -6.4400      0.3720      1.7700     78.3900
    160      4.5760     -6.3260     -0.4290      0.0100     78.3900
    161      5.6080     -7.8320      0.6320      1.5900     78.3900
    162      4.7780     -8.2950      0.8430      0.0100     78.3900
    163     -6.1820      3.4820      6.1610      0.0100     78.3900
    164     -5.3590      2.9690      6.2630      1.5900     78.3900
    165     -5.3430      2.4900      7.6170      1.7700     78.3900
    166     -6.2490      1.8650      7.7880      0.0100     78.3900
    167     -5.3860      3.3590      8.3110      0.0100     78.3900
    168     -4.1020      1.6560      7.9590      1.7700     78.3900
    169     -4.1070      1.3620      9.0300      0.0100     78.3900
    170     -4.0880      0.4320      7.1670      1.5900     78.3900
    171     -2.7500      0.1290      6.8010      1.7700     78.3900
    172     -2.5330     -0.9030      7.1560      0.0100     78.3900
    173     -2.5630      0.1930      5.3440      1.6800     78.3900
    174     -1.5310     -0.3630      4.6400      1.7700     78.3900
    175      1.4490     -2.1240      4.5540      1.6800     78.3900
    176      1.6180     -2.3370      5.5150      0.0100     78.3900
    177      2.0960     -2.4550      3.8610      0.0100     78.3900
    178     -0.5070     -1.0610      5.1610      1.6800     78.3900
    179      0.3500     -1.4730      4.2270      1.7700     78.3900
    180      0.1560     -1.2640      2.8860      1.6800     78.3900
    181      0.8370     -1.6350      2.2430      0.0100     78.3900
    182     -0.9030     -0.5680      2.3180      1.7700     78.3900
    183     -0.9980     -0.4270      1.0950      1.5900     78.3900
    184     -1.7850     -0.0680      3.3130      1.7700     78.3900
    185     -2.9400      0.6940      3.1880      1.6800     78.3900
    186     -3.3680      0.8290      4.4230      1.7700     78.3900
    187     -4.2770      1.3550      4.7300      0.0100     78.3900
    188     -1.8520      1.1070      7.5240      1.7700     78.3900
    189     -0.9340      1.3390      6.9490      0.0100     78.3900
    190     -1.4960      0.6010      8.7960      1.5900     78.3900
    191     -0.9450      1.2770      9.2110      0.0100     78.3900
    192     -2.7560      2.3270      7.6440      1.7700     78.3900
    193     -2.8710      2.8280      6.6540      0.0100     78.3900
    194     -2.4010      3.2420      8.7060      1.5900     78.3900
    195     -1.4240      4.4360      8.3770      2.1000     78.3900
    196     -1.8810      5.0880      7.1300      1.5900     78.3900
    197     -1.3450      5.2980      9.5800      1.5900     78.3900
    198     -0.0390      3.7520      8.0940      1.5900     78.3900
    199      0.7240      3.1140      9.1390      1.7700     78.3900
    200      0.1110      2.3750      9.7020      0.0100     78.3900
    201      1.0780      3.8660      9.8780      0.0100     78.3900
    202      1.9530      2.3870      8.5680      1.7700     78.3900
    203      2.5100      1.8720      9.3760      0.0100     78.3900
    204      1.5390      1.3710      7.6070      1.5900     78.3900
    205      2.4870      1.3150      6.5440      1.7700     78.3900
    206      2.8500      0.2600      6.5160      0.0100     78.3900
    207      1.9040      1.6660      5.2150      1.6800     78.3900
    208      0.7400      2.3940      5.1340      1.7700     78.3900
    209      0.2790      2.6570      6.0840      0.0100     78.3900
    210      0.1920      2.7120      3.9520      1.7700     78.3900
    211     -0.7580      3.2380      3.8740      0.0100     78.3900
    212      2.5810      1.3260      4.0480      1.7700     78.3900
    213      3.6740      0.7460      4.1310      1.5900     78.3900
    214      2.0350      1.6120      2.8440      1.6800     78.3900
    215      0.8710      2.2800      2.7770      1.7700     78.3900
    216      0.3430      2.5210      1.5800      1.6800     78.3900
    217      0.8240      2.2160      0.7560      0.0100     78.3900
    218     -0.5420      2.9750      1.4650      0.0100     78.3900
    219      3.6390      2.2170      6.9260      1.7700     78.3900
    220      4.1270      2.6810      6.0470      0.0100     78.3900
    221      4.5960      1.4930      7.6750      1.5900     78.3900
    222      5.2230      2.1480      8.0070      0.0100     78.3900
    223      2.9450      3.2620      7.7880      1.7700     78.3900
    224      2.3410      3.9560      7.1570      0.0100     78.3900
    225      3.8220      3.9440      8.7080      1.5900     78.3900
    226      4.4770      5.3130      8.3080      2.1000     78.3900
    227      3.4380      6.1900      7.7200      1.5900     78.3900
    228      5.1770      5.8680      9.4870      1.5900     78.3900
    229      5.5040      4.9450      7.1730      1.5900     78.3900
    230      6.7030      4.1800      7.4100      1.7700     78.3900
    231      6.4890      3.2480      7.9790      0.0100     78.3900
    232      7.4240      4.7740      8.0180      0.0100     78.3900
    233      7.3930      3.7860      6.0920      1.7700     78.3900
    234      8.2940      3.1670      6.2950      0.0100     78.3900
    235      6.4980      2.9760      5.2780      1.5900     78.3900
    236      6.6390      3.3360      3.9120      1.7700     78.3900
    237      6.8730      2.3990      3.3570      0.0100     78.3900
    238      5.4010      3.9050      3.3670      1.6800     78.3900
    239      5.0750      3.9980      2.0400      1.7700     78.3900
    240      5.8560      3.5180     -1.2940      1.6800     78.3900
    241      6.7830      3.1490     -1.2330      0.0100     78.3900
    242      5.4580      3.7020     -2.1990      0.0100     78.3900
    243      5.8360      3.5880      1.0070      1.6800     78.3900
    244      5.2510      3.8250     -0.1680      1.7700     78.3900
    245      3.9960      4.3640     -0.2930      1.6800     78.3900
    246      3.5940      4.4730     -1.2120      0.0100     78.3900
    247      3.1750      4.7510      0.7580      1.7700     78.3900
    248      2.0480      5.2180      0.5710      1.5900     78.3900
    249      3.8190      4.5740      2.0100      1.7700     78.3900
    250      3.3770      4.8620      3.2940      1.6800     78.3900
    251      4.3490      4.4500      4.0680      1.7700     78.3900
    252      4.3570      4.5140      5.1570      0.0100     78.3900
    253      7.8040      4.2960      3.8050      1.7700     78.3900
    254      7.6650      5.0510      2.9990      0.0100     78.3900
    255      9.0010      3.5750      3.5770      1.5900     78.3900
    256      9.7160      4.2290      3.6000      0.0100     78.3900
    257      7.8060      4.9580      5.1840      1.7700     78.3900
    258      6.9940      5.7170      5.2520      0.0100     78.3900
    259      9.0860      5.4770      5.6130      1.5900     78.3900
    260      9.5750      6.8720      5.0730      2.1000     78.3900
    261      8.4710      7.8450      5.2200      1.5900     78.3900
    262     10.8510      7.2150      5.7410      1.5900     78.3900
    263      9.8570      6.6300      3.5380      1.5900     78.3900
    264      9.8700      7.7870      2.6610      1.7700     78.3900
    265     10.6680      8.5010      2.9650      0.0100     78.3900
    266      8.8980      8.3320      2.7060      0.0100     78.3900
    267     10.1230      7.4190      1.1890      1.7700     78.3900
    268     11.1490      7.0170      1.0580      0.0100     78.3900
    269      9.1860      6.3920      0.7490      1.5900     78.3900
    270      8.7270      6.6950     -0.5640      1.7700     78.3900
    271      8.8970      5.7760     -1.1680      0.0100     78.3900
    272      7.2750      7.0580     -0.5750      1.6800     78.3900
    273      6.6040      7.3370      0.5980      1.7700     78.3900
    274      7.2010      7.2940      1.5120      0.0100     78.3900
    275      6.6160      7.0860     -1.7890      1.7700     78.3900
    276      7.1730      6.8360     -2.8480      1.5900     78.3900
    277      5.2820      7.4110     -1.7110      1.6800     78.3900
    278      4.7900      7.4580     -2.5970      0.0100     78.3900
    279      4.5500      7.6990     -0.5800      1.7700     78.3900
    280      3.3500      7.9500     -0.6630      1.5900     78.3900
    281      5.2990      7.6430      0.6380      1.7700     78.3900
    282      4.7830      7.8390      1.5730      0.0100     78.3900
    283      9.6120      7.8140     -1.0910      1.7700     78.3900
    284      9.0920      8.4610     -1.8280      0.0100     78.3900
    285     10.7920      7.2880     -1.6740      1.5900     78.3900
    286     11.3860      8.0340     -1.8260      0.0100     78.3900
    287      9.9130      8.5700      0.1930      1.7700     78.3900
    288      9.0010      9.1130      0.5320      0.0100     78.3900
    289     11.0900      9.4020      0.1380      1.5900     78.3900
    290     10.9300     10.9590     -0.0100      2.1000     78.3900
    291      9.8540     11.4340      0.8870      1.5900     78.3900
    292     12.2570     11.5910      0.1620      1.5900     78.3900
    293     10.4700     11.1290     -1.5060      1.5900     78.3900
    294     11.4210     10.8570     -2.5650      1.7700     78.3900
    295     11.8020      9.8110     -2.5010      0.0100     78.3900
    296     12.3020     11.5460     -2.4970      0.0100     78.3900
    297     10.7620     11.0290     -3.9400      1.7700     78.3900
    298     11.4980     10.8640     -4.7590      0.0100     78.3900
    299      9.7160     10.0240     -4.1080      1.5900     78.3900
    300      8.6150     10.6100     -4.7930      1.7700     78.3900
    301      8.4170      9.9780     -5.6870      0.0100     78.3900
    302      7.4030     10.6360     -3.9590      1.6800     78.3900
    303      6.1170     10.7760     -4.4090      1.7700     78.3900
    304      3.8670     11.1920     -7.0060      1.6800     78.3900
    305      4.4680     11.2410     -7.8030      0.0100     78.3900
    306      2.8780     11.3090     -7.1300      0.0100     78.3900
    307      5.7400     10.9240     -5.6940      1.6800     78.3900
    308      4.4190     11.0240     -5.8200      1.7700     78.3900
    309      3.5560     11.0020     -4.7550      1.6800     78.3900
    310      2.5710     11.1050     -4.9390      0.0100     78.3900
    311      3.9160     10.8680     -3.4200      1.7700     78.3900
    312      3.0660     10.8710     -2.5240      1.5900     78.3900
    313      5.3250     10.7530     -3.2740      1.7700     78.3900
    314      6.1030     10.6060     -2.1300      1.6800     78.3900
    315      7.3300     10.5400     -2.5880      1.7700     78.3900
    316      8.2280     10.4270     -1.9780      0.0100     78.3900
    317      9.0290     12.0020     -5.2400      1.7700     78.3900
    318      8.1770     12.7130     -5.2320      0.0100     78.3900
    319      9.5990     11.9530     -6.5390      1.5900     78.3900
    320     10.0010     12.8180     -6.7350      0.0100     78.3900
    321     10.0540     12.3720     -4.1730      1.7700     78.3900
    322      9.5380     12.6680     -3.2330      0.0100     78.3900
    323     10.9950     13.3850     -4.5770      1.5900     78.3900
    324     10.5510     14.2540     -4.6290      0.0100     78.3900

 CREATION OF A NEW CAVITY WITH THE ORIGINAL SPHERE
 SIZES FOR THE COMPUTATION OF THE CAVITATION ENERGY.

     INPUT FOR CAVITY DEFINITION 
     ---------------------------
   ATOM               COORDINATES                RADIUS       EPS
      1     -5.9460     11.0170     -6.6670      0.0100     78.3900
      2     -5.0270     10.9630     -6.9920      1.5900     78.3900
      3     -5.0440     11.3890     -8.3630      1.7700     78.3900
      4     -5.4690     12.4160     -8.4150      0.0100     78.3900
      5     -5.7080     10.7130     -8.9470      0.0100     78.3900
      6     -3.6560     11.3800     -9.0150      1.7700     78.3900
      7     -3.7250     11.6580    -10.0880      0.0100     78.3900
      8     -2.7810     12.3560     -8.3700      1.5900     78.3900
      9     -1.4730     11.8060     -8.2640      1.7700     78.3900
     10     -0.7900     12.5320     -8.7620      0.0100     78.3900
     11     -1.0360     11.6270     -6.8510      1.6800     78.3900
     12     -1.9640     11.5890     -5.8340      1.7700     78.3900
     13     -3.0080     11.7070     -6.1260      0.0100     78.3900
     14     -1.5920     11.4590     -4.5530      1.7700     78.3900
     15     -2.3130     11.4550     -3.7360      0.0100     78.3900
     16      0.3170     11.4840     -6.5540      1.7700     78.3900
     17      1.1450     11.5000     -7.4760      1.5900     78.3900
     18      0.7120     11.3660     -5.2660      1.6800     78.3900
     19     -0.2000     11.3520     -4.2780      1.7700     78.3900
     20      0.2210     11.2400     -3.0190      1.6800     78.3900
     21      1.1990     11.1170     -2.8320      0.0100     78.3900
     22     -0.4170     11.2420     -2.2470      0.0100     78.3900
     23     -1.4630     10.5140     -9.0580      1.7700     78.3900
     24     -0.7410      9.7720     -8.6580      0.0100     78.3900
     25     -1.1670     10.7940    -10.4120      1.5900     78.3900
     26     -1.2210      9.9560    -10.8860      0.0100     78.3900
     27     -2.9070     10.0440     -8.9000      1.7700     78.3900
     28     -3.0740      9.6650     -7.8650      0.0100     78.3900
     29     -3.3920      9.1250     -9.9110      1.5900     78.3900
     30     -3.0830      7.5840     -9.7480      2.1000     78.3900
     31     -3.5550      7.1180     -8.4230      1.5900     78.3900
     32     -3.6690      6.8930    -10.9210      1.5900     78.3900
     33     -1.5180      7.4870     -9.8030      1.5900     78.3900
     34     -0.8090      7.5470    -11.0620      1.7700     78.3900
     35     -0.8850      8.5540    -11.5260      0.0100     78.3900
     36     -1.2250      6.8180    -11.7950      0.0100     78.3900
     37      0.6790      7.2320    -10.8540      1.7700     78.3900
     38      1.2280      7.2770    -11.8170      0.0100     78.3900
     39      1.2810      8.2150     -9.9590      1.5900     78.3900
[...]
     TIME TO SOLVE SCF EQUATIONS=       0.2 SECONDS (       0.0 SEC/ITER)

 FINAL RHF ENERGY IS     -901.9483931666 AFTER  10 ITERATIONS
 ...... END OF RHF CALCULATION ......
 CPU     0: STEP CPU TIME=    23.67 TOTAL CPU TIME=       2289.8 (     38.2 MIN)
 TOTAL WALL CLOCK TIME=       4848.4 SECONDS, CPU UTILIZATION IS    47.23%
 DONE PCM POT.
 CPU     0: STEP CPU TIME=     0.28 TOTAL CPU TIME=       2290.1 (     38.2 MIN)
 TOTAL WALL CLOCK TIME=       4849.1 SECONDS, CPU UTILIZATION IS    47.23%

 Iter=  5 iFrag=     10 EFMO=  -942.588891314, DD= 0.004291265, DE= 0.005689819


 RHF      monomer      5 corr= NONE       , L1=   296, L0=   278 ID=     10


 AO spaces for     5     0     0 n-mer: L1=   296, L0=   278

 DIRECT SCF CALCULATION, SCHWRZ=T   FDIFF=T,  DIRTHR=  0.00E+00 NITDIR=10

                                                                                   NONZERO     BLOCKS
 ITER EX DEM     TOTAL ENERGY        E CHANGE  DENSITY CHANGE     ORB. GRAD      INTEGRALS    SKIPPED
   1  0  0     -839.1898535742  -839.1898535742   0.004995190   0.000000000      346856099    7917315
          ---------------START SECOND ORDER SCF---------------
   2  1  0     -839.1897645611     0.0000890130   0.001211422   0.000265994      292826596    8814488
   3  2  0     -839.1897969349    -0.0000323737   0.000248765   0.000055413      284353712    8935414
   4  3  0     -839.1897901088     0.0000068261   0.000058381   0.000025099      267828665    9134450
   5  4  0     -839.1897887594     0.0000013493   0.000023989   0.000007542      249315827    9336479
   6  5  0     -839.1897891293    -0.0000003699   0.000005196   0.000001498      236839183    9491115
   7  6  0     -839.1897891835    -0.0000000542   0.000001976   0.000000605      215204918    9745919
   8  7  0     -839.1897892169    -0.0000000334   0.000000634   0.000000225      203182747    9879402
   9  8  0     -839.1897892157     0.0000000012   0.000000177   0.000000082      184819233   10092334
  10  9  0     -839.1897892139     0.0000000018   0.000000064   0.000000043      174690754   10198221

          -----------------
          DENSITY CONVERGED
          -----------------
     TIME TO FORM FOCK OPERATORS=       8.3 SECONDS (       0.8 SEC/ITER)
     FOCK TIME ON FIRST ITERATION=       1.2, LAST ITERATION=       0.6
     TIME TO SOLVE SCF EQUATIONS=       0.2 SECONDS (       0.0 SEC/ITER)

 FINAL RHF ENERGY IS     -839.1897892139 AFTER  10 ITERATIONS
 ...... END OF RHF CALCULATION ......
 CPU     0: STEP CPU TIME=    22.37 TOTAL CPU TIME=       2312.4 (     38.5 MIN)
 TOTAL WALL CLOCK TIME=       4896.5 SECONDS, CPU UTILIZATION IS    47.23%
 DONE PCM POT.
 CPU     0: STEP CPU TIME=     0.21 TOTAL CPU TIME=       2312.6 (     38.5 MIN)
 TOTAL WALL CLOCK TIME=       4897.1 SECONDS, CPU UTILIZATION IS    47.22%

 Iter=  5 iFrag=      5 EFMO=  -870.950979081, DD= 0.004051238, DE= 0.003100190

 CPU     0: STEP CPU TIME=     0.00 TOTAL CPU TIME=       2312.6 (     38.5 MIN)
 TOTAL WALL CLOCK TIME=       4897.1 SECONDS, CPU UTILIZATION IS    47.22%

  Monomer SCF synchronisation on iteration   5.1 took     0.0 s.
 CPU     0: STEP CPU TIME=     0.00 TOTAL CPU TIME=       2312.6 (     38.5 MIN)
 TOTAL WALL CLOCK TIME=       4897.1 SECONDS, CPU UTILIZATION IS    47.22%
 dmexch needs              3853170  words of memory.
 CPU     0: STEP CPU TIME=     0.03 TOTAL CPU TIME=       2312.7 (     38.5 MIN)
 TOTAL WALL CLOCK TIME=       4897.2 SECONDS, CPU UTILIZATION IS    47.22%

 Data exchange of   1276421 words took     0.0 s.

 Calculating apparent surface charges...
     Using       50658 words of memory.
 ASC ITERATION=   1 CONVERGED TO  0.137140E-03
 ASC ITERATION=   2 CONVERGED TO  0.936998E-03
 ASC ITERATION=   3 CONVERGED TO  0.142206E-02
 ASC ITERATION=   4 CONVERGED TO  0.409442E-03
 ASC ITERATION=   5 CONVERGED TO  0.928450E-04
 ASC ITERATION=   6 CONVERGED TO  0.486552E-04
 ASC ITERATION=   7 CONVERGED TO  0.551843E-04
 ASC ITERATION=   8 CONVERGED TO  0.279427E-04
 ASC ITERATION=   9 CONVERGED TO  0.126759E-04
 ASC ITERATION=  10 CONVERGED TO  0.151539E-04
 ASC ITERATION=  11 CONVERGED TO  0.444992E-05
 ASC ITERATION=  12 CONVERGED TO  0.247985E-05
 ASC ITERATION=  13 CONVERGED TO  0.123406E-05
 ASC ITERATION=  14 CONVERGED TO  0.642155E-06
 ASC ITERATION=  15 CONVERGED TO  0.361801E-06
 ASC ITERATION=  16 CONVERGED TO  0.201054E-06
 ASC ITERATION=  17 CONVERGED TO  0.117194E-06
 ASC ITERATION=  18 CONVERGED TO  0.724521E-07
 ASC ITERATION=  19 CONVERGED TO  0.548656E-07
 ASC ITERATION=  20 CONVERGED TO  0.308658E-07
 ASC ITERATION=  21 CONVERGED TO  0.140726E-07
 ASC ITERATION=  22 CONVERGED TO  0.939303E-08
 ASC ITERATION=  23 CONVERGED TO  0.440344E-08
 ASC ITERATION=  24 CONVERGED TO  0.303065E-08
 ASC ITERATION=  25 CONVERGED TO  0.123955E-08
 ASC ITERATION=  26 CONVERGED TO  0.715530E-09
 ASC ITERATION=  27 CONVERGED TO  0.338254E-09
 ASC ITERATION=  28 CONVERGED TO  0.160366E-09
 ASC ITERATION=  29 CONVERGED TO  0.892414E-10

 THE ASC EQUATIONS FOR PHASE=1 CONVERGED IN  29 ITERATIONS.

 PCM ASC=      7.8413865250 normalised to=      7.8979461666
 Nuclear factor=   1.0026359047, electronic factor=   1.0026582398

 CPU     0: STEP CPU TIME=     0.14 TOTAL CPU TIME=       2312.8 (     38.5 MIN)
 TOTAL WALL CLOCK TIME=       4897.5 SECONDS, CPU UTILIZATION IS    47.22%


 ------------------------------------------------------------------------------
 FMO iter  5.1,      0 fragment(s) converged, maxD 0.004291265 maxE 0.005689819
 ------------------------------------------------------------------------------

 RHF      monomer      6 corr= NONE       , L1=   386, L0=   362 ID=      1


 AO spaces for     6     0     0 n-mer: L1=   386, L0=   362

 DIRECT SCF CALCULATION, SCHWRZ=T   FDIFF=T,  DIRTHR=  0.00E+00 NITDIR=10

                                                                                   NONZERO     BLOCKS
 ITER EX DEM     TOTAL ENERGY        E CHANGE  DENSITY CHANGE     ORB. GRAD      INTEGRALS    SKIPPED
   1  0  0    -1469.0487119628 -1469.0487119628   0.000732726   0.000000000      922336324   17596332
          ---------------START SECOND ORDER SCF---------------
   2  1  0    -1469.0486618522     0.0000501106   0.000147916   0.000048034      708652027   20208189
   3  2  0    -1469.0486686131    -0.0000067609   0.000079192   0.000017302      674757815   20497556
   4  3  0    -1469.0486638234     0.0000047897   0.000020803   0.000006422      625757854   20904190
   5  4  0    -1469.0486640347    -0.0000002113   0.000005383   0.000002440      577116599   21310956
   6  5  0    -1469.0486641843    -0.0000001496   0.000001789   0.000000404      528887293   21694171
   7  6  0    -1469.0486643059    -0.0000001216   0.000000758   0.000000322      477757114   22088610
   8  7  0    -1469.0486642967     0.0000000092   0.000000181   0.000000086      431650165   22479964
   9  8  0    -1469.0486643030    -0.0000000063   0.000000072   0.000000045      392953804   22776735

          -----------------
          DENSITY CONVERGED
          -----------------
     TIME TO FORM FOCK OPERATORS=      17.9 SECONDS (       2.0 SEC/ITER)
     FOCK TIME ON FIRST ITERATION=       3.2, LAST ITERATION=       1.2
     TIME TO SOLVE SCF EQUATIONS=       0.4 SECONDS (       0.0 SEC/ITER)

 FINAL RHF ENERGY IS    -1469.0486643030 AFTER   9 ITERATIONS
 ...... END OF RHF CALCULATION ......
 CPU     0: STEP CPU TIME=    34.20 TOTAL CPU TIME=       2347.0 (     39.1 MIN)
 TOTAL WALL CLOCK TIME=       4963.6 SECONDS, CPU UTILIZATION IS    47.28%
 DONE PCM POT.
 CPU     0: STEP CPU TIME=     0.38 TOTAL CPU TIME=       2347.4 (     39.1 MIN)
 TOTAL WALL CLOCK TIME=       4964.7 SECONDS, CPU UTILIZATION IS    47.28%

 Iter=  6 iFrag=      6 EFMO= -1507.456677304, DD= 0.000897922, DE=-0.002665066


 RHF      monomer      8 corr= NONE       , L1=   386, L0=   362 ID=      2


 AO spaces for     8     0     0 n-mer: L1=   386, L0=   362

 DIRECT SCF CALCULATION, SCHWRZ=T   FDIFF=T,  DIRTHR=  0.00E+00 NITDIR=10

                                                                                   NONZERO     BLOCKS
 ITER EX DEM     TOTAL ENERGY        E CHANGE  DENSITY CHANGE     ORB. GRAD      INTEGRALS    SKIPPED
   1  0  0    -1456.1229586375 -1456.1229586375   0.000635892   0.000000000      901848687   17669846
          ---------------START SECOND ORDER SCF---------------
   2  1  0    -1456.1229190145     0.0000396230   0.000135969   0.000050815      695813349   20276132
   3  2  0    -1456.1229226658    -0.0000036513   0.000075265   0.000013145      654322177   20636540
   4  3  0    -1456.1229183643     0.0000043014   0.000017908   0.000004149      611425444   21005317
   5  4  0    -1456.1229185314    -0.0000001671   0.000004563   0.000002332      564380955   21407434
   6  5  0    -1456.1229186064    -0.0000000750   0.000001342   0.000000338      516323868   21781834
   7  6  0    -1456.1229186509    -0.0000000445   0.000000710   0.000000226      464403711   22193268
   8  7  0    -1456.1229186338     0.0000000171   0.000000175   0.000000037      417462360   22587818
   9  8  0    -1456.1229186369    -0.0000000031   0.000000069   0.000000019      378793135   22881864

          -----------------
          DENSITY CONVERGED
          -----------------
     TIME TO FORM FOCK OPERATORS=      16.8 SECONDS (       1.9 SEC/ITER)
     FOCK TIME ON FIRST ITERATION=       3.2, LAST ITERATION=       1.3
     TIME TO SOLVE SCF EQUATIONS=       0.3 SECONDS (       0.0 SEC/ITER)

 FINAL RHF ENERGY IS    -1456.1229186369 AFTER   9 ITERATIONS
 ...... END OF RHF CALCULATION ......
 CPU     0: STEP CPU TIME=    43.29 TOTAL CPU TIME=       2390.7 (     39.8 MIN)
 TOTAL WALL CLOCK TIME=       5053.9 SECONDS, CPU UTILIZATION IS    47.30%
 DONE PCM POT.
 CPU     0: STEP CPU TIME=     0.40 TOTAL CPU TIME=       2391.1 (     39.9 MIN)
 TOTAL WALL CLOCK TIME=       5054.9 SECONDS, CPU UTILIZATION IS    47.30%

 Iter=  6 iFrag=      8 EFMO= -1507.492305946, DD= 0.000785101, DE=-0.001850673


 RHF      monomer      3 corr= NONE       , L1=   386, L0=   362 ID=      3


 AO spaces for     3     0     0 n-mer: L1=   386, L0=   362

 DIRECT SCF CALCULATION, SCHWRZ=T   FDIFF=T,  DIRTHR=  0.00E+00 NITDIR=10

                                                                                   NONZERO     BLOCKS
 ITER EX DEM     TOTAL ENERGY        E CHANGE  DENSITY CHANGE     ORB. GRAD      INTEGRALS    SKIPPED
   1  0  0    -1462.8125187234 -1462.8125187234   0.001289588   0.000000000      987007627   16861576
          ---------------START SECOND ORDER SCF---------------
   2  1  0    -1462.8124428195     0.0000759039   0.000238722   0.000054573      770531320   19688082
   3  2  0    -1462.8124481500    -0.0000053304   0.000138766   0.000017152      724666083   20085728
   4  3  0    -1462.8124405621     0.0000075879   0.000023898   0.000007319      675013376   20512809
   5  4  0    -1462.8124409369    -0.0000003748   0.000008544   0.000003130      623789067   20936623
   6  5  0    -1462.8124413179    -0.0000003811   0.000002657   0.000000668      571096454   21357419
   7  6  0    -1462.8124413197    -0.0000000018   0.000001106   0.000000520      525760248   21728234
   8  7  0    -1462.8124413131     0.0000000067   0.000000324   0.000000097      477590342   22128171
   9  8  0    -1462.8124413104     0.0000000027   0.000000195   0.000000083      439291971   22426545

          -----------------
          DENSITY CONVERGED
          -----------------
     TIME TO FORM FOCK OPERATORS=      18.3 SECONDS (       2.0 SEC/ITER)
     FOCK TIME ON FIRST ITERATION=       2.7, LAST ITERATION=       1.4
     TIME TO SOLVE SCF EQUATIONS=       0.4 SECONDS (       0.0 SEC/ITER)

 FINAL RHF ENERGY IS    -1462.8124413104 AFTER   9 ITERATIONS
 ...... END OF RHF CALCULATION ......
 CPU     0: STEP CPU TIME=    58.66 TOTAL CPU TIME=       2449.7 (     40.8 MIN)
 TOTAL WALL CLOCK TIME=       5166.6 SECONDS, CPU UTILIZATION IS    47.41%
 DONE PCM POT.
 CPU     0: STEP CPU TIME=     0.42 TOTAL CPU TIME=       2450.2 (     40.8 MIN)
 TOTAL WALL CLOCK TIME=       5167.7 SECONDS, CPU UTILIZATION IS    47.41%

 Iter=  6 iFrag=      3 EFMO= -1507.461044880, DD= 0.001584288, DE=-0.002823218


 RHF      monomer      4 corr= NONE       , L1=   386, L0=   362 ID=      4


 AO spaces for     4     0     0 n-mer: L1=   386, L0=   362

 DIRECT SCF CALCULATION, SCHWRZ=T   FDIFF=T,  DIRTHR=  0.00E+00 NITDIR=10

                                                                                   NONZERO     BLOCKS
 ITER EX DEM     TOTAL ENERGY        E CHANGE  DENSITY CHANGE     ORB. GRAD      INTEGRALS    SKIPPED
   1  0  0    -1464.0673615844 -1464.0673615844   0.000851406   0.000000000      905938213   17641046
          ---------------START SECOND ORDER SCF---------------
   2  1  0    -1464.0672713638     0.0000902206   0.000156773   0.000046192      703418421   20237208
   3  2  0    -1464.0672765807    -0.0000052169   0.000100541   0.000014826      667171334   20544728
   4  3  0    -1464.0672678591     0.0000087216   0.000024640   0.000005281      621602861   20927192
   5  4  0    -1464.0672680765    -0.0000002174   0.000006705   0.000002650      573431386   21336809
   6  5  0    -1464.0672683248    -0.0000002483   0.000003116   0.000000401      526100285   21714348
   7  6  0    -1464.0672683822    -0.0000000574   0.000000848   0.000000379      478002486   22094057
   8  7  0    -1464.0672683510     0.0000000311   0.000000216   0.000000114      435778156   22452279
   9  8  0    -1464.0672683496     0.0000000015   0.000000085   0.000000063      397736345   22745222
  10  9  0    -1464.0672683514    -0.0000000018   0.000000037   0.000000026      356406793   23055002

          -----------------
          DENSITY CONVERGED
          -----------------
     TIME TO FORM FOCK OPERATORS=      17.5 SECONDS (       1.8 SEC/ITER)
     FOCK TIME ON FIRST ITERATION=       2.4, LAST ITERATION=       1.0
     TIME TO SOLVE SCF EQUATIONS=       0.3 SECONDS (       0.0 SEC/ITER)

 FINAL RHF ENERGY IS    -1464.0672683514 AFTER  10 ITERATIONS
 ...... END OF RHF CALCULATION ......
 CPU     0: STEP CPU TIME=    47.59 TOTAL CPU TIME=       2497.8 (     41.6 MIN)
 TOTAL WALL CLOCK TIME=       5268.4 SECONDS, CPU UTILIZATION IS    47.41%
 DONE PCM POT.
 CPU     0: STEP CPU TIME=     0.40 TOTAL CPU TIME=       2498.2 (     41.6 MIN)
 TOTAL WALL CLOCK TIME=       5269.5 SECONDS, CPU UTILIZATION IS    47.41%

 Iter=  6 iFrag=      4 EFMO= -1507.440591401, DD= 0.001040912, DE=-0.002846165


 RHF      monomer      2 corr= NONE       , L1=   371, L0=   348 ID=      5


 AO spaces for     2     0     0 n-mer: L1=   371, L0=   348

 DIRECT SCF CALCULATION, SCHWRZ=T   FDIFF=T,  DIRTHR=  0.00E+00 NITDIR=10

                                                                                   NONZERO     BLOCKS
 ITER EX DEM     TOTAL ENERGY        E CHANGE  DENSITY CHANGE     ORB. GRAD      INTEGRALS    SKIPPED
   1  0  0    -1392.9204720981 -1392.9204720981   0.000471483   0.000000000      804108680   15036715
          ---------------START SECOND ORDER SCF---------------
   2  1  0    -1392.9204564265     0.0000156717   0.000111776   0.000036566      634909453   17419358
   3  2  0    -1392.9204581262    -0.0000016997   0.000072061   0.000027899      603929142   17696920
   4  3  0    -1392.9204563469     0.0000017793   0.000021567   0.000008527      566657619   18039073
   5  4  0    -1392.9204562303     0.0000001166   0.000005074   0.000002038      529121343   18355668
   6  5  0    -1392.9204564320    -0.0000002017   0.000001637   0.000000512      480058588   18753914
   7  6  0    -1392.9204564339    -0.0000000018   0.000000883   0.000000321      438968939   19099828
   8  7  0    -1392.9204564297     0.0000000042   0.000000341   0.000000087      401107527   19416789
   9  8  0    -1392.9204564323    -0.0000000026   0.000000172   0.000000044      372759429   19652765

          -----------------
          DENSITY CONVERGED
          -----------------
     TIME TO FORM FOCK OPERATORS=      15.6 SECONDS (       1.7 SEC/ITER)
     FOCK TIME ON FIRST ITERATION=       3.2, LAST ITERATION=       1.3
     TIME TO SOLVE SCF EQUATIONS=       0.3 SECONDS (       0.0 SEC/ITER)

 FINAL RHF ENERGY IS    -1392.9204564323 AFTER   9 ITERATIONS
 ...... END OF RHF CALCULATION ......
 CPU     0: STEP CPU TIME=    50.44 TOTAL CPU TIME=       2548.6 (     42.5 MIN)
 TOTAL WALL CLOCK TIME=       5362.5 SECONDS, CPU UTILIZATION IS    47.53%
 DONE PCM POT.
 CPU     0: STEP CPU TIME=     0.30 TOTAL CPU TIME=       2548.9 (     42.5 MIN)
 TOTAL WALL CLOCK TIME=       5363.5 SECONDS, CPU UTILIZATION IS    47.52%

 Iter=  6 iFrag=      2 EFMO= -1432.598152739, DD= 0.000576680, DE=-0.001653590


 RHF      monomer      1 corr= NONE       , L1=   358, L0=   336 ID=      6


 AO spaces for     1     0     0 n-mer: L1=   358, L0=   336

 DIRECT SCF CALCULATION, SCHWRZ=T   FDIFF=T,  DIRTHR=  0.00E+00 NITDIR=10

                                                                                   NONZERO     BLOCKS
 ITER EX DEM     TOTAL ENERGY        E CHANGE  DENSITY CHANGE     ORB. GRAD      INTEGRALS    SKIPPED
   1  0  0    -1412.2311389726 -1412.2311389726   0.000979117   0.000000000      770589463   13346539
          ---------------START SECOND ORDER SCF---------------
   2  1  0    -1412.2311065570     0.0000324156   0.000155252   0.000043610      590763439   15927033
   3  2  0    -1412.2311094529    -0.0000028958   0.000107045   0.000016735      560274680   16195115
   4  3  0    -1412.2311059471     0.0000035057   0.000030085   0.000007199      524681584   16529708
   5  4  0    -1412.2311066941    -0.0000007470   0.000007353   0.000002120      477239555   16960274
   6  5  0    -1412.2311069071    -0.0000002129   0.000002758   0.000000550      434383963   17348872
   7  6  0    -1412.2311068880     0.0000000191   0.000000816   0.000000135      404828596   17600702
   8  7  0    -1412.2311069005    -0.0000000125   0.000000221   0.000000131      369110551   17914206
   9  8  0    -1412.2311069126    -0.0000000121   0.000000088   0.000000021      332100114   18245185
  10  9  0    -1412.2311069125     0.0000000002   0.000000034   0.000000021      291653688   18570007

          -----------------
          DENSITY CONVERGED
          -----------------
     TIME TO FORM FOCK OPERATORS=      15.3 SECONDS (       1.5 SEC/ITER)
     FOCK TIME ON FIRST ITERATION=       2.5, LAST ITERATION=       1.0
     TIME TO SOLVE SCF EQUATIONS=       0.3 SECONDS (       0.0 SEC/ITER)

 FINAL RHF ENERGY IS    -1412.2311069125 AFTER  10 ITERATIONS
 ...... END OF RHF CALCULATION ......
 CPU     0: STEP CPU TIME=    33.06 TOTAL CPU TIME=       2581.9 (     43.0 MIN)
 TOTAL WALL CLOCK TIME=       5435.7 SECONDS, CPU UTILIZATION IS    47.50%
 DONE PCM POT.
 CPU     0: STEP CPU TIME=     0.33 TOTAL CPU TIME=       2582.3 (     43.0 MIN)
 TOTAL WALL CLOCK TIME=       5436.6 SECONDS, CPU UTILIZATION IS    47.50%

 Iter=  6 iFrag=      1 EFMO= -1450.881780653, DD= 0.001202122, DE=-0.003132486


 RHF      monomer      7 corr= NONE       , L1=   341, L0=   320 ID=      7


 AO spaces for     7     0     0 n-mer: L1=   341, L0=   320

 DIRECT SCF CALCULATION, SCHWRZ=T   FDIFF=T,  DIRTHR=  0.00E+00 NITDIR=10

                                                                                   NONZERO     BLOCKS
 ITER EX DEM     TOTAL ENERGY        E CHANGE  DENSITY CHANGE     ORB. GRAD      INTEGRALS    SKIPPED
   1  0  0    -1322.0198912110 -1322.0198912110   0.000926321   0.000000000      661272522   10591303
          ---------------START SECOND ORDER SCF---------------
   2  1  0    -1322.0198152271     0.0000759839   0.000158161   0.000057086      520105674   12508623
   3  2  0    -1322.0198229392    -0.0000077121   0.000103580   0.000017536      494668446   12739586
   4  3  0    -1322.0198165641     0.0000063752   0.000024212   0.000006408      459046238   13056555
