‘1F5G_4_fmo_input.inp’ -> ‘/scratch/hazwong/820708/./1F5G_4_fmo_input.inp’
‘rungms’ -> ‘/scratch/hazwong/820708/./rungms’
‘gms-files.csh’ -> ‘/scratch/hazwong/820708/./gms-files.csh’
----- GAMESS execution script 'rungms' -----
This job is running on host gollum085.lsa.umich.edu
under operating system Linux at Thu Dec 5 23:25:02 EST 2019
Available scratch disk space (Kbyte units) at beginning of the job is
Filesystem     1K-blocks  Used Available Use% Mounted on
/dev/sda4      426933580 33424 426900156   1% /scratch
GAMESS temporary binary files will be written to /scratch/hazwong/820708/1F5G_4/usrc
GAMESS supplementary output files will be written to /scratch/hazwong/820708/1F5G_4/src
Copying input file 1F5G_4_fmo_input.inp to your run's scratch directory...
cp 1F5G_4_fmo_input.inp /scratch/hazwong/820708/1F5G_4/usrc/1F5G_4_fmo_input.F05
unset echo
This is a GDDI run, keeping various output files on local disks
setenv OUTPUT /scratch/hazwong/820708/1F5G_4/usrc/1F5G_4_fmo_input.F06
setenv PUNCH /scratch/hazwong/820708/1F5G_4/usrc/1F5G_4_fmo_input.F07
unset echo
 
Assuming a single but multicore node.
 
/export/apps/CentOS7/gamess/src/build//ddikick.x /export/apps/CentOS7/gamess/src/build//gamess.R3.x 1F5G_4_fmo_input -ddi 1 16 gollum085.lsa.umich.edu:cpus=16 -scr /scratch/hazwong/820708/1F5G_4/usrc

 Distributed Data Interface kickoff program.
 Initiating 16 compute processes on 1 nodes to run the following command:
 /export/apps/CentOS7/gamess/src/build//gamess.R3.x 1F5G_4_fmo_input 

          ******************************************************
          *         GAMESS VERSION = 30 SEP 2018 (R3)         *
          *             FROM IOWA STATE UNIVERSITY             *
          * M.W.SCHMIDT, K.K.BALDRIDGE, J.A.BOATZ, S.T.ELBERT, *
          *   M.S.GORDON, J.H.JENSEN, S.KOSEKI, N.MATSUNAGA,   *
          *          K.A.NGUYEN, S.J.SU, T.L.WINDUS,           *
          *       TOGETHER WITH M.DUPUIS, J.A.MONTGOMERY       *
          *         J.COMPUT.CHEM.  14, 1347-1363(1993)        *
          **************** 64 BIT LINUX VERSION ****************

  SINCE 1993, STUDENTS AND POSTDOCS WORKING AT IOWA STATE UNIVERSITY
  AND ALSO IN THEIR VARIOUS JOBS AFTER LEAVING ISU HAVE MADE IMPORTANT
  CONTRIBUTIONS TO THE CODE:
     IVANA ADAMOVIC, CHRISTINE AIKENS, YURI ALEXEEV, POOJA ARORA,
     ANDREY ASADCHEV, ROB BELL, PRADIPTA BANDYOPADHYAY, JONATHAN BENTZ,
     BRETT BODE, KURT BRORSEN, CALEB CARLIN, GALINA CHABAN, WEI CHEN,
     CHEOL HO CHOI, PAUL DAY, ALBERT DEFUSCO, NUWAN DESILVA, TIM DUDLEY,
     DMITRI FEDOROV, ALEX FINDLATER, GRAHAM FLETCHER, MARK FREITAG,
     KURT GLAESEMANN, ANASTASIA GUNINA,
     DAN KEMP, GRANT MERRILL, NORIYUKI MINEZAWA, JONATHAN MULLIN,
     TAKESHI NAGATA, SEAN NEDD, HEATHER NETZLOFF, BOSILJKA NJEGIC, RYAN OLSON,
     MIKE PAK, BUU PHAM,
     SPENCER PRUITT, LUKE ROSKOP, JIM SHOEMAKER, LYUDMILA SLIPCHENKO,
     TONY SMITH, SAROM SOK LEANG, JIE SONG, TETSUYA TAKETSUGU, SIMON WEBB,
     PENG XU, SOOHAENG YOO, FEDERICO ZAHARIEV

  ADDITIONAL CODE HAS BEEN PROVIDED BY COLLABORATORS IN OTHER GROUPS:
     IOWA STATE UNIVERSITY:
          JOE IVANIC, AARON WEST, LAIMUTIS BYTAUTAS, KLAUS RUEDENBERG
     UNIVERSITY OF TOKYO: KIMIHIKO HIRAO, TAKAHITO NAKAJIMA,
          TAKAO TSUNEDA, MUNEAKI KAMIYA, SUSUMU YANAGISAWA,
          KIYOSHI YAGI, MAHITO CHIBA, SEIKEN TOKURA, NAOAKI KAWAKAMI
     UNIVERSITY OF AARHUS: FRANK JENSEN
     UNIVERSITY OF IOWA: VISVALDAS KAIRYS, HUI LI
     NATIONAL INST. OF STANDARDS AND TECHNOLOGY: WALT STEVENS, DAVID GARMER
     UNIVERSITY OF PISA: BENEDETTA MENNUCCI, JACOPO TOMASI
     UNIVERSITY OF MEMPHIS: HENRY KURTZ, PRAKASHAN KORAMBATH
     UNIVERSITY OF ALBERTA: TOBY ZENG, MARIUSZ KLOBUKOWSKI
     UNIVERSITY OF NEW ENGLAND: MARK SPACKMAN
     MIE UNIVERSITY: HIROAKI UMEDA
     NAT. INST. OF ADVANCED INDUSTRIAL SCIENCE AND TECHNOLOGY: KAZUO KITAURA
     MICHIGAN STATE UNIVERSITY:
          KAROL KOWALSKI, MARTA WLOCH, JEFFREY GOUR, JESSE LUTZ,
          WEI LI, JUN SHEN, J. EMILIANO DEUSTUA, PIOTR PIECUCH
     UNIVERSITY OF MINNESOTA:
          YINAN SHU
     UNIVERSITY OF SILESIA: MONIKA MUSIAL, STANISLAW KUCHARSKI
     FACULTES UNIVERSITAIRES NOTRE-DAME DE LA PAIX:
          OLIVIER QUINET, BENOIT CHAMPAGNE
     UNIVERSITY OF CALIFORNIA - SANTA BARBARA: BERNARD KIRTMAN
     INSTITUTE FOR MOLECULAR SCIENCE:
          KAZUYA ISHIMURA, MICHIO KATOUDA, AND SHIGERU NAGASE
     UNIVERSITY OF NOTRE DAME: ANNA POMOGAEVA, DAN CHIPMAN
     KYUSHU UNIVERSITY:
          HARUYUKI NAKANO,
          FENG LONG GU, JACEK KORCHOWIEC, MARCIN MAKOWSKI, AND YURIKO AOKI,
          HIROTOSHI MORI AND EISAKU MIYOSHI
     PENNSYLVANIA STATE UNIVERSITY:
          TZVETELIN IORDANOV, CHET SWALINA, JONATHAN SKONE,
          SHARON HAMMES-SCHIFFER
     WASEDA UNIVERSITY:
          MASATO KOBAYASHI, TOMOKO AKAMA, TSUGUKI TOUMA,
          TAKESHI YOSHIKAWA, YASUHIRO IKABATA, JUNJI SEINO,
          YUYA NAKAJIMA, HIROMI NAKAI
     NANJING UNIVERSITY: SHUHUA LI
     UNIVERSITY OF NEBRASKA:
          PEIFENG SU, DEJUN SI, NANDUN THELLAMUREGE, YALI WANG, HUI LI
     UNIVERSITY OF ZURICH: ROBERTO PEVERATI, KIM BALDRIDGE
     N. COPERNICUS UNIVERSITY AND JACKSON STATE UNIVERSITY:
          MARIA BARYSZ
     UNIVERSITY OF COPENHAGEN: Jimmy Kromann, CASPER STEINMANN
     TOKYO INSTITUTE OF TECHNOLOGY: HIROYA NAKATA
     NAGOYA UNIVERSITY: YOSHIO NISHIMOTO, STEPHAN IRLE
     MOSCOW STATE UNIVERSITY: VLADIMIR MIRONOV


 PARALLEL VERSION RUNNING ON       16 PROCESSORS IN        1 NODES.

 EXECUTION OF GAMESS BEGUN Thu Dec  5 23:25:03 2019

            ECHO OF THE FIRST FEW INPUT CARDS -
 INPUT CARD>!*** FMO 5.3 (Gamess) INPUT generated by Facio 22.1.1.32 ***                    
 INPUT CARD> $CONTRL RUNTYP=ENERGY NPRINT=-5 ISPHER=1 MAXIT=200 $END                        
 INPUT CARD> $SYSTEM MWORDS=63 MEMDDI=63 $END                                               
 INPUT CARD> $GDDI NGROUP=1 $END                                                            
 INPUT CARD> $SCF DIRSCF=.TRUE. NPUNCH=0 $END                                               
 INPUT CARD>!*** NumCPU : 2  MemPerNode : 512MB                                             
 INPUT CARD> $PCM SOLVNT=WATER IEF=-10 ICOMP=2 ICAV=1 IDISP=1 IFMO=-1 $END                  
 INPUT CARD> $PCMCAV RADII=SUAHF $END                                                       
 INPUT CARD> $TESCAV NTSALL=60 $END                                                         
 INPUT CARD> $FMOPRP                                                                        
 INPUT CARD>    NAODIR=200                                                                  
 INPUT CARD>    NGRFMO(1)=1, 1, 0, 0, 0,   0, 0, 0, 0, 0                                    
 INPUT CARD>    IPIEDA=1                                                                    
 INPUT CARD>    NPRINT=9                                                                    
 INPUT CARD> $END                                                                           
 INPUT CARD> $FMO                                                                           
 INPUT CARD>      SCFTYP(1)=RHF                                                             
 INPUT CARD>      MODGRD=10                                                                 
 INPUT CARD>      MODMUL=0                                                                  
 INPUT CARD>      MAXCAO=5                                                                  
 INPUT CARD>      MAXBND=12                                                                 
 INPUT CARD>      NLAYER=1                                                                  
 INPUT CARD>      MPLEVL(1)=2                                                               
 INPUT CARD>      NFRAG=10                                                                  
 INPUT CARD>      ICHARG(1)=-1, -1, -1, -1, 0, -1, -1, -1, -1, 0                            
 INPUT CARD>      FRGNAM(1)=F1, F2, F3, F4, F5, F6, F7, F8, F9, F10                         
 INPUT CARD>      indat(1)=0                                                                
 INPUT CARD>               1   -33   0                                                      
 INPUT CARD>               34   -66   0                                                     
 INPUT CARD>               67   -100   0                                                    
 INPUT CARD>               101   -134   0                                                   
 INPUT CARD>               135   -164   0                                                   
 INPUT CARD>               165   -198   0                                                   
 INPUT CARD>               199   -229   0                                                   
 INPUT CARD>               230   -263   0                                                   
 INPUT CARD>               264   -293   0                                                   
 INPUT CARD>               294   -324   0                                                   
 INPUT CARD> $END                                                                           
 INPUT CARD>                                                                                
 INPUT CARD> $FMOBND                                                                        
 INPUT CARD>   -34   33       6-31G*    MINI                                                
 INPUT CARD>   -67   66       6-31G*    MINI                                                
 INPUT CARD>   -101   100       6-31G*    MINI                                              
 INPUT CARD>   -135   134       6-31G*    MINI                                              
 INPUT CARD>   -165   164       6-31G*    MINI                                              
 INPUT CARD>   -199   198       6-31G*    MINI                                              
 INPUT CARD>   -230   229       6-31G*    MINI                                              
 INPUT CARD>   -264   263       6-31G*    MINI                                              
 INPUT CARD>   -294   293       6-31G*    MINI                                              
 INPUT CARD> $END                                                                           


 -------------------------------------------------------------
 GROUP DDI, PROGRAMMED BY: RYAN M. OLSON AND DMITRI G. FEDOROV
        FEDOROV ET AL., J. COMPUT. CHEM., 25 (2004) 872.
 -------------------------------------------------------------

 -------------------------------------------------------
 GDDI: INITIALIZATION COMPLETED FOR GROUP     1 OF     1
 WITH    16 PROCESSES BALTYP=DLB   global rank=        0
 -------------------------------------------------------

   63000000 WORDS OF MEMORY AVAILABLE


     RUN TITLE
     ---------
  FMO calculation                                                                

 THE POINT GROUP OF THE MOLECULE IS C1      
 THE ORDER OF THE PRINCIPAL AXIS IS     0

 ATOM   ATOMIC CHARGE
 H.1-1       1.0
 O.1-1       8.0
 C.1-1       6.0
 N.1-1       7.0
 P.1-1      15.0

     ATOMIC BASIS SET LIBRARY
     ----------------
 THE CONTRACTED PRIMITIVE FUNCTIONS HAVE BEEN UNNORMALIZED
 THE CONTRACTED BASIS FUNCTIONS ARE NOW NORMALIZED TO UNITY

  SHELL TYPE  PRIMITIVE        EXPONENT          CONTRACTION COEFFICIENT(S)

 H.1-1     

      1   S       1            18.7311370    0.033494604338
      1   S       2             2.8253944    0.234726953484
      1   S       3             0.6401217    0.813757326146

      2   S       4             0.1612778    1.000000000000

 O.1-1     

      3   S       5          5484.6716600    0.001831074430
      3   S       6           825.2349460    0.013950172200
      3   S       7           188.0469580    0.068445078098
      3   S       8            52.9645000    0.232714335992
      3   S       9            16.8975704    0.470192897984
      3   S      10             5.7996353    0.358520852987

      4   L      11            15.5396162   -0.110777549525    0.070874268231
      4   L      12             3.5999336   -0.148026262701    0.339752839147
      4   L      13             1.0137618    1.130767015354    0.727158577316

      5   L      14             0.2700058    1.000000000000    1.000000000000

      6   D      15             0.8000000    1.000000000000

 C.1-1     

      7   S      16          3047.5248800    0.001834737132
      7   S      17           457.3695180    0.014037322813
      7   S      18           103.9486850    0.068842622264
      7   S      19            29.2101553    0.232184443216
      7   S      20             9.2866630    0.467941348435
      7   S      21             3.1639270    0.362311985337

      8   L      22             7.8682723   -0.119332419775    0.068999066591
      8   L      23             1.8812885   -0.160854151696    0.316423960957
      8   L      24             0.5442493    1.143456437840    0.744308290898

      9   L      25             0.1687145    1.000000000000    1.000000000000

     10   D      26             0.8000000    1.000000000000

 N.1-1     

     11   S      27          4173.5114600    0.001834772160
     11   S      28           627.4579110    0.013994627002
     11   S      29           142.9020930    0.068586551812
     11   S      30            40.2343293    0.232240873040
     11   S      31            12.8202129    0.469069948082
     11   S      32             4.3904370    0.360455199063

     12   L      33            11.6263619   -0.114961181702    0.067579743878
     12   L      34             2.7162798   -0.169117478561    0.323907295893
     12   L      35             0.7722184    1.145851947027    0.740895139755

     13   L      36             0.2120315    1.000000000000    1.000000000000

     14   D      37             0.8000000    1.000000000000

 P.1-1     

     15   S      38         19413.3000000    0.001851598923
     15   S      39          2909.4200000    0.014206191735
     15   S      40           661.3640000    0.069999459277
     15   S      41           185.7590000    0.240078860331
     15   S      42            59.1943000    0.484761717984
     15   S      43            20.0310000    0.335199804993

     16   L      44           339.4780000   -0.002782170105    0.004564616191
     16   L      45            81.0101000   -0.036049901354    0.033693571881
     16   L      46            25.8780000   -0.116631004382    0.139754883368
     16   L      47             9.4522100    0.096832803638    0.339361716786
     16   L      48             3.6656600    0.614418023082    0.450920623685
     16   L      49             1.4674600    0.403798015170    0.238585800889

     17   L      50             2.1562300   -0.252924113863   -0.017765312733
     17   L      51             0.7489970    0.032851844678    0.274058196433
     17   L      52             0.2831450    1.081254761783    0.785421562957

     18   L      53             0.0998317    1.000000000000    1.000000000000

     19   D      54             0.5500000    1.000000000000

 TOTAL NUMBER OF BASIS SET SHELLS             =   19
 NUMBER OF CARTESIAN GAUSSIAN BASIS FUNCTIONS =   66

     $CONTRL OPTIONS
     ---------------
 SCFTYP=RHF          RUNTYP=ENERGY       EXETYP=RUN     
 MPLEVL=       0     CITYP =NONE         CCTYP =NONE         VBTYP =NONE    
 DFTTYP=NONE         TDDFT =NONE    
 MULT  =       1     ICHARG=       0     NZVAR =       0     COORD =UNIQUE  
 PP    =NONE         RELWFN=NONE         LOCAL =NONE         NUMGRD=       F
 ISPHER=       1     NOSYM =       0     MAXIT =     200     UNITS =ANGS    
 PLTORB=       F     MOLPLT=       F     AIMPAC=       F     FRIEND=        
 NPRINT=      -5     IREST =       0     GEOM  =INPUT   
 NORMF =       0     NORMP =       0     ITOL  =      24     ICUT  =      12
 INTTYP=BEST         GRDTYP=BEST         QMTTOL= 1.0E-06

     $SYSTEM OPTIONS
     ---------------
  REPLICATED MEMORY=    63000000 WORDS (ON EVERY NODE).
 DISTRIBUTED MEMDDI=          63 MILLION WORDS IN AGGREGATE,
 MEMDDI DISTRIBUTED OVER  16 PROCESSORS IS     3937500 WORDS/PROCESSOR.
 TOTAL MEMORY REQUESTED ON EACH PROCESSOR=    66937500 WORDS.
 TIMLIM=      525600.00 MINUTES, OR     365.0 DAYS.
 PARALL= T  BALTYP=  DLB     KDIAG=    0  COREFL= F
 MXSEQ2=     300 MXSEQ3=     150  mem10=         0

 ** LOOKING UP INTERNALLY STORED DATA FOR SOLVENT=WATER    **
 OPTICAL AND PHYSICAL CONSTANTS:
 EPS= 78.390; EPSINF=  1.776; RSOLV=  1.385 A; VMOL=  18.070 ML/MOL;
 TCE= .25700E-03 1/K; STEN= 71.810 DYN/CM;  DSTEN=  0.6500; CMF=  1.2770


     -----------------------------------
     INPUT FOR PCM SOLVATION CALCULATION 
     -----------------------------------
     IEF   =     -10
     ICOMP =       2     IFIELD=       0     ICAV  =       1
     IDISP =       1     IREP  =       0     IDP   =       0

     SOLVNT=WATER        EPS   = 78.3900     EPSINF=  1.7760
     VMOL  = 18.0700     TCE   =  0.00025700 STEN  = 71.8100
     DSTEN =  0.6500     CMF   =  1.2770     RSOLV =  1.3850

     NESFP =       0
     OMEGA = 40.0000     RET   =100.0000     FRO   =  0.7000

     TABS  =298.0000     IPRINT=       0

     --------------------------------
     INPUT FOR ITERATIVE C-PCM METHOD 
     --------------------------------
     IPCMIT  =         1     MXDIIS  =        50
     MXITR1  =       200     MXITR2  =       200
     THRES   = 0.100E-09     IMUL    =         3
     RCUT(1) =   20.0000     RCUT(2) =   50.0000

     IDIRCT  =         1
     IMGABI  =         0     RABI    =    4.0000
     IMGASC  =         0     RASC    =   20.0000
     THRSLS  = 0.500E-03     DENSLS  =    0.0100
     IEFPOL  =         1     REFPOL  =    0.0000

     INPUT FOR ISOTROPIC DIELECTRICS
     -------------------------------
     EPS=    78.39

          ----------------
          PROPERTIES INPUT
          ----------------

     MOMENTS            FIELD           POTENTIAL          DENSITY
 IEMOM =       1   IEFLD =       0   IEPOT =       0   IEDEN =       0
 WHERE =COMASS     WHERE =NUCLEI     WHERE =NUCLEI     WHERE =NUCLEI  
 OUTPUT=BOTH       OUTPUT=BOTH       OUTPUT=NONE       OUTPUT=BOTH    
 IEMINT=       0   IEFINT=       0                     IEDINT=       0
                                                       MORB  =       0
          EXTRAPOLATION IN EFFECT
          SOSCF IN EFFECT
 ORBITAL PRINTING OPTION: NPREO=     1 32767     2     1

     -------------------------------
     INTEGRAL TRANSFORMATION OPTIONS
     -------------------------------
     NWORD  =            0
     CUTOFF = 1.0E-10     MPTRAN =       0
     DIRTRF =       T     AOINTS =DUP     

          ----------------------
          INTEGRAL INPUT OPTIONS
          ----------------------
 NOPK  =       1 NORDER=       0 SCHWRZ=       T

 ..... DONE SETTING UP THE RUN .....
 CPU     0: STEP CPU TIME=     0.03 TOTAL CPU TIME=          0.0 (      0.0 MIN)
 TOTAL WALL CLOCK TIME=          0.1 SECONDS, CPU UTILIZATION IS    42.86%
 CPU     0: STEP CPU TIME=     0.00 TOTAL CPU TIME=          0.0 (      0.0 MIN)
 TOTAL WALL CLOCK TIME=          0.1 SECONDS, CPU UTILIZATION IS    42.86%

                    ----------------------
                    AO INTEGRAL TECHNOLOGY
                    ----------------------
     S,P,L SHELL ROTATED AXIS INTEGRALS, REPROGRAMMED BY
        KAZUYA ISHIMURA (IMS) AND JOSE SIERRA (SYNSTAR).
     S,P,D,L SHELL ROTATED AXIS INTEGRALS PROGRAMMED BY
        KAZUYA ISHIMURA (INSTITUTE FOR MOLECULAR SCIENCE).
     S,P,D,F,G SHELL TO TOTAL QUARTET ANGULAR MOMENTUM SUM 5,
        ERIC PROGRAM BY GRAHAM FLETCHER (ELORET AND NASA ADVANCED
        SUPERCOMPUTING DIVISION, AMES RESEARCH CENTER).
     S,P,D,F,G,L SHELL GENERAL RYS QUADRATURE PROGRAMMED BY
        MICHEL DUPUIS (PACIFIC NORTHWEST NATIONAL LABORATORY).
 Setting modorb=1 flag...
 Setting modorb=1 flag...

          -----------------------
          MP2 CONTROL INFORMATION
          -----------------------
          NACORE =        8  NBCORE =        8
          LMOMP2 =        F  AOINTS = DUP     
          METHOD =        2  NWORD  =               0
          MP2PRP =        F  OSPT   = NONE    
          CUTOFF = 1.00E-12  CPHFBS = BASISAO 
          CODE   = IMS     

          NUMBER OF CORE -A-  ORBITALS =     8
          NUMBER OF CORE -B-  ORBITALS =     8
          NUMBER OF OCC. -A-  ORBITALS =    18
          NUMBER OF OCC. -B-  ORBITALS =    18
          NUMBER OF MOLECULAR ORBITALS =    66
          NUMBER OF   BASIS  FUNCTIONS =    66

 CPU     0: STEP CPU TIME=     0.03 TOTAL CPU TIME=          0.1 (      0.0 MIN)
 TOTAL WALL CLOCK TIME=          0.1 SECONDS, CPU UTILIZATION IS    60.00%
 CPU     0: STEP CPU TIME=     0.00 TOTAL CPU TIME=          0.1 (      0.0 MIN)
 TOTAL WALL CLOCK TIME=          0.1 SECONDS, CPU UTILIZATION IS    60.00%

     INPUT FOR CAVITY DEFINITION 
     ---------------------------
   ATOM               COORDINATES                RADIUS       EPS
      1     -5.5480     10.6250     -7.2680      0.0100     78.3900
      2     -4.6140     10.6260     -7.5500      1.5900     78.3900
      3     -4.5850     11.1390     -8.8930      1.7700     78.3900
      4     -5.0180     12.1640     -8.9060      0.0100     78.3900
      5     -5.2170     10.5020     -9.5490      0.0100     78.3900
      6     -3.1780     11.1910     -9.4960      1.7700     78.3900
      7     -3.2140     11.5470    -10.5460      0.0100     78.3900
      8     -2.3450     12.1300     -8.7540      1.5900     78.3900
      9     -1.0300     11.6000     -8.6480      1.7700     78.3900
     10     -0.3500     12.3750     -9.0730      0.0100     78.3900
     11     -0.6260     11.3280     -7.2420      1.6800     78.3900
     12     -1.5800     11.2180     -6.2560      1.7700     78.3900
     13     -2.6180     11.3470     -6.5690      0.0100     78.3900
     14     -1.2420     10.9970     -4.9800      1.7700     78.3900
     15     -1.9850     10.9360     -4.1870      0.0100     78.3900
     16      0.7180     11.1560     -6.9200      1.7700     78.3900
     17      1.5700     11.2130     -7.8190      1.5900     78.3900
     18      1.0790     10.9490     -5.6350      1.6800     78.3900
     19      0.1410     10.8790     -4.6730      1.7700     78.3900
     20      0.5250     10.7050     -3.4100      1.6800     78.3900
     21      1.4960     10.5670     -3.1990      0.0100     78.3900
     22     -0.1350     10.6880     -2.6550      0.0100     78.3900
     23     -0.9690     10.3630     -9.5200      1.7700     78.3900
     24     -0.2630      9.6040     -9.1330      0.0100     78.3900
     25     -0.6100     10.7250    -10.8380      1.5900     78.3900
     26     -0.6240      9.9100    -11.3550      0.0100     78.3900
     27     -2.4060      9.8620     -9.4580      1.7700     78.3900
     28     -2.6100      9.3980     -8.4650      0.0100     78.3900
     29     -2.8090      9.0220    -10.5670      1.5900     78.3900
     30     -2.6110      7.4600    -10.4620      2.1000     78.3900
     31     -3.1510      6.9770     -9.1700      1.5900     78.3900
     32     -3.1650      6.8310    -11.6830      1.5900     78.3900
     33     -1.0490      7.2730    -10.4330      1.5900     78.3900
     34     -0.2420      7.5150    -11.6100      1.7700     78.3900
     35     -0.4530      8.5070    -12.0680      0.0100     78.3900
     36     -0.4590      6.7490    -12.3880      0.0100     78.3900
     37      1.2570      7.4260    -11.2910      1.7700     78.3900
     38      1.8690      7.6790    -12.1860      0.0100     78.3900
     39      1.6070      8.3700    -10.2430      1.5900     78.3900
     40      2.5890      7.7940     -9.4010      1.7700     78.3900
     41      3.4630      8.4860     -9.4020      0.0100     78.3900
     42      2.0920      7.6460     -8.0310      1.6800     78.3900
     43      1.9900      7.4020     -5.8520      1.7700     78.3900
     44      0.6740      7.5120     -6.2870      1.6800     78.3900
     45      0.7890      7.6500     -7.5870      1.7700     78.3900
     46     -0.0430      7.7700     -8.2830      0.0100     78.3900
     47      3.9140      7.1370     -4.4980      1.6800     78.3900
     48      4.6240      7.1760     -5.6260      1.7700     78.3900
     49      5.7080      7.0790     -5.5010      0.0100     78.3900
     50      4.2060      7.3860     -6.8740      1.6800     78.3900
     51      2.8680      7.4690     -6.9200      1.7700     78.3900
     52      2.5610      7.2510     -4.5720      1.7700     78.3900
     53      1.8560      7.2310     -3.4290      1.6800     78.3900
     54      0.8540      7.2940     -3.4030      0.0100     78.3900
     55      2.3630      7.1140     -2.5730      0.0100     78.3900
     56      2.9920      6.4670    -10.0030      1.7700     78.3900
     57      3.2570      5.7100     -9.2300      0.0100     78.3900
     58      4.0790      6.6400    -10.8960      1.5900     78.3900
     59      4.2450      5.7700    -11.2920      0.0100     78.3900
     60      1.7230      6.0660    -10.7510      1.7700     78.3900
     61      0.9410      5.7170    -10.0380      0.0100     78.3900
     62      1.9110      5.1410    -11.8450      1.5900     78.3900
     63      2.1630      3.6190    -11.5190      2.1000     78.3900
     64      1.0500      3.1560    -10.6560      1.5900     78.3900
     65      2.3760      2.9060    -12.7950      1.5900     78.3900
     66      3.5180      3.6000    -10.7130      1.5900     78.3900
     67      3.7830      2.5160     -9.7940      1.7700     78.3900
     68      3.8980      1.5570    -10.3500      0.0100     78.3900
     69      2.9430      2.3780     -9.0770      0.0100     78.3900
     70      5.0750      2.7460     -8.9840      1.7700     78.3900
     71      5.9490      2.8470     -9.6600      0.0100     78.3900
     72      5.0100      3.9640     -8.1800      1.5900     78.3900
     73      5.5090      3.6920     -6.8710      1.7700     78.3900
     74      6.2630      4.4870     -6.6730      0.0100     78.3900
     75      4.4730      3.7520     -5.8140      1.6800     78.3900
     76      3.0980      3.7600     -5.9250      1.7700     78.3900
     77      0.2900      3.6250     -7.9370      1.6800     78.3900
     78     -0.7020      3.5530     -7.8450      0.0100     78.3900
     79      0.7070      3.5170     -8.8460      0.0100     78.3900
     80      2.3940      3.7320     -7.0660      1.6800     78.3900
     81      1.0960      3.6980     -6.8900      1.7700     78.3900
     82      0.5160      3.7350     -5.6510      1.6800     78.3900
     83     -0.4890      3.7170     -5.5980      0.0100     78.3900
     84      1.2000      3.7980     -4.4370      1.7700     78.3900
     85      0.5740      3.8440     -3.3720      1.5900     78.3900
     86      2.6170      3.7980     -4.6330      1.7700     78.3900
     87      3.6710      3.8260     -3.7180      1.6800     78.3900
     88      4.7460      3.8130     -4.4690      1.7700     78.3900
     89      5.7750      3.8630     -4.1010      0.0100     78.3900
     90      6.1950      2.3390     -6.9250      1.7700     78.3900
     91      6.1600      1.7960     -5.9550      0.0100     78.3900
     92      7.5420      2.4990     -7.3370      1.5900     78.3900
     93      7.8960      1.6210     -7.5470      0.0100     78.3900
     94      5.3530      1.6230     -7.9750      1.7700     78.3900
     95      4.3640      1.3480     -7.5420      0.0100     78.3900
     96      5.9960      0.5230     -8.6470      1.5900     78.3900
     97      6.0070     -0.9430     -8.0720      2.1000     78.3900
     98      5.7400     -1.8560     -9.2050      1.5900     78.3900
     99      7.2910     -1.1530     -7.3700      1.5900     78.3900
    100      4.7950     -1.0390     -7.0640      1.5900     78.3900
    101      4.7010     -2.1870     -6.1780      1.7700     78.3900
    102      4.9440     -3.1430     -6.6940      0.0100     78.3900
    103      3.6400     -2.2880     -5.8510      0.0100     78.3900
    104      5.5700     -2.0630     -4.9110      1.7700     78.3900
    105      6.6390     -2.2600     -5.1440      0.0100     78.3900
    106      5.5030     -0.7070     -4.3850      1.5900     78.3900
    107      5.5100     -0.7460     -2.9710      1.7700     78.3900
    108      6.3540     -0.1030     -2.6360      0.0100     78.3900
    109      4.2560     -0.2100     -2.4240      1.6800     78.3900
    110      3.9860      0.0520     -1.1090      1.7700     78.3900
    111      4.9600      0.0750      2.2160      1.6800     78.3900
    112      5.8810     -0.3100      2.1790      0.0100     78.3900
    113      4.5570      0.3150      3.1040      0.0100     78.3900
    114      4.8230     -0.1510     -0.0760      1.6800     78.3900
    115      4.2950      0.2240      1.0860      1.7700     78.3900
    116      3.0480      0.7800      1.1940      1.6800     78.3900
    117      2.7200      1.0440      2.1110      0.0100     78.3900
    118      2.1660      1.0130      0.1480      1.7700     78.3900
    119      1.0620      1.5220      0.3580      1.5900     78.3900
    120      2.7080      0.5780     -1.0910      1.7700     78.3900
    121      2.1720      0.6180     -2.3700      1.6800     78.3900
    122      3.1320      0.1550     -3.1320      1.7700     78.3900
    123      3.0870      0.0470     -4.2190      0.0100     78.3900
    124      5.7700     -2.1820     -2.5530      1.7700     78.3900
    125      5.2750     -2.4470     -1.5950      0.0100     78.3900
    126      7.1660     -2.4190     -2.4470      1.5900     78.3900
    127      7.2830     -3.3750     -2.3670      0.0100     78.3900
    128      5.1550     -2.9410     -3.7190      1.7700     78.3900
    129      4.0420     -2.8860     -3.6620      0.0100     78.3900
    130      5.6630     -4.2790     -3.8820      1.5900     78.3900
    131      4.7600     -5.5250     -3.5670      2.1000     78.3900
    132      3.3750     -5.2350     -3.9930      1.5900     78.3900
    133      5.3980     -6.7390     -4.1250      1.5900     78.3900
    134      4.8050     -5.5950     -1.9950      1.5900     78.3900
    135      6.0100     -6.0520     -1.3370      1.7700     78.3900
    136      6.8850     -5.4320     -1.6370      0.0100     78.3900
    137      6.2330     -7.1120     -1.6070      0.0100     78.3900
    138      5.8840     -5.9780      0.1920      1.7700     78.3900
    139      6.7940     -6.3810      0.6870      0.0100     78.3900
    140      5.7460     -4.5900      0.6150      1.5900     78.3900
    141      4.8010     -4.5170      1.6760      1.7700     78.3900
    142      5.3320     -4.0150      2.5170      0.0100     78.3900
    143      3.6000     -3.7120      1.3200      1.6800     78.3900
    144      3.2860     -3.4820     -0.0010      1.7700     78.3900
    145      3.9750     -3.8960     -0.7360      0.0100     78.3900
    146      2.2140     -2.7630     -0.3500      1.7700     78.3900
    147      1.9620     -2.5550     -1.3880      0.0100     78.3900
    148      2.7730     -3.2130      2.3210      1.7700     78.3900
    149      3.0440     -3.4500      3.5070      1.5900     78.3900
    150      1.6880     -2.4770      1.9870      1.6800     78.3900
    151      1.3960     -2.2520      0.6950      1.7700     78.3900
    152      0.3310     -1.5190      0.3960      1.6800     78.3900
    153     -0.2300     -1.1340      1.1330      0.0100     78.3900
    154      0.1000     -1.2790     -0.5490      0.0100     78.3900
    155      4.4560     -5.9400      2.0900      1.7700     78.3900
    156      3.4060     -6.0260      2.4420      0.0100     78.3900
    157      5.3510     -6.3780      3.1010      1.5900     78.3900
    158      5.2350     -7.3360      3.2210      0.0100     78.3900
    159      4.6560     -6.6910      0.7780      1.7700     78.3900
    160      3.7960     -6.5160      0.0960      0.0100     78.3900
    161      4.9090     -8.0990      0.9320      1.5900     78.3900
    162      4.1170     -8.5450      1.2810      0.0100     78.3900
    163     -5.6540      3.2160      8.4630      0.0100     78.3900
    164     -4.7990      2.7450      8.4590      1.5900     78.3900
    165     -4.6210      2.2060      9.7780      1.7700     78.3900
    166     -5.5130      1.5970     10.0490      0.0100     78.3900
    167     -4.5400      3.0430     10.5090      0.0100     78.3900
    168     -3.3750      1.3230      9.9040      1.7700     78.3900
    169     -3.2460      0.9650     10.9460      0.0100     78.3900
    170     -3.5150      0.1460      9.0580      1.5900     78.3900
    171     -2.2540     -0.1760      8.4980      1.7700     78.3900
    172     -2.0340     -1.2320      8.7830      0.0100     78.3900
    173     -2.2680     -0.0620      7.0360      1.6800     78.3900
    174     -1.3590     -0.6230      6.1810      1.7700     78.3900
    175      1.5280     -2.4560      5.6300      1.6800     78.3900
    176      1.8160     -2.7080      6.5520      0.0100     78.3900
    177      2.0610     -2.7840      4.8460      0.0100     78.3900
    178     -0.2920     -1.3640      6.5340      1.6800     78.3900
    179      0.4210     -1.7530      5.4790      1.7700     78.3900
    180      0.0530     -1.4860      4.1860      1.6800     78.3900
    181      0.6290     -1.8490      3.4430      0.0100     78.3900
    182     -1.0550     -0.7480      3.7930      1.7700     78.3900
    183     -1.3150     -0.5580      2.6010      1.5900     78.3900
    184     -1.7850     -0.2740      4.9130      1.7700     78.3900
    185     -2.9210      0.5240      4.9710      1.6800     78.3900
    186     -3.1750      0.6240      6.2560      1.7700     78.3900
    187     -4.0140      1.1650      6.7010      0.0100     78.3900
    188     -1.2270      0.7370      9.1290      1.7700     78.3900
    189     -0.3890      0.9760      8.4420      0.0100     78.3900
    190     -0.7180      0.1400     10.3030      1.5900     78.3900
    191     -0.2510      0.8340     10.7850      0.0100     78.3900
    192     -2.0600      1.9750      9.4510      1.7700     78.3900
    193     -2.2910      2.5410      8.5180      0.0100     78.3900
    194     -1.5330      2.8220     10.5070      1.5900     78.3900
    195     -0.5340      3.9790     10.1100      2.1000     78.3900
    196     -1.1430      4.7910      9.0360      1.5900     78.3900
    197     -0.1320      4.7040     11.3360      1.5900     78.3900
    198      0.7060      3.2220      9.5050      1.5900     78.3900
    199      1.6480      2.5230     10.3490      1.7700     78.3900
    200      1.1560      1.7100     10.9240      0.0100     78.3900
    201      2.1070      3.2140     11.0930      0.0100     78.3900
    202      2.7930      1.9090      9.5320      1.7700     78.3900
    203      3.5050      1.3850     10.2060      0.0100     78.3900
    204      2.3010      0.9100      8.5880      1.5900     78.3900
    205      3.0780      0.9880      7.3910      1.7700     78.3900
    206      3.4900     -0.0350      7.2340      0.0100     78.3900
    207      2.2780      1.3700      6.1890      1.6800     78.3900
    208      1.0750      2.0170      6.3440      1.7700     78.3900
    209      0.7670      2.2110      7.3720      0.0100     78.3900
    210      0.3290      2.3700      5.2900      1.7700     78.3900
    211     -0.6400      2.8540      5.4010      0.0100     78.3900
    212      2.7590      1.1110      4.9050      1.7700     78.3900
    213      3.8570      0.5500      4.7690      1.5900     78.3900
    214      2.0210      1.4670      3.8280      1.6800     78.3900
    215      0.8350      2.0800      3.9900      1.7700     78.3900
    216      0.1170      2.4030      2.9160      1.6800     78.3900
    217      0.4490      2.1520      2.0030      0.0100     78.3900
    218     -0.7950      2.8060      2.9990      0.0100     78.3900
    219      4.2240      1.9540      7.6580      1.7700     78.3900
    220      4.5350      2.5070      6.7470      0.0100     78.3900
    221      5.3320      1.2620      8.2100      1.5900     78.3900
    222      5.9610      1.9410      8.4920      0.0100     78.3900
    223      3.5890      2.8990      8.6760      1.7700     78.3900
    224      2.8500      3.5680      8.1810      0.0100     78.3900
    225      4.4930      3.6390      9.5180      1.5900     78.3900
    226      5.4060      4.7900      8.9670      2.1000     78.3900
    227      5.3870      5.9000      9.9450      1.5900     78.3900
    228      6.7310      4.2130      8.6660      1.5900     78.3900
    229      4.7200      5.2800      7.6300      1.5900     78.3900
    230      5.4960      6.0750      6.6960      1.7700     78.3900
    231      6.0890      6.8660      7.2110      0.0100     78.3900
    232      4.7800      6.6100      6.0310      0.0100     78.3900
    233      6.4400      5.2540      5.7920      1.7700     78.3900
    234      7.3010      4.8530      6.3650      0.0100     78.3900
    235      5.7310      4.1170      5.2240      1.5900     78.3900
    236      6.0960      3.9580      3.8630      1.7700     78.3900
    237      6.4300      2.9020      3.7440      0.0100     78.3900
    238      4.9510      4.1990      2.9760      1.6800     78.3900
    239      4.8890      3.9540      1.6300      1.7700     78.3900
    240      6.3840      2.8540     -1.2950      1.6800     78.3900
    241      6.1470      2.6550     -2.2380      0.0100     78.3900
    242      7.2860      2.5890     -0.9560      0.0100     78.3900
    243      5.8760      3.4590      0.8670      1.6800     78.3900
    244      5.5190      3.3160     -0.4070      1.7700     78.3900
    245      4.2620      3.6140     -0.8670      1.6800     78.3900
    246      4.0500      3.5220     -1.8510      0.0100     78.3900
    247      3.2250      4.1280     -0.0980      1.7700     78.3900
    248      2.1170      4.3920     -0.5670      1.5900     78.3900
    249      3.6100      4.3090      1.2520      1.7700     78.3900
    250      2.8810      4.7890      2.3340      1.6800     78.3900
    251      3.7160      4.6940      3.3410      1.7700     78.3900
    252      3.4970      4.9760      4.3760      0.0100     78.3900
    253      7.2560      4.8900      3.5900      1.7700     78.3900
    254      7.2800      5.2590      2.5420      0.0100     78.3900
    255      8.4740      4.2330      3.8890      1.5900     78.3900
    256      9.1670      4.9060      3.8810      0.0100     78.3900
    257      6.9800      6.0230      4.5730      1.7700     78.3900
    258      6.1430      6.6600      4.2040      0.0100     78.3900
    259      8.1450      6.7880      4.9500      1.5900     78.3900
    260      8.5160      8.0900      4.1500      2.1000     78.3900
    261      7.3180      8.9540      4.1410      1.5900     78.3900
    262      9.7500      8.6660      4.7270      1.5900     78.3900
    263      8.8080      7.5800      2.6900      1.5900     78.3900
    264     10.0800      6.9720      2.3600      1.7700     78.3900
    265     10.1870      5.9870      2.8680      0.0100     78.3900
    266     10.9290      7.6170      2.6870      0.0100     78.3900
    267     10.2370      6.7400      0.8450      1.7700     78.3900
    268     11.2470      6.3180      0.6270      0.0100     78.3900
    269      9.2480      5.7730      0.3740      1.5900     78.3900
    270      8.7970      6.1590     -0.9230      1.7700     78.3900
    271      8.9860      5.2800     -1.5790      0.0100     78.3900
    272      7.3460      6.5030     -0.9390      1.6800     78.3900
    273      6.7070      6.9140      0.2100      1.7700     78.3900
    274      7.3310      6.9330      1.1000      0.0100     78.3900
    275      6.6620      6.4330     -2.1340      1.7700     78.3900
    276      7.1960      6.0930     -3.1850      1.5900     78.3900
    277      5.3310      6.7490     -2.0560      1.6800     78.3900
    278      4.8200      6.7730     -2.9330      0.0100     78.3900
    279      4.6300      7.1740     -0.9520      1.7700     78.3900
    280      3.4340      7.4340     -1.0440      1.5900     78.3900
    281      5.4040      7.2300      0.2490      1.7700     78.3900
    282      4.9060      7.5220      1.1720      0.0100     78.3900
    283      9.6710      7.3170     -1.3800      1.7700     78.3900
    284      9.1240      8.0250     -2.0340      0.0100     78.3900
    285     10.8100      6.8370     -2.0680      1.5900     78.3900
    286     11.3930      7.5940     -2.2060      0.0100     78.3900
    287     10.0430      7.9660     -0.0520      1.7700     78.3900
    288      9.1670      8.5160      0.3630      0.0100     78.3900
    289     11.2580      8.7500     -0.0820      1.5900     78.3900
    290     11.1620     10.3170     -0.1170      2.1000     78.3900
    291     10.0900     10.7700      0.7950      1.5900     78.3900
    292     12.5090     10.8890      0.1040      1.5900     78.3900
    293     10.7320     10.6250     -1.6010      1.5900     78.3900
    294     11.7000     10.3910     -2.6550      1.7700     78.3900
    295     12.0690      9.3390     -2.6470      0.0100     78.3900
    296     12.5850     11.0610     -2.5400      0.0100     78.3900
    297     11.0730     10.6580     -4.0260      1.7700     78.3900
    298     11.8290     10.5640     -4.8350      0.0100     78.3900
    299     10.0420      9.6610     -4.2880      1.5900     78.3900
    300      8.9580     10.2870     -4.9610      1.7700     78.3900
    301      8.7940      9.7100     -5.9010      0.0100     78.3900
    302      7.7280     10.2450     -4.1610      1.6800     78.3900
    303      6.4560     10.3950     -4.6400      1.7700     78.3900
    304      4.2880     10.9430     -7.2860      1.6800     78.3900
    305      4.9140     11.0580     -8.0530      0.0100     78.3900
    306      3.3020     11.0450     -7.4390      0.0100     78.3900
    307      6.1200     10.6330     -5.9200      1.6800     78.3900
    308      4.8000     10.7100     -6.0890      1.7700     78.3900
    309      3.9050     10.6030     -5.0560      1.6800     78.3900
    310      2.9240     10.7030     -5.2660      0.0100     78.3900
    311      4.2250     10.3840     -3.7210      1.7700     78.3900
    312      3.3520     10.3160     -2.8500      1.5900     78.3900
    313      5.6290     10.2800     -3.5370      1.7700     78.3900
    314      6.3720     10.0700     -2.3800      1.6800     78.3900
    315      7.6150     10.0650     -2.8010      1.7700     78.3900
    316      8.4960      9.9450     -2.1690      0.0100     78.3900
    317      9.3730     11.7080     -5.3010      1.7700     78.3900
    318      8.5120     12.4100     -5.2730      0.0100     78.3900
    319      9.9830     11.7370     -6.5830      1.5900     78.3900
    320     10.3830     12.6130     -6.7170      0.0100     78.3900
    321     10.3610     12.0120     -4.1770      1.7700     78.3900
    322      9.8120     12.2480     -3.2370      0.0100     78.3900
    323     11.3130     13.0450     -4.4890      1.5900     78.3900
    324     10.8650     13.9120     -4.5310      0.0100     78.3900

     ----------------------------
     INPUT FOR TESSERA DEFINITION
     ----------------------------
     NTSALL  =        60     MTHALL  =         4
     MTHAUT  =         0     AUTFRE  =    2.0000
     NTSFRZ  =        60     KEEPSM  =         0
     AREAKP  =   10.0000     BONDRY  =    1.0000
     AREATL  =    0.0100

     SPHERE     INITS       METHOD
          1        60       FIXPVA
          2        60       FIXPVA
          3        60       FIXPVA
          4        60       FIXPVA
          5        60       FIXPVA
          6        60       FIXPVA
          7        60       FIXPVA
          8        60       FIXPVA
          9        60       FIXPVA
         10        60       FIXPVA
         11        60       FIXPVA
         12        60       FIXPVA
         13        60       FIXPVA
         14        60       FIXPVA
         15        60       FIXPVA
         16        60       FIXPVA
         17        60       FIXPVA
         18        60       FIXPVA
         19        60       FIXPVA
         20        60       FIXPVA
         21        60       FIXPVA
         22        60       FIXPVA
         23        60       FIXPVA
         24        60       FIXPVA
         25        60       FIXPVA
         26        60       FIXPVA
         27        60       FIXPVA
         28        60       FIXPVA
         29        60       FIXPVA
         30        60       FIXPVA
         31        60       FIXPVA
         32        60       FIXPVA
         33        60       FIXPVA
         34        60       FIXPVA
         35        60       FIXPVA
         36        60       FIXPVA
         37        60       FIXPVA
         38        60       FIXPVA
         39        60       FIXPVA
         40        60       FIXPVA
         41        60       FIXPVA
         42        60       FIXPVA
         43        60       FIXPVA
         44        60       FIXPVA
         45        60       FIXPVA
         46        60       FIXPVA
         47        60       FIXPVA
         48        60       FIXPVA
         49        60       FIXPVA
         50        60       FIXPVA
         51        60       FIXPVA
         52        60       FIXPVA
         53        60       FIXPVA
         54        60       FIXPVA
         55        60       FIXPVA
         56        60       FIXPVA
         57        60       FIXPVA
         58        60       FIXPVA
         59        60       FIXPVA
         60        60       FIXPVA
         61        60       FIXPVA
         62        60       FIXPVA
         63        60       FIXPVA
         64        60       FIXPVA
         65        60       FIXPVA
         66        60       FIXPVA
         67        60       FIXPVA
         68        60       FIXPVA
         69        60       FIXPVA
         70        60       FIXPVA
         71        60       FIXPVA
         72        60       FIXPVA
         73        60       FIXPVA
         74        60       FIXPVA
         75        60       FIXPVA
         76        60       FIXPVA
         77        60       FIXPVA
         78        60       FIXPVA
         79        60       FIXPVA
         80        60       FIXPVA
         81        60       FIXPVA
         82        60       FIXPVA
         83        60       FIXPVA
         84        60       FIXPVA
         85        60       FIXPVA
         86        60       FIXPVA
         87        60       FIXPVA
         88        60       FIXPVA
         89        60       FIXPVA
         90        60       FIXPVA
         91        60       FIXPVA
         92        60       FIXPVA
         93        60       FIXPVA
         94        60       FIXPVA
         95        60       FIXPVA
         96        60       FIXPVA
         97        60       FIXPVA
         98        60       FIXPVA
         99        60       FIXPVA
        100        60       FIXPVA
        101        60       FIXPVA
        102        60       FIXPVA
        103        60       FIXPVA
        104        60       FIXPVA
        105        60       FIXPVA
        106        60       FIXPVA
        107        60       FIXPVA
        108        60       FIXPVA
        109        60       FIXPVA
        110        60       FIXPVA
        111        60       FIXPVA
        112        60       FIXPVA
        113        60       FIXPVA
        114        60       FIXPVA
        115        60       FIXPVA
        116        60       FIXPVA
        117        60       FIXPVA
        118        60       FIXPVA
        119        60       FIXPVA
        120        60       FIXPVA
        121        60       FIXPVA
        122        60       FIXPVA
        123        60       FIXPVA
        124        60       FIXPVA
        125        60       FIXPVA
        126        60       FIXPVA
        127        60       FIXPVA
        128        60       FIXPVA
        129        60       FIXPVA
        130        60       FIXPVA
        131        60       FIXPVA
        132        60       FIXPVA
        133        60       FIXPVA
        134        60       FIXPVA
        135        60       FIXPVA
        136        60       FIXPVA
        137        60       FIXPVA
        138        60       FIXPVA
        139        60       FIXPVA
        140        60       FIXPVA
        141        60       FIXPVA
        142        60       FIXPVA
        143        60       FIXPVA
        144        60       FIXPVA
        145        60       FIXPVA
        146        60       FIXPVA
        147        60       FIXPVA
        148        60       FIXPVA
        149        60       FIXPVA
        150        60       FIXPVA
        151        60       FIXPVA
        152        60       FIXPVA
        153        60       FIXPVA
        154        60       FIXPVA
        155        60       FIXPVA
        156        60       FIXPVA
        157        60       FIXPVA
        158        60       FIXPVA
        159        60       FIXPVA
        160        60       FIXPVA
        161        60       FIXPVA
        162        60       FIXPVA
        163        60       FIXPVA
        164        60       FIXPVA
        165        60       FIXPVA
        166        60       FIXPVA
        167        60       FIXPVA
        168        60       FIXPVA
        169        60       FIXPVA
        170        60       FIXPVA
        171        60       FIXPVA
        172        60       FIXPVA
        173        60       FIXPVA
        174        60       FIXPVA
        175        60       FIXPVA
        176        60       FIXPVA
        177        60       FIXPVA
        178        60       FIXPVA
        179        60       FIXPVA
        180        60       FIXPVA
        181        60       FIXPVA
        182        60       FIXPVA
        183        60       FIXPVA
        184        60       FIXPVA
        185        60       FIXPVA
        186        60       FIXPVA
        187        60       FIXPVA
        188        60       FIXPVA
        189        60       FIXPVA
        190        60       FIXPVA
        191        60       FIXPVA
        192        60       FIXPVA
        193        60       FIXPVA
        194        60       FIXPVA
        195        60       FIXPVA
        196        60       FIXPVA
        197        60       FIXPVA
        198        60       FIXPVA
        199        60       FIXPVA
        200        60       FIXPVA
        201        60       FIXPVA
        202        60       FIXPVA
        203        60       FIXPVA
        204        60       FIXPVA
        205        60       FIXPVA
        206        60       FIXPVA
        207        60       FIXPVA
        208        60       FIXPVA
        209        60       FIXPVA
        210        60       FIXPVA
        211        60       FIXPVA
        212        60       FIXPVA
        213        60       FIXPVA
        214        60       FIXPVA
        215        60       FIXPVA
        216        60       FIXPVA
        217        60       FIXPVA
        218        60       FIXPVA
        219        60       FIXPVA
        220        60       FIXPVA
        221        60       FIXPVA
        222        60       FIXPVA
        223        60       FIXPVA
        224        60       FIXPVA
        225        60       FIXPVA
        226        60       FIXPVA
        227        60       FIXPVA
        228        60       FIXPVA
        229        60       FIXPVA
        230        60       FIXPVA
        231        60       FIXPVA
        232        60       FIXPVA
        233        60       FIXPVA
        234        60       FIXPVA
        235        60       FIXPVA
        236        60       FIXPVA
        237        60       FIXPVA
        238        60       FIXPVA
        239        60       FIXPVA
        240        60       FIXPVA
        241        60       FIXPVA
        242        60       FIXPVA
        243        60       FIXPVA
        244        60       FIXPVA
        245        60       FIXPVA
        246        60       FIXPVA
        247        60       FIXPVA
        248        60       FIXPVA
        249        60       FIXPVA
        250        60       FIXPVA
        251        60       FIXPVA
        252        60       FIXPVA
        253        60       FIXPVA
        254        60       FIXPVA
        255        60       FIXPVA
        256        60       FIXPVA
        257        60       FIXPVA
        258        60       FIXPVA
        259        60       FIXPVA
        260        60       FIXPVA
        261        60       FIXPVA
        262        60       FIXPVA
        263        60       FIXPVA
        264        60       FIXPVA
        265        60       FIXPVA
        266        60       FIXPVA
        267        60       FIXPVA
        268        60       FIXPVA
        269        60       FIXPVA
        270        60       FIXPVA
        271        60       FIXPVA
        272        60       FIXPVA
        273        60       FIXPVA
        274        60       FIXPVA
        275        60       FIXPVA
        276        60       FIXPVA
        277        60       FIXPVA
        278        60       FIXPVA
        279        60       FIXPVA
        280        60       FIXPVA
        281        60       FIXPVA
        282        60       FIXPVA
        283        60       FIXPVA
        284        60       FIXPVA
        285        60       FIXPVA
        286        60       FIXPVA
        287        60       FIXPVA
        288        60       FIXPVA
        289        60       FIXPVA
        290        60       FIXPVA
        291        60       FIXPVA
        292        60       FIXPVA
        293        60       FIXPVA
        294        60       FIXPVA
        295        60       FIXPVA
        296        60       FIXPVA
        297        60       FIXPVA
        298        60       FIXPVA
        299        60       FIXPVA
        300        60       FIXPVA
        301        60       FIXPVA
        302        60       FIXPVA
        303        60       FIXPVA
        304        60       FIXPVA
        305        60       FIXPVA
        306        60       FIXPVA
        307        60       FIXPVA
        308        60       FIXPVA
        309        60       FIXPVA
        310        60       FIXPVA
        311        60       FIXPVA
        312        60       FIXPVA
        313        60       FIXPVA
        314        60       FIXPVA
        315        60       FIXPVA
        316        60       FIXPVA
        317        60       FIXPVA
        318        60       FIXPVA
        319        60       FIXPVA
        320        60       FIXPVA
        321        60       FIXPVA
        322        60       FIXPVA
        323        60       FIXPVA
        324        60       FIXPVA

     ------------------------------
      FIXPVA TESSELLATION FOR PCM
         PEIFENG SU AND HUI LI
     UNIVERSITY OF NEBRASKA-LINCOLN
     ------------------------------


 PCM DIMENSIONS: MXSP=   324, MXTS=     12960, MEMORY=        133167

     INPUT FOR CAVITY DEFINITION 
     ---------------------------
   ATOM               COORDINATES                RADIUS       EPS
      1     -5.5480     10.6250     -7.2680      0.0100     78.3900
      2     -4.6140     10.6260     -7.5500      1.5900     78.3900
      3     -4.5850     11.1390     -8.8930      1.7700     78.3900
      4     -5.0180     12.1640     -8.9060      0.0100     78.3900
      5     -5.2170     10.5020     -9.5490      0.0100     78.3900
      6     -3.1780     11.1910     -9.4960      1.7700     78.3900
      7     -3.2140     11.5470    -10.5460      0.0100     78.3900
      8     -2.3450     12.1300     -8.7540      1.5900     78.3900
      9     -1.0300     11.6000     -8.6480      1.7700     78.3900
     10     -0.3500     12.3750     -9.0730      0.0100     78.3900
     11     -0.6260     11.3280     -7.2420      1.6800     78.3900
     12     -1.5800     11.2180     -6.2560      1.7700     78.3900
     13     -2.6180     11.3470     -6.5690      0.0100     78.3900
     14     -1.2420     10.9970     -4.9800      1.7700     78.3900
     15     -1.9850     10.9360     -4.1870      0.0100     78.3900
     16      0.7180     11.1560     -6.9200      1.7700     78.3900
     17      1.5700     11.2130     -7.8190      1.5900     78.3900
     18      1.0790     10.9490     -5.6350      1.6800     78.3900
     19      0.1410     10.8790     -4.6730      1.7700     78.3900
     20      0.5250     10.7050     -3.4100      1.6800     78.3900
     21      1.4960     10.5670     -3.1990      0.0100     78.3900
     22     -0.1350     10.6880     -2.6550      0.0100     78.3900
     23     -0.9690     10.3630     -9.5200      1.7700     78.3900
     24     -0.2630      9.6040     -9.1330      0.0100     78.3900
     25     -0.6100     10.7250    -10.8380      1.5900     78.3900
     26     -0.6240      9.9100    -11.3550      0.0100     78.3900
     27     -2.4060      9.8620     -9.4580      1.7700     78.3900
     28     -2.6100      9.3980     -8.4650      0.0100     78.3900
     29     -2.8090      9.0220    -10.5670      1.5900     78.3900
     30     -2.6110      7.4600    -10.4620      2.1000     78.3900
     31     -3.1510      6.9770     -9.1700      1.5900     78.3900
     32     -3.1650      6.8310    -11.6830      1.5900     78.3900
     33     -1.0490      7.2730    -10.4330      1.5900     78.3900
     34     -0.2420      7.5150    -11.6100      1.7700     78.3900
     35     -0.4530      8.5070    -12.0680      0.0100     78.3900
     36     -0.4590      6.7490    -12.3880      0.0100     78.3900
     37      1.2570      7.4260    -11.2910      1.7700     78.3900
     38      1.8690      7.6790    -12.1860      0.0100     78.3900
     39      1.6070      8.3700    -10.2430      1.5900     78.3900
     40      2.5890      7.7940     -9.4010      1.7700     78.3900
     41      3.4630      8.4860     -9.4020      0.0100     78.3900
     42      2.0920      7.6460     -8.0310      1.6800     78.3900
     43      1.9900      7.4020     -5.8520      1.7700     78.3900
     44      0.6740      7.5120     -6.2870      1.6800     78.3900
     45      0.7890      7.6500     -7.5870      1.7700     78.3900
     46     -0.0430      7.7700     -8.2830      0.0100     78.3900
     47      3.9140      7.1370     -4.4980      1.6800     78.3900
     48      4.6240      7.1760     -5.6260      1.7700     78.3900
     49      5.7080      7.0790     -5.5010      0.0100     78.3900
     50      4.2060      7.3860     -6.8740      1.6800     78.3900
     51      2.8680      7.4690     -6.9200      1.7700     78.3900
     52      2.5610      7.2510     -4.5720      1.7700     78.3900
     53      1.8560      7.2310     -3.4290      1.6800     78.3900
     54      0.8540      7.2940     -3.4030      0.0100     78.3900
     55      2.3630      7.1140     -2.5730      0.0100     78.3900
     56      2.9920      6.4670    -10.0030      1.7700     78.3900
     57      3.2570      5.7100     -9.2300      0.0100     78.3900
     58      4.0790      6.6400    -10.8960      1.5900     78.3900
     59      4.2450      5.7700    -11.2920      0.0100     78.3900
     60      1.7230      6.0660    -10.7510      1.7700     78.3900
     61      0.9410      5.7170    -10.0380      0.0100     78.3900
     62      1.9110      5.1410    -11.8450      1.5900     78.3900
     63      2.1630      3.6190    -11.5190      2.1000     78.3900
     64      1.0500      3.1560    -10.6560      1.5900     78.3900
     65      2.3760      2.9060    -12.7950      1.5900     78.3900
     66      3.5180      3.6000    -10.7130      1.5900     78.3900
     67      3.7830      2.5160     -9.7940      1.7700     78.3900
     68      3.8980      1.5570    -10.3500      0.0100     78.3900
     69      2.9430      2.3780     -9.0770      0.0100     78.3900
     70      5.0750      2.7460     -8.9840      1.7700     78.3900
     71      5.9490      2.8470     -9.6600      0.0100     78.3900
     72      5.0100      3.9640     -8.1800      1.5900     78.3900
     73      5.5090      3.6920     -6.8710      1.7700     78.3900
     74      6.2630      4.4870     -6.6730      0.0100     78.3900
     75      4.4730      3.7520     -5.8140      1.6800     78.3900
     76      3.0980      3.7600     -5.9250      1.7700     78.3900
     77      0.2900      3.6250     -7.9370      1.6800     78.3900
     78     -0.7020      3.5530     -7.8450      0.0100     78.3900
     79      0.7070      3.5170     -8.8460      0.0100     78.3900
     80      2.3940      3.7320     -7.0660      1.6800     78.3900
     81      1.0960      3.6980     -6.8900      1.7700     78.3900
     82      0.5160      3.7350     -5.6510      1.6800     78.3900
     83     -0.4890      3.7170     -5.5980      0.0100     78.3900
     84      1.2000      3.7980     -4.4370      1.7700     78.3900
     85      0.5740      3.8440     -3.3720      1.5900     78.3900
     86      2.6170      3.7980     -4.6330      1.7700     78.3900
     87      3.6710      3.8260     -3.7180      1.6800     78.3900
     88      4.7460      3.8130     -4.4690      1.7700     78.3900
     89      5.7750      3.8630     -4.1010      0.0100     78.3900
     90      6.1950      2.3390     -6.9250      1.7700     78.3900
     91      6.1600      1.7960     -5.9550      0.0100     78.3900
     92      7.5420      2.4990     -7.3370      1.5900     78.3900
     93      7.8960      1.6210     -7.5470      0.0100     78.3900
     94      5.3530      1.6230     -7.9750      1.7700     78.3900
     95      4.3640      1.3480     -7.5420      0.0100     78.3900
     96      5.9960      0.5230     -8.6470      1.5900     78.3900
     97      6.0070     -0.9430     -8.0720      2.1000     78.3900
     98      5.7400     -1.8560     -9.2050      1.5900     78.3900
     99      7.2910     -1.1530     -7.3700      1.5900     78.3900
    100      4.7950     -1.0390     -7.0640      1.5900     78.3900
    101      4.7010     -2.1870     -6.1780      1.7700     78.3900
    102      4.9440     -3.1430     -6.6940      0.0100     78.3900
    103      3.6400     -2.2880     -5.8510      0.0100     78.3900
    104      5.5700     -2.0630     -4.9110      1.7700     78.3900
    105      6.6390     -2.2600     -5.1440      0.0100     78.3900
    106      5.5030     -0.7070     -4.3850      1.5900     78.3900
    107      5.5100     -0.7460     -2.9710      1.7700     78.3900
    108      6.3540     -0.1030     -2.6360      0.0100     78.3900
    109      4.2560     -0.2100     -2.4240      1.6800     78.3900
    110      3.9860      0.0520     -1.1090      1.7700     78.3900
    111      4.9600      0.0750      2.2160      1.6800     78.3900
    112      5.8810     -0.3100      2.1790      0.0100     78.3900
    113      4.5570      0.3150      3.1040      0.0100     78.3900
    114      4.8230     -0.1510     -0.0760      1.6800     78.3900
    115      4.2950      0.2240      1.0860      1.7700     78.3900
    116      3.0480      0.7800      1.1940      1.6800     78.3900
    117      2.7200      1.0440      2.1110      0.0100     78.3900
    118      2.1660      1.0130      0.1480      1.7700     78.3900
    119      1.0620      1.5220      0.3580      1.5900     78.3900
    120      2.7080      0.5780     -1.0910      1.7700     78.3900
    121      2.1720      0.6180     -2.3700      1.6800     78.3900
    122      3.1320      0.1550     -3.1320      1.7700     78.3900
    123      3.0870      0.0470     -4.2190      0.0100     78.3900
    124      5.7700     -2.1820     -2.5530      1.7700     78.3900
    125      5.2750     -2.4470     -1.5950      0.0100     78.3900
    126      7.1660     -2.4190     -2.4470      1.5900     78.3900
    127      7.2830     -3.3750     -2.3670      0.0100     78.3900
    128      5.1550     -2.9410     -3.7190      1.7700     78.3900
    129      4.0420     -2.8860     -3.6620      0.0100     78.3900
    130      5.6630     -4.2790     -3.8820      1.5900     78.3900
    131      4.7600     -5.5250     -3.5670      2.1000     78.3900
    132      3.3750     -5.2350     -3.9930      1.5900     78.3900
    133      5.3980     -6.7390     -4.1250      1.5900     78.3900
    134      4.8050     -5.5950     -1.9950      1.5900     78.3900
    135      6.0100     -6.0520     -1.3370      1.7700     78.3900
    136      6.8850     -5.4320     -1.6370      0.0100     78.3900
    137      6.2330     -7.1120     -1.6070      0.0100     78.3900
    138      5.8840     -5.9780      0.1920      1.7700     78.3900
    139      6.7940     -6.3810      0.6870      0.0100     78.3900
    140      5.7460     -4.5900      0.6150      1.5900     78.3900
    141      4.8010     -4.5170      1.6760      1.7700     78.3900
    142      5.3320     -4.0150      2.5170      0.0100     78.3900
    143      3.6000     -3.7120      1.3200      1.6800     78.3900
    144      3.2860     -3.4820     -0.0010      1.7700     78.3900
    145      3.9750     -3.8960     -0.7360      0.0100     78.3900
    146      2.2140     -2.7630     -0.3500      1.7700     78.3900
    147      1.9620     -2.5550     -1.3880      0.0100     78.3900
    148      2.7730     -3.2130      2.3210      1.7700     78.3900
    149      3.0440     -3.4500      3.5070      1.5900     78.3900
    150      1.6880     -2.4770      1.9870      1.6800     78.3900
    151      1.3960     -2.2520      0.6950      1.7700     78.3900
    152      0.3310     -1.5190      0.3960      1.6800     78.3900
    153     -0.2300     -1.1340      1.1330      0.0100     78.3900
    154      0.1000     -1.2790     -0.5490      0.0100     78.3900
    155      4.4560     -5.9400      2.0900      1.7700     78.3900
    156      3.4060     -6.0260      2.4420      0.0100     78.3900
    157      5.3510     -6.3780      3.1010      1.5900     78.3900
    158      5.2350     -7.3360      3.2210      0.0100     78.3900
    159      4.6560     -6.6910      0.7780      1.7700     78.3900
    160      3.7960     -6.5160      0.0960      0.0100     78.3900
    161      4.9090     -8.0990      0.9320      1.5900     78.3900
    162      4.1170     -8.5450      1.2810      0.0100     78.3900
    163     -5.6540      3.2160      8.4630      0.0100     78.3900
    164     -4.7990      2.7450      8.4590      1.5900     78.3900
    165     -4.6210      2.2060      9.7780      1.7700     78.3900
    166     -5.5130      1.5970     10.0490      0.0100     78.3900
    167     -4.5400      3.0430     10.5090      0.0100     78.3900
    168     -3.3750      1.3230      9.9040      1.7700     78.3900
    169     -3.2460      0.9650     10.9460      0.0100     78.3900
    170     -3.5150      0.1460      9.0580      1.5900     78.3900
    171     -2.2540     -0.1760      8.4980      1.7700     78.3900
    172     -2.0340     -1.2320      8.7830      0.0100     78.3900
    173     -2.2680     -0.0620      7.0360      1.6800     78.3900
    174     -1.3590     -0.6230      6.1810      1.7700     78.3900
    175      1.5280     -2.4560      5.6300      1.6800     78.3900
    176      1.8160     -2.7080      6.5520      0.0100     78.3900
    177      2.0610     -2.7840      4.8460      0.0100     78.3900
    178     -0.2920     -1.3640      6.5340      1.6800     78.3900
    179      0.4210     -1.7530      5.4790      1.7700     78.3900
    180      0.0530     -1.4860      4.1860      1.6800     78.3900
    181      0.6290     -1.8490      3.4430      0.0100     78.3900
    182     -1.0550     -0.7480      3.7930      1.7700     78.3900
    183     -1.3150     -0.5580      2.6010      1.5900     78.3900
    184     -1.7850     -0.2740      4.9130      1.7700     78.3900
    185     -2.9210      0.5240      4.9710      1.6800     78.3900
    186     -3.1750      0.6240      6.2560      1.7700     78.3900
    187     -4.0140      1.1650      6.7010      0.0100     78.3900
    188     -1.2270      0.7370      9.1290      1.7700     78.3900
    189     -0.3890      0.9760      8.4420      0.0100     78.3900
    190     -0.7180      0.1400     10.3030      1.5900     78.3900
    191     -0.2510      0.8340     10.7850      0.0100     78.3900
    192     -2.0600      1.9750      9.4510      1.7700     78.3900
    193     -2.2910      2.5410      8.5180      0.0100     78.3900
    194     -1.5330      2.8220     10.5070      1.5900     78.3900
    195     -0.5340      3.9790     10.1100      2.1000     78.3900
    196     -1.1430      4.7910      9.0360      1.5900     78.3900
    197     -0.1320      4.7040     11.3360      1.5900     78.3900
    198      0.7060      3.2220      9.5050      1.5900     78.3900
    199      1.6480      2.5230     10.3490      1.7700     78.3900
    200      1.1560      1.7100     10.9240      0.0100     78.3900
    201      2.1070      3.2140     11.0930      0.0100     78.3900
    202      2.7930      1.9090      9.5320      1.7700     78.3900
    203      3.5050      1.3850     10.2060      0.0100     78.3900
    204      2.3010      0.9100      8.5880      1.5900     78.3900
    205      3.0780      0.9880      7.3910      1.7700     78.3900
    206      3.4900     -0.0350      7.2340      0.0100     78.3900
    207      2.2780      1.3700      6.1890      1.6800     78.3900
    208      1.0750      2.0170      6.3440      1.7700     78.3900
    209      0.7670      2.2110      7.3720      0.0100     78.3900
    210      0.3290      2.3700      5.2900      1.7700     78.3900
    211     -0.6400      2.8540      5.4010      0.0100     78.3900
    212      2.7590      1.1110      4.9050      1.7700     78.3900
    213      3.8570      0.5500      4.7690      1.5900     78.3900
    214      2.0210      1.4670      3.8280      1.6800     78.3900
    215      0.8350      2.0800      3.9900      1.7700     78.3900
    216      0.1170      2.4030      2.9160      1.6800     78.3900
    217      0.4490      2.1520      2.0030      0.0100     78.3900
    218     -0.7950      2.8060      2.9990      0.0100     78.3900
    219      4.2240      1.9540      7.6580      1.7700     78.3900
    220      4.5350      2.5070      6.7470      0.0100     78.3900
    221      5.3320      1.2620      8.2100      1.5900     78.3900
    222      5.9610      1.9410      8.4920      0.0100     78.3900
    223      3.5890      2.8990      8.6760      1.7700     78.3900
    224      2.8500      3.5680      8.1810      0.0100     78.3900
    225      4.4930      3.6390      9.5180      1.5900     78.3900
    226      5.4060      4.7900      8.9670      2.1000     78.3900
    227      5.3870      5.9000      9.9450      1.5900     78.3900
    228      6.7310      4.2130      8.6660      1.5900     78.3900
    229      4.7200      5.2800      7.6300      1.5900     78.3900
    230      5.4960      6.0750      6.6960      1.7700     78.3900
    231      6.0890      6.8660      7.2110      0.0100     78.3900
    232      4.7800      6.6100      6.0310      0.0100     78.3900
    233      6.4400      5.2540      5.7920      1.7700     78.3900
    234      7.3010      4.8530      6.3650      0.0100     78.3900
    235      5.7310      4.1170      5.2240      1.5900     78.3900
    236      6.0960      3.9580      3.8630      1.7700     78.3900
    237      6.4300      2.9020      3.7440      0.0100     78.3900
    238      4.9510      4.1990      2.9760      1.6800     78.3900
    239      4.8890      3.9540      1.6300      1.7700     78.3900
    240      6.3840      2.8540     -1.2950      1.6800     78.3900
    241      6.1470      2.6550     -2.2380      0.0100     78.3900
    242      7.2860      2.5890     -0.9560      0.0100     78.3900
    243      5.8760      3.4590      0.8670      1.6800     78.3900
    244      5.5190      3.3160     -0.4070      1.7700     78.3900
    245      4.2620      3.6140     -0.8670      1.6800     78.3900
    246      4.0500      3.5220     -1.8510      0.0100     78.3900
    247      3.2250      4.1280     -0.0980      1.7700     78.3900
    248      2.1170      4.3920     -0.5670      1.5900     78.3900
    249      3.6100      4.3090      1.2520      1.7700     78.3900
    250      2.8810      4.7890      2.3340      1.6800     78.3900
    251      3.7160      4.6940      3.3410      1.7700     78.3900
    252      3.4970      4.9760      4.3760      0.0100     78.3900
    253      7.2560      4.8900      3.5900      1.7700     78.3900
    254      7.2800      5.2590      2.5420      0.0100     78.3900
    255      8.4740      4.2330      3.8890      1.5900     78.3900
    256      9.1670      4.9060      3.8810      0.0100     78.3900
    257      6.9800      6.0230      4.5730      1.7700     78.3900
    258      6.1430      6.6600      4.2040      0.0100     78.3900
    259      8.1450      6.7880      4.9500      1.5900     78.3900
    260      8.5160      8.0900      4.1500      2.1000     78.3900
    261      7.3180      8.9540      4.1410      1.5900     78.3900
    262      9.7500      8.6660      4.7270      1.5900     78.3900
    263      8.8080      7.5800      2.6900      1.5900     78.3900
    264     10.0800      6.9720      2.3600      1.7700     78.3900
    265     10.1870      5.9870      2.8680      0.0100     78.3900
    266     10.9290      7.6170      2.6870      0.0100     78.3900
    267     10.2370      6.7400      0.8450      1.7700     78.3900
    268     11.2470      6.3180      0.6270      0.0100     78.3900
    269      9.2480      5.7730      0.3740      1.5900     78.3900
    270      8.7970      6.1590     -0.9230      1.7700     78.3900
    271      8.9860      5.2800     -1.5790      0.0100     78.3900
    272      7.3460      6.5030     -0.9390      1.6800     78.3900
    273      6.7070      6.9140      0.2100      1.7700     78.3900
    274      7.3310      6.9330      1.1000      0.0100     78.3900
    275      6.6620      6.4330     -2.1340      1.7700     78.3900
    276      7.1960      6.0930     -3.1850      1.5900     78.3900
    277      5.3310      6.7490     -2.0560      1.6800     78.3900
    278      4.8200      6.7730     -2.9330      0.0100     78.3900
    279      4.6300      7.1740     -0.9520      1.7700     78.3900
    280      3.4340      7.4340     -1.0440      1.5900     78.3900
    281      5.4040      7.2300      0.2490      1.7700     78.3900
    282      4.9060      7.5220      1.1720      0.0100     78.3900
    283      9.6710      7.3170     -1.3800      1.7700     78.3900
    284      9.1240      8.0250     -2.0340      0.0100     78.3900
    285     10.8100      6.8370     -2.0680      1.5900     78.3900
    286     11.3930      7.5940     -2.2060      0.0100     78.3900
    287     10.0430      7.9660     -0.0520      1.7700     78.3900
    288      9.1670      8.5160      0.3630      0.0100     78.3900
    289     11.2580      8.7500     -0.0820      1.5900     78.3900
    290     11.1620     10.3170     -0.1170      2.1000     78.3900
    291     10.0900     10.7700      0.7950      1.5900     78.3900
    292     12.5090     10.8890      0.1040      1.5900     78.3900
    293     10.7320     10.6250     -1.6010      1.5900     78.3900
    294     11.7000     10.3910     -2.6550      1.7700     78.3900
    295     12.0690      9.3390     -2.6470      0.0100     78.3900
    296     12.5850     11.0610     -2.5400      0.0100     78.3900
    297     11.0730     10.6580     -4.0260      1.7700     78.3900
    298     11.8290     10.5640     -4.8350      0.0100     78.3900
    299     10.0420      9.6610     -4.2880      1.5900     78.3900
    300      8.9580     10.2870     -4.9610      1.7700     78.3900
    301      8.7940      9.7100     -5.9010      0.0100     78.3900
    302      7.7280     10.2450     -4.1610      1.6800     78.3900
    303      6.4560     10.3950     -4.6400      1.7700     78.3900
    304      4.2880     10.9430     -7.2860      1.6800     78.3900
    305      4.9140     11.0580     -8.0530      0.0100     78.3900
    306      3.3020     11.0450     -7.4390      0.0100     78.3900
    307      6.1200     10.6330     -5.9200      1.6800     78.3900
    308      4.8000     10.7100     -6.0890      1.7700     78.3900
    309      3.9050     10.6030     -5.0560      1.6800     78.3900
    310      2.9240     10.7030     -5.2660      0.0100     78.3900
    311      4.2250     10.3840     -3.7210      1.7700     78.3900
    312      3.3520     10.3160     -2.8500      1.5900     78.3900
    313      5.6290     10.2800     -3.5370      1.7700     78.3900
    314      6.3720     10.0700     -2.3800      1.6800     78.3900
    315      7.6150     10.0650     -2.8010      1.7700     78.3900
    316      8.4960      9.9450     -2.1690      0.0100     78.3900
    317      9.3730     11.7080     -5.3010      1.7700     78.3900
    318      8.5120     12.4100     -5.2730      0.0100     78.3900
    319      9.9830     11.7370     -6.5830      1.5900     78.3900
    320     10.3830     12.6130     -6.7170      0.0100     78.3900
    321     10.3610     12.0120     -4.1770      1.7700     78.3900
    322      9.8120     12.2480     -3.2370      0.0100     78.3900
    323     11.3130     13.0450     -4.4890      1.5900     78.3900
    324     10.8650     13.9120     -4.5310      0.0100     78.3900

 CREATION OF A NEW CAVITY WITH THE ORIGINAL SPHERE
 SIZES FOR THE COMPUTATION OF THE CAVITATION ENERGY.

     INPUT FOR CAVITY DEFINITION 
     ---------------------------
   ATOM               COORDINATES                RADIUS       EPS
      1     -5.5480     10.6250     -7.2680      0.0100     78.3900
      2     -4.6140     10.6260     -7.5500      1.5900     78.3900
      3     -4.5850     11.1390     -8.8930      1.7700     78.3900
      4     -5.0180     12.1640     -8.9060      0.0100     78.3900
      5     -5.2170     10.5020     -9.5490      0.0100     78.3900
      6     -3.1780     11.1910     -9.4960      1.7700     78.3900
      7     -3.2140     11.5470    -10.5460      0.0100     78.3900
      8     -2.3450     12.1300     -8.7540      1.5900     78.3900
      9     -1.0300     11.6000     -8.6480      1.7700     78.3900
     10     -0.3500     12.3750     -9.0730      0.0100     78.3900
     11     -0.6260     11.3280     -7.2420      1.6800     78.3900
     12     -1.5800     11.2180     -6.2560      1.7700     78.3900
     13     -2.6180     11.3470     -6.5690      0.0100     78.3900
     14     -1.2420     10.9970     -4.9800      1.7700     78.3900
     15     -1.9850     10.9360     -4.1870      0.0100     78.3900
     16      0.7180     11.1560     -6.9200      1.7700     78.3900
     17      1.5700     11.2130     -7.8190      1.5900     78.3900
     18      1.0790     10.9490     -5.6350      1.6800     78.3900
     19      0.1410     10.8790     -4.6730      1.7700     78.3900
     20      0.5250     10.7050     -3.4100      1.6800     78.3900
     21      1.4960     10.5670     -3.1990      0.0100     78.3900
     22     -0.1350     10.6880     -2.6550      0.0100     78.3900
     23     -0.9690     10.3630     -9.5200      1.7700     78.3900
     24     -0.2630      9.6040     -9.1330      0.0100     78.3900
     25     -0.6100     10.7250    -10.8380      1.5900     78.3900
     26     -0.6240      9.9100    -11.3550      0.0100     78.3900
     27     -2.4060      9.8620     -9.4580      1.7700     78.3900
     28     -2.6100      9.3980     -8.4650      0.0100     78.3900
     29     -2.8090      9.0220    -10.5670      1.5900     78.3900
     30     -2.6110      7.4600    -10.4620      2.1000     78.3900
     31     -3.1510      6.9770     -9.1700      1.5900     78.3900
     32     -3.1650      6.8310    -11.6830      1.5900     78.3900
     33     -1.0490      7.2730    -10.4330      1.5900     78.3900
     34     -0.2420      7.5150    -11.6100      1.7700     78.3900
     35     -0.4530      8.5070    -12.0680      0.0100     78.3900
     36     -0.4590      6.7490    -12.3880      0.0100     78.3900
     37      1.2570      7.4260    -11.2910      1.7700     78.3900
     38      1.8690      7.6790    -12.1860      0.0100     78.3900
     39      1.6070      8.3700    -10.2430      1.5900     78.3900
[...]

          -----------------
          DENSITY CONVERGED
          -----------------
     TIME TO FORM FOCK OPERATORS=      18.3 SECONDS (       1.8 SEC/ITER)
     FOCK TIME ON FIRST ITERATION=       3.5, LAST ITERATION=       1.1
     TIME TO SOLVE SCF EQUATIONS=       0.4 SECONDS (       0.0 SEC/ITER)

 FINAL RHF ENERGY IS    -1465.9823977092 AFTER  10 ITERATIONS
 ...... END OF RHF CALCULATION ......
 CPU     0: STEP CPU TIME=    38.10 TOTAL CPU TIME=       2370.4 (     39.5 MIN)
 TOTAL WALL CLOCK TIME=       4989.0 SECONDS, CPU UTILIZATION IS    47.51%
 DONE PCM POT.
 CPU     0: STEP CPU TIME=     0.39 TOTAL CPU TIME=       2370.8 (     39.5 MIN)
 TOTAL WALL CLOCK TIME=       4990.1 SECONDS, CPU UTILIZATION IS    47.51%

 Iter=  6 iFrag=      4 EFMO= -1507.438331739, DD= 0.001174296, DE=-0.002637185


 RHF      monomer      2 corr= NONE       , L1=   371, L0=   348 ID=      5


 AO spaces for     2     0     0 n-mer: L1=   371, L0=   348

 DIRECT SCF CALCULATION, SCHWRZ=T   FDIFF=T,  DIRTHR=  0.00E+00 NITDIR=10

                                                                                   NONZERO     BLOCKS
 ITER EX DEM     TOTAL ENERGY        E CHANGE  DENSITY CHANGE     ORB. GRAD      INTEGRALS    SKIPPED
   1  0  0    -1392.4782582969 -1392.4782582969   0.000496995   0.000000000      820265748   14922856
          ---------------START SECOND ORDER SCF---------------
   2  1  0    -1392.4782462677     0.0000120292   0.000107164   0.000045750      642640456   17386806
   3  2  0    -1392.4782474001    -0.0000011324   0.000070427   0.000020484      609530684   17675248
   4  3  0    -1392.4782456057     0.0000017944   0.000017812   0.000009101      574354420   17997716
   5  4  0    -1392.4782457096    -0.0000001038   0.000004886   0.000002390      535505763   18323804
   6  5  0    -1392.4782458219    -0.0000001123   0.000001648   0.000000502      485844503   18723677
   7  6  0    -1392.4782458170     0.0000000048   0.000000877   0.000000260      442272871   19085429
   8  7  0    -1392.4782458112     0.0000000058   0.000000369   0.000000121      404461053   19402809
   9  8  0    -1392.4782458139    -0.0000000027   0.000000197   0.000000051      378405239   19619592

          -----------------
          DENSITY CONVERGED
          -----------------
     TIME TO FORM FOCK OPERATORS=      16.8 SECONDS (       1.9 SEC/ITER)
     FOCK TIME ON FIRST ITERATION=       3.7, LAST ITERATION=       1.1
     TIME TO SOLVE SCF EQUATIONS=       0.3 SECONDS (       0.0 SEC/ITER)

 FINAL RHF ENERGY IS    -1392.4782458139 AFTER   9 ITERATIONS
 ...... END OF RHF CALCULATION ......
 CPU     0: STEP CPU TIME=    37.60 TOTAL CPU TIME=       2408.4 (     40.1 MIN)
 TOTAL WALL CLOCK TIME=       5074.2 SECONDS, CPU UTILIZATION IS    47.46%
 DONE PCM POT.
 CPU     0: STEP CPU TIME=     0.38 TOTAL CPU TIME=       2408.8 (     40.1 MIN)
 TOTAL WALL CLOCK TIME=       5075.3 SECONDS, CPU UTILIZATION IS    47.46%

 Iter=  6 iFrag=      2 EFMO= -1432.596064289, DD= 0.000611364, DE=-0.001614256


 RHF      monomer      1 corr= NONE       , L1=   358, L0=   336 ID=      6


 AO spaces for     1     0     0 n-mer: L1=   358, L0=   336

 DIRECT SCF CALCULATION, SCHWRZ=T   FDIFF=T,  DIRTHR=  0.00E+00 NITDIR=10

                                                                                   NONZERO     BLOCKS
 ITER EX DEM     TOTAL ENERGY        E CHANGE  DENSITY CHANGE     ORB. GRAD      INTEGRALS    SKIPPED
   1  0  0    -1412.4962304302 -1412.4962304302   0.000877284   0.000000000      772459754   13343733
          ---------------START SECOND ORDER SCF---------------
   2  1  0    -1412.4962021700     0.0000282602   0.000146273   0.000046318      589102850   15940743
   3  2  0    -1412.4962046905    -0.0000025205   0.000100299   0.000014732      559725561   16200185
   4  3  0    -1412.4962014805     0.0000032099   0.000030430   0.000007541      523472513   16536984
   5  4  0    -1412.4962021505    -0.0000006700   0.000007387   0.000002075      476367717   16965006
   6  5  0    -1412.4962023325    -0.0000001820   0.000002744   0.000000520      432766424   17362183
   7  6  0    -1412.4962023119     0.0000000207   0.000000797   0.000000143      403385085   17610093
   8  7  0    -1412.4962023228    -0.0000000109   0.000000222   0.000000132      367510066   17924183
   9  8  0    -1412.4962023328    -0.0000000100   0.000000081   0.000000024      330692962   18255702
  10  9  0    -1412.4962023327     0.0000000001   0.000000031   0.000000021      290762134   18574111

          -----------------
          DENSITY CONVERGED
          -----------------
     TIME TO FORM FOCK OPERATORS=      15.8 SECONDS (       1.6 SEC/ITER)
     FOCK TIME ON FIRST ITERATION=       2.6, LAST ITERATION=       0.9
     TIME TO SOLVE SCF EQUATIONS=       0.3 SECONDS (       0.0 SEC/ITER)

 FINAL RHF ENERGY IS    -1412.4962023327 AFTER  10 ITERATIONS
 ...... END OF RHF CALCULATION ......
 CPU     0: STEP CPU TIME=    36.21 TOTAL CPU TIME=       2445.0 (     40.7 MIN)
 TOTAL WALL CLOCK TIME=       5147.4 SECONDS, CPU UTILIZATION IS    47.50%
 DONE PCM POT.
 CPU     0: STEP CPU TIME=     0.35 TOTAL CPU TIME=       2445.3 (     40.8 MIN)
 TOTAL WALL CLOCK TIME=       5148.4 SECONDS, CPU UTILIZATION IS    47.50%

 Iter=  6 iFrag=      1 EFMO= -1450.867306564, DD= 0.001075321, DE=-0.003125190


 RHF      monomer      7 corr= NONE       , L1=   341, L0=   320 ID=      7


 AO spaces for     7     0     0 n-mer: L1=   341, L0=   320

 DIRECT SCF CALCULATION, SCHWRZ=T   FDIFF=T,  DIRTHR=  0.00E+00 NITDIR=10

                                                                                   NONZERO     BLOCKS
 ITER EX DEM     TOTAL ENERGY        E CHANGE  DENSITY CHANGE     ORB. GRAD      INTEGRALS    SKIPPED
   1  0  0    -1325.3559111554 -1325.3559111554   0.000404903   0.000000000      660551610   10612760
          ---------------START SECOND ORDER SCF---------------
   2  1  0    -1325.3559025161     0.0000086392   0.000105310   0.000031207      498307948   12694258
   3  2  0    -1325.3559048187    -0.0000023026   0.000049021   0.000011064      473138886   12922222
   4  3  0    -1325.3559040211     0.0000007976   0.000009945   0.000002583      438766065   13228040
   5  4  0    -1325.3559040989    -0.0000000778   0.000003066   0.000001068      399137589   13586754
   6  5  0    -1325.3559041578    -0.0000000588   0.000000858   0.000000354      364280989   13873355
   7  6  0    -1325.3559041687    -0.0000000109   0.000000327   0.000000174      333655564   14150954
   8  7  0    -1325.3559041758    -0.0000000071   0.000000106   0.000000093      301628897   14430400
   9  8  0    -1325.3559041789    -0.0000000030   0.000000041   0.000000026      272683675   14681447

          -----------------
          DENSITY CONVERGED
          -----------------
     TIME TO FORM FOCK OPERATORS=      11.9 SECONDS (       1.3 SEC/ITER)
     FOCK TIME ON FIRST ITERATION=       2.2, LAST ITERATION=       0.8
     TIME TO SOLVE SCF EQUATIONS=       0.3 SECONDS (       0.0 SEC/ITER)

 FINAL RHF ENERGY IS    -1325.3559041789 AFTER   9 ITERATIONS
 ...... END OF RHF CALCULATION ......
 CPU     0: STEP CPU TIME=    30.17 TOTAL CPU TIME=       2475.5 (     41.3 MIN)
 TOTAL WALL CLOCK TIME=       5210.8 SECONDS, CPU UTILIZATION IS    47.51%
 DONE PCM POT.
 CPU     0: STEP CPU TIME=     0.32 TOTAL CPU TIME=       2475.8 (     41.3 MIN)
 TOTAL WALL CLOCK TIME=       5211.8 SECONDS, CPU UTILIZATION IS    47.50%

 Iter=  6 iFrag=      7 EFMO= -1360.674587404, DD= 0.000422188, DE=-0.001441104


 RHF      monomer      9 corr= NONE       , L1=   339, L0=   318 ID=      8


 AO spaces for     9     0     0 n-mer: L1=   339, L0=   318

 DIRECT SCF CALCULATION, SCHWRZ=T   FDIFF=T,  DIRTHR=  0.00E+00 NITDIR=10

                                                                                   NONZERO     BLOCKS
 ITER EX DEM     TOTAL ENERGY        E CHANGE  DENSITY CHANGE     ORB. GRAD      INTEGRALS    SKIPPED
   1  0  0    -1340.0140540517 -1340.0140540517   0.000710683   0.000000000      638419702    9604615
          ---------------START SECOND ORDER SCF---------------
   2  1  0    -1340.0139524568     0.0001015950   0.000186758   0.000057537      512503575   11416060
   3  2  0    -1340.0139575537    -0.0000050970   0.000123992   0.000019854      487208037   11647350
   4  3  0    -1340.0139485482     0.0000090055   0.000029539   0.000007156      453747241   11944277
   5  4  0    -1340.0139482694     0.0000002788   0.000007526   0.000002725      417954793   12268254
   6  5  0    -1340.0139487700    -0.0000005006   0.000003788   0.000000795      386590849   12537922
   7  6  0    -1340.0139487715    -0.0000000015   0.000001218   0.000000238      354716971   12817669
   8  7  0    -1340.0139487643     0.0000000072   0.000000268   0.000000164      325629101   13067752
   9  8  0    -1340.0139487556     0.0000000087   0.000000099   0.000000060      297714052   13310120

          -----------------
          DENSITY CONVERGED
          -----------------
     TIME TO FORM FOCK OPERATORS=      12.4 SECONDS (       1.4 SEC/ITER)
     FOCK TIME ON FIRST ITERATION=       2.3, LAST ITERATION=       0.9
     TIME TO SOLVE SCF EQUATIONS=       0.3 SECONDS (       0.0 SEC/ITER)

 FINAL RHF ENERGY IS    -1340.0139487556 AFTER   9 ITERATIONS
 ...... END OF RHF CALCULATION ......
 CPU     0: STEP CPU TIME=    36.51 TOTAL CPU TIME=       2512.3 (     41.9 MIN)
 TOTAL WALL CLOCK TIME=       5284.4 SECONDS, CPU UTILIZATION IS    47.54%
 DONE PCM POT.
 CPU     0: STEP CPU TIME=     0.32 TOTAL CPU TIME=       2512.7 (     41.9 MIN)
 TOTAL WALL CLOCK TIME=       5285.3 SECONDS, CPU UTILIZATION IS    47.54%

 Iter=  6 iFrag=      9 EFMO= -1380.533169409, DD= 0.000883704, DE=-0.003010730


 RHF      monomer     10 corr= NONE       , L1=   309, L0=   290 ID=      9


 AO spaces for    10     0     0 n-mer: L1=   309, L0=   290

 DIRECT SCF CALCULATION, SCHWRZ=T   FDIFF=T,  DIRTHR=  0.00E+00 NITDIR=10

                                                                                   NONZERO     BLOCKS
 ITER EX DEM     TOTAL ENERGY        E CHANGE  DENSITY CHANGE     ORB. GRAD      INTEGRALS    SKIPPED
   1  0  0     -901.2584168070  -901.2584168070   0.000505577   0.000000000      499658488    7661433
          ---------------START SECOND ORDER SCF---------------
   2  1  0     -901.2583794279     0.0000373791   0.000139382   0.000032950      401628481    9271268
   3  2  0     -901.2583848506    -0.0000054227   0.000024950   0.000008195      381218187    9494446
   4  3  0     -901.2583819581     0.0000028924   0.000007545   0.000001959      355377020    9770673
   5  4  0     -901.2583815739     0.0000003842   0.000002767   0.000001294      325371794   10048977
   6  5  0     -901.2583814498     0.0000001242   0.000001035   0.000000447      305021423   10249866
   7  6  0     -901.2583814505    -0.0000000007   0.000000389   0.000000196      282549651   10473764
   8  7  0     -901.2583814344     0.0000000161   0.000000222   0.000000066      259775763   10696712
   9  8  0     -901.2583814417    -0.0000000073   0.000000071   0.000000026      245915791   10813048
  10  9  0     -901.2583814441    -0.0000000025   0.000000000   0.000000009      222933593   11013041

          -----------------
          DENSITY CONVERGED
          -----------------
     TIME TO FORM FOCK OPERATORS=      10.3 SECONDS (       1.0 SEC/ITER)
     FOCK TIME ON FIRST ITERATION=       2.0, LAST ITERATION=       0.8
     TIME TO SOLVE SCF EQUATIONS=       0.2 SECONDS (       0.0 SEC/ITER)

 FINAL RHF ENERGY IS     -901.2583814441 AFTER  10 ITERATIONS
 ...... END OF RHF CALCULATION ......
 CPU     0: STEP CPU TIME=    20.97 TOTAL CPU TIME=       2533.6 (     42.2 MIN)
 TOTAL WALL CLOCK TIME=       5332.9 SECONDS, CPU UTILIZATION IS    47.51%
 DONE PCM POT.
 CPU     0: STEP CPU TIME=     0.33 TOTAL CPU TIME=       2534.0 (     42.2 MIN)
 TOTAL WALL CLOCK TIME=       5333.7 SECONDS, CPU UTILIZATION IS    47.51%

 Iter=  6 iFrag=     10 EFMO=  -942.588650882, DD= 0.000395223, DE= 0.000563337


 RHF      monomer      5 corr= NONE       , L1=   296, L0=   278 ID=     10


 AO spaces for     5     0     0 n-mer: L1=   296, L0=   278

 DIRECT SCF CALCULATION, SCHWRZ=T   FDIFF=T,  DIRTHR=  0.00E+00 NITDIR=10

                                                                                   NONZERO     BLOCKS
 ITER EX DEM     TOTAL ENERGY        E CHANGE  DENSITY CHANGE     ORB. GRAD      INTEGRALS    SKIPPED
   1  0  0     -841.3992986613  -841.3992986613   0.001013862   0.000000000      347395780    7908712
          ---------------START SECOND ORDER SCF---------------
   2  1  0     -841.3992781176     0.0000205438   0.000164353   0.000114319      274523059    9048234
   3  2  0     -841.3992822040    -0.0000040865   0.000131590   0.000042733      261830571    9211210
   4  3  0     -841.3992807309     0.0000014731   0.000020658   0.000010572      245787759    9396393
   5  4  0     -841.3992808296    -0.0000000987   0.000004404   0.000004297      230067594    9588455
   6  5  0     -841.3992809273    -0.0000000978   0.000001417   0.000000809      210863049    9797512
   7  6  0     -841.3992809230     0.0000000044   0.000000541   0.000000269      194304352    9992270
   8  7  0     -841.3992809267    -0.0000000037   0.000000100   0.000000081      176331320   10178755
   9  8  0     -841.3992809269    -0.0000000002   0.000000037   0.000000015      158237573   10361095

          -----------------
          DENSITY CONVERGED
          -----------------
     TIME TO FORM FOCK OPERATORS=       7.4 SECONDS (       0.8 SEC/ITER)
     FOCK TIME ON FIRST ITERATION=       1.4, LAST ITERATION=       0.6
     TIME TO SOLVE SCF EQUATIONS=       0.2 SECONDS (       0.0 SEC/ITER)

 FINAL RHF ENERGY IS     -841.3992809269 AFTER   9 ITERATIONS
 ...... END OF RHF CALCULATION ......
 CPU     0: STEP CPU TIME=    18.09 TOTAL CPU TIME=       2552.0 (     42.5 MIN)
 TOTAL WALL CLOCK TIME=       5371.3 SECONDS, CPU UTILIZATION IS    47.51%
 DONE PCM POT.
 CPU     0: STEP CPU TIME=     0.20 TOTAL CPU TIME=       2552.2 (     42.5 MIN)
 TOTAL WALL CLOCK TIME=       5371.9 SECONDS, CPU UTILIZATION IS    47.51%

 Iter=  6 iFrag=      5 EFMO=  -870.953916925, DD= 0.001223788, DE=-0.002163242

 CPU     0: STEP CPU TIME=     0.00 TOTAL CPU TIME=       2552.2 (     42.5 MIN)
 TOTAL WALL CLOCK TIME=       5371.9 SECONDS, CPU UTILIZATION IS    47.51%

  Monomer SCF synchronisation on iteration   6.1 took     0.0 s.
 CPU     0: STEP CPU TIME=     0.00 TOTAL CPU TIME=       2552.2 (     42.5 MIN)
 TOTAL WALL CLOCK TIME=       5371.9 SECONDS, CPU UTILIZATION IS    47.51%
 dmexch needs              3853170  words of memory.
 CPU     0: STEP CPU TIME=     0.02 TOTAL CPU TIME=       2552.3 (     42.5 MIN)
 TOTAL WALL CLOCK TIME=       5372.0 SECONDS, CPU UTILIZATION IS    47.51%

 Data exchange of   1276421 words took     0.0 s.

 Calculating apparent surface charges...
     Using       50452 words of memory.
 ASC ITERATION=   1 CONVERGED TO  0.552893E-04
 ASC ITERATION=   2 CONVERGED TO  0.376057E-03
 ASC ITERATION=   3 CONVERGED TO  0.390949E-03
 ASC ITERATION=   4 CONVERGED TO  0.220561E-03
 ASC ITERATION=   5 CONVERGED TO  0.406359E-04
 ASC ITERATION=   6 CONVERGED TO  0.179840E-04
 ASC ITERATION=   7 CONVERGED TO  0.162916E-04
 ASC ITERATION=   8 CONVERGED TO  0.558143E-05
 ASC ITERATION=   9 CONVERGED TO  0.471785E-05
 ASC ITERATION=  10 CONVERGED TO  0.472262E-05
 ASC ITERATION=  11 CONVERGED TO  0.107608E-05
 ASC ITERATION=  12 CONVERGED TO  0.728871E-06
 ASC ITERATION=  13 CONVERGED TO  0.401497E-06
 ASC ITERATION=  14 CONVERGED TO  0.209841E-06
 ASC ITERATION=  15 CONVERGED TO  0.102622E-06
 ASC ITERATION=  16 CONVERGED TO  0.607093E-07
 ASC ITERATION=  17 CONVERGED TO  0.377531E-07
 ASC ITERATION=  18 CONVERGED TO  0.349561E-07
 ASC ITERATION=  19 CONVERGED TO  0.151307E-07
 ASC ITERATION=  20 CONVERGED TO  0.965074E-08
 ASC ITERATION=  21 CONVERGED TO  0.422342E-08
 ASC ITERATION=  22 CONVERGED TO  0.274271E-08
 ASC ITERATION=  23 CONVERGED TO  0.132527E-08
 ASC ITERATION=  24 CONVERGED TO  0.809851E-09
 ASC ITERATION=  25 CONVERGED TO  0.541952E-09
 ASC ITERATION=  26 CONVERGED TO  0.270973E-09
 ASC ITERATION=  27 CONVERGED TO  0.251817E-09
 ASC ITERATION=  28 CONVERGED TO  0.114562E-09
 ASC ITERATION=  29 CONVERGED TO  0.655042E-10

 THE ASC EQUATIONS FOR PHASE=1 CONVERGED IN  29 ITERATIONS.

 PCM ASC=      7.8373471588 normalised to=      7.8979461666
 Nuclear factor=   1.0029405793, electronic factor=   1.0029639559

 CPU     0: STEP CPU TIME=     0.15 TOTAL CPU TIME=       2552.4 (     42.5 MIN)
 TOTAL WALL CLOCK TIME=       5372.3 SECONDS, CPU UTILIZATION IS    47.51%


 ------------------------------------------------------------------------------
 FMO iter  6.1,      0 fragment(s) converged, maxD 0.001313422 maxE 0.003125190
 ------------------------------------------------------------------------------

 RHF      monomer      6 corr= NONE       , L1=   386, L0=   362 ID=      1


 AO spaces for     6     0     0 n-mer: L1=   386, L0=   362

 DIRECT SCF CALCULATION, SCHWRZ=T   FDIFF=T,  DIRTHR=  0.00E+00 NITDIR=10

                                                                                   NONZERO     BLOCKS
 ITER EX DEM     TOTAL ENERGY        E CHANGE  DENSITY CHANGE     ORB. GRAD      INTEGRALS    SKIPPED
   1  0  0    -1472.7210363514 -1472.7210363514   0.000547777   0.000000000      921335703   17596878
          ---------------START SECOND ORDER SCF---------------
   2  1  0    -1472.7210260070     0.0000103444   0.000125747   0.000033357      664845046   20551250
   3  2  0    -1472.7210280752    -0.0000020683   0.000026482   0.000008353      630937037   20846119
   4  3  0    -1472.7210270836     0.0000009916   0.000008082   0.000001283      578325290   21282522
   5  4  0    -1472.7210271065    -0.0000000229   0.000002164   0.000000783      518736962   21757760
   6  5  0    -1472.7210270994     0.0000000071   0.000000532   0.000000138      477239514   22084037
   7  6  0    -1472.7210271228    -0.0000000234   0.000000179   0.000000063      417743982   22552651
   8  7  0    -1472.7210271266    -0.0000000037   0.000000066   0.000000016      370681229   22919823

          -----------------
          DENSITY CONVERGED
          -----------------
     TIME TO FORM FOCK OPERATORS=      14.8 SECONDS (       1.9 SEC/ITER)
     FOCK TIME ON FIRST ITERATION=       3.1, LAST ITERATION=       1.1
     TIME TO SOLVE SCF EQUATIONS=       0.3 SECONDS (       0.0 SEC/ITER)

 FINAL RHF ENERGY IS    -1472.7210271266 AFTER   8 ITERATIONS
 ...... END OF RHF CALCULATION ......
 CPU     0: STEP CPU TIME=    29.33 TOTAL CPU TIME=       2581.8 (     43.0 MIN)
 TOTAL WALL CLOCK TIME=       5433.2 SECONDS, CPU UTILIZATION IS    47.52%
 DONE PCM POT.
 CPU     0: STEP CPU TIME=     0.40 TOTAL CPU TIME=       2582.1 (     43.0 MIN)
 TOTAL WALL CLOCK TIME=       5434.2 SECONDS, CPU UTILIZATION IS    47.52%

 Iter=  7 iFrag=      6 EFMO= -1507.445893225, DD= 0.000454569, DE= 0.000172329


 RHF      monomer      8 corr= NONE       , L1=   386, L0=   362 ID=      2


 AO spaces for     8     0     0 n-mer: L1=   386, L0=   362

 DIRECT SCF CALCULATION, SCHWRZ=T   FDIFF=T,  DIRTHR=  0.00E+00 NITDIR=10

                                                                                   NONZERO     BLOCKS
 ITER EX DEM     TOTAL ENERGY        E CHANGE  DENSITY CHANGE     ORB. GRAD      INTEGRALS    SKIPPED
   1  0  0    -1456.9385924434 -1456.9385924434   0.000341210   0.000000000      928073264   17452373
          ---------------START SECOND ORDER SCF---------------
   2  1  0    -1456.9385785997     0.0000138437   0.000087393   0.000021594      673159826   20438292
   3  2  0    -1456.9385793411    -0.0000007414   0.000014898   0.000005592      624170271   20857894
   4  3  0    -1456.9385783511     0.0000009900   0.000006587   0.000001111      571904914   21302040
