‘1F5G_1_fmo_input.inp’ -> ‘/scratch/hazwong/529417/./1F5G_1_fmo_input.inp’
‘rungms’ -> ‘/scratch/hazwong/529417/./rungms’
‘gms-files.csh’ -> ‘/scratch/hazwong/529417/./gms-files.csh’
----- GAMESS execution script 'rungms' -----
This job is running on host gollum062.lsa.umich.edu
under operating system Linux at Mon Oct 28 01:22:02 EDT 2019
Available scratch disk space (Kbyte units) at beginning of the job is
Filesystem     1K-blocks  Used Available Use% Mounted on
/dev/sda4      426933580 33292 426900288   1% /scratch
GAMESS temporary binary files will be written to /scratch/hazwong/529417/1F5G_1/usrc
GAMESS supplementary output files will be written to /scratch/hazwong/529417/1F5G_1/src
Copying input file 1F5G_1_fmo_input.inp to your run's scratch directory...
cp 1F5G_1_fmo_input.inp /scratch/hazwong/529417/1F5G_1/usrc/1F5G_1_fmo_input.F05
unset echo
This is a GDDI run, keeping various output files on local disks
setenv OUTPUT /scratch/hazwong/529417/1F5G_1/usrc/1F5G_1_fmo_input.F06
setenv PUNCH /scratch/hazwong/529417/1F5G_1/usrc/1F5G_1_fmo_input.F07
unset echo
 
Assuming a single but multicore node.
 
/export/apps/CentOS7/gamess/src/build//ddikick.x /export/apps/CentOS7/gamess/src/build//gamess.R3.x 1F5G_1_fmo_input -ddi 1 16 gollum062.lsa.umich.edu:cpus=16 -scr /scratch/hazwong/529417/1F5G_1/usrc

 Distributed Data Interface kickoff program.
 Initiating 16 compute processes on 1 nodes to run the following command:
 /export/apps/CentOS7/gamess/src/build//gamess.R3.x 1F5G_1_fmo_input 

          ******************************************************
          *         GAMESS VERSION = 30 SEP 2018 (R3)         *
          *             FROM IOWA STATE UNIVERSITY             *
          * M.W.SCHMIDT, K.K.BALDRIDGE, J.A.BOATZ, S.T.ELBERT, *
          *   M.S.GORDON, J.H.JENSEN, S.KOSEKI, N.MATSUNAGA,   *
          *          K.A.NGUYEN, S.J.SU, T.L.WINDUS,           *
          *       TOGETHER WITH M.DUPUIS, J.A.MONTGOMERY       *
          *         J.COMPUT.CHEM.  14, 1347-1363(1993)        *
          **************** 64 BIT LINUX VERSION ****************

  SINCE 1993, STUDENTS AND POSTDOCS WORKING AT IOWA STATE UNIVERSITY
  AND ALSO IN THEIR VARIOUS JOBS AFTER LEAVING ISU HAVE MADE IMPORTANT
  CONTRIBUTIONS TO THE CODE:
     IVANA ADAMOVIC, CHRISTINE AIKENS, YURI ALEXEEV, POOJA ARORA,
     ANDREY ASADCHEV, ROB BELL, PRADIPTA BANDYOPADHYAY, JONATHAN BENTZ,
     BRETT BODE, KURT BRORSEN, CALEB CARLIN, GALINA CHABAN, WEI CHEN,
     CHEOL HO CHOI, PAUL DAY, ALBERT DEFUSCO, NUWAN DESILVA, TIM DUDLEY,
     DMITRI FEDOROV, ALEX FINDLATER, GRAHAM FLETCHER, MARK FREITAG,
     KURT GLAESEMANN, ANASTASIA GUNINA,
     DAN KEMP, GRANT MERRILL, NORIYUKI MINEZAWA, JONATHAN MULLIN,
     TAKESHI NAGATA, SEAN NEDD, HEATHER NETZLOFF, BOSILJKA NJEGIC, RYAN OLSON,
     MIKE PAK, BUU PHAM,
     SPENCER PRUITT, LUKE ROSKOP, JIM SHOEMAKER, LYUDMILA SLIPCHENKO,
     TONY SMITH, SAROM SOK LEANG, JIE SONG, TETSUYA TAKETSUGU, SIMON WEBB,
     PENG XU, SOOHAENG YOO, FEDERICO ZAHARIEV

  ADDITIONAL CODE HAS BEEN PROVIDED BY COLLABORATORS IN OTHER GROUPS:
     IOWA STATE UNIVERSITY:
          JOE IVANIC, AARON WEST, LAIMUTIS BYTAUTAS, KLAUS RUEDENBERG
     UNIVERSITY OF TOKYO: KIMIHIKO HIRAO, TAKAHITO NAKAJIMA,
          TAKAO TSUNEDA, MUNEAKI KAMIYA, SUSUMU YANAGISAWA,
          KIYOSHI YAGI, MAHITO CHIBA, SEIKEN TOKURA, NAOAKI KAWAKAMI
     UNIVERSITY OF AARHUS: FRANK JENSEN
     UNIVERSITY OF IOWA: VISVALDAS KAIRYS, HUI LI
     NATIONAL INST. OF STANDARDS AND TECHNOLOGY: WALT STEVENS, DAVID GARMER
     UNIVERSITY OF PISA: BENEDETTA MENNUCCI, JACOPO TOMASI
     UNIVERSITY OF MEMPHIS: HENRY KURTZ, PRAKASHAN KORAMBATH
     UNIVERSITY OF ALBERTA: TOBY ZENG, MARIUSZ KLOBUKOWSKI
     UNIVERSITY OF NEW ENGLAND: MARK SPACKMAN
     MIE UNIVERSITY: HIROAKI UMEDA
     NAT. INST. OF ADVANCED INDUSTRIAL SCIENCE AND TECHNOLOGY: KAZUO KITAURA
     MICHIGAN STATE UNIVERSITY:
          KAROL KOWALSKI, MARTA WLOCH, JEFFREY GOUR, JESSE LUTZ,
          WEI LI, JUN SHEN, J. EMILIANO DEUSTUA, PIOTR PIECUCH
     UNIVERSITY OF MINNESOTA:
          YINAN SHU
     UNIVERSITY OF SILESIA: MONIKA MUSIAL, STANISLAW KUCHARSKI
     FACULTES UNIVERSITAIRES NOTRE-DAME DE LA PAIX:
          OLIVIER QUINET, BENOIT CHAMPAGNE
     UNIVERSITY OF CALIFORNIA - SANTA BARBARA: BERNARD KIRTMAN
     INSTITUTE FOR MOLECULAR SCIENCE:
          KAZUYA ISHIMURA, MICHIO KATOUDA, AND SHIGERU NAGASE
     UNIVERSITY OF NOTRE DAME: ANNA POMOGAEVA, DAN CHIPMAN
     KYUSHU UNIVERSITY:
          HARUYUKI NAKANO,
          FENG LONG GU, JACEK KORCHOWIEC, MARCIN MAKOWSKI, AND YURIKO AOKI,
          HIROTOSHI MORI AND EISAKU MIYOSHI
     PENNSYLVANIA STATE UNIVERSITY:
          TZVETELIN IORDANOV, CHET SWALINA, JONATHAN SKONE,
          SHARON HAMMES-SCHIFFER
     WASEDA UNIVERSITY:
          MASATO KOBAYASHI, TOMOKO AKAMA, TSUGUKI TOUMA,
          TAKESHI YOSHIKAWA, YASUHIRO IKABATA, JUNJI SEINO,
          YUYA NAKAJIMA, HIROMI NAKAI
     NANJING UNIVERSITY: SHUHUA LI
     UNIVERSITY OF NEBRASKA:
          PEIFENG SU, DEJUN SI, NANDUN THELLAMUREGE, YALI WANG, HUI LI
     UNIVERSITY OF ZURICH: ROBERTO PEVERATI, KIM BALDRIDGE
     N. COPERNICUS UNIVERSITY AND JACKSON STATE UNIVERSITY:
          MARIA BARYSZ
     UNIVERSITY OF COPENHAGEN: Jimmy Kromann, CASPER STEINMANN
     TOKYO INSTITUTE OF TECHNOLOGY: HIROYA NAKATA
     NAGOYA UNIVERSITY: YOSHIO NISHIMOTO, STEPHAN IRLE
     MOSCOW STATE UNIVERSITY: VLADIMIR MIRONOV


 PARALLEL VERSION RUNNING ON       16 PROCESSORS IN        1 NODES.

 EXECUTION OF GAMESS BEGUN Mon Oct 28 01:22:02 2019

            ECHO OF THE FIRST FEW INPUT CARDS -
 INPUT CARD>!*** FMO 5.3 (Gamess) INPUT generated by Facio 22.1.1.32 ***                    
 INPUT CARD> $CONTRL RUNTYP=ENERGY NPRINT=-5 ISPHER=1 MAXIT=200 $END                        
 INPUT CARD> $SYSTEM MWORDS=63 MEMDDI=63 $END                                               
 INPUT CARD> $GDDI NGROUP=1 $END                                                            
 INPUT CARD> $SCF DIRSCF=.TRUE. NPUNCH=0 $END                                               
 INPUT CARD>!*** NumCPU : 2  MemPerNode : 512MB                                             
 INPUT CARD> $PCM SOLVNT=WATER IEF=-10 ICOMP=2 ICAV=1 IDISP=1 IFMO=-1 $END                  
 INPUT CARD> $PCMCAV RADII=SUAHF $END                                                       
 INPUT CARD> $TESCAV NTSALL=60 $END                                                         
 INPUT CARD> $FMOPRP                                                                        
 INPUT CARD>    NAODIR=200                                                                  
 INPUT CARD>    NGRFMO(1)=1, 1, 0, 0, 0,   0, 0, 0, 0, 0                                    
 INPUT CARD>    IPIEDA=1                                                                    
 INPUT CARD>    NPRINT=9                                                                    
 INPUT CARD> $END                                                                           
 INPUT CARD> $FMO                                                                           
 INPUT CARD>      SCFTYP(1)=RHF                                                             
 INPUT CARD>      MODGRD=10                                                                 
 INPUT CARD>      MODMUL=0                                                                  
 INPUT CARD>      MAXCAO=5                                                                  
 INPUT CARD>      MAXBND=12                                                                 
 INPUT CARD>      NLAYER=1                                                                  
 INPUT CARD>      MPLEVL(1)=2                                                               
 INPUT CARD>      NFRAG=10                                                                  
 INPUT CARD>      ICHARG(1)=-1, -1, -1, -1, 0, -1, -1, -1, -1, 0                            
 INPUT CARD>      FRGNAM(1)=F1, F2, F3, F4, F5, F6, F7, F8, F9, F10                         
 INPUT CARD>      indat(1)=0                                                                
 INPUT CARD>               1   -33   0                                                      
 INPUT CARD>               34   -66   0                                                     
 INPUT CARD>               67   -100   0                                                    
 INPUT CARD>               101   -134   0                                                   
 INPUT CARD>               135   -164   0                                                   
 INPUT CARD>               165   -198   0                                                   
 INPUT CARD>               199   -229   0                                                   
 INPUT CARD>               230   -263   0                                                   
 INPUT CARD>               264   -293   0                                                   
 INPUT CARD>               294   -324   0                                                   
 INPUT CARD> $END                                                                           
 INPUT CARD>                                                                                
 INPUT CARD> $FMOBND                                                                        
 INPUT CARD>   -34   33       6-31G*    MINI                                                
 INPUT CARD>   -67   66       6-31G*    MINI                                                
 INPUT CARD>   -101   100       6-31G*    MINI                                              
 INPUT CARD>   -135   134       6-31G*    MINI                                              
 INPUT CARD>   -165   164       6-31G*    MINI                                              
 INPUT CARD>   -199   198       6-31G*    MINI                                              
 INPUT CARD>   -230   229       6-31G*    MINI                                              
 INPUT CARD>   -264   263       6-31G*    MINI                                              
 INPUT CARD>   -294   293       6-31G*    MINI                                              
 INPUT CARD> $END                                                                           


 -------------------------------------------------------------
 GROUP DDI, PROGRAMMED BY: RYAN M. OLSON AND DMITRI G. FEDOROV
        FEDOROV ET AL., J. COMPUT. CHEM., 25 (2004) 872.
 -------------------------------------------------------------

 -------------------------------------------------------
 GDDI: INITIALIZATION COMPLETED FOR GROUP     1 OF     1
 WITH    16 PROCESSES BALTYP=DLB   global rank=        0
 -------------------------------------------------------

   63000000 WORDS OF MEMORY AVAILABLE


     RUN TITLE
     ---------
  FMO calculation                                                                

 THE POINT GROUP OF THE MOLECULE IS C1      
 THE ORDER OF THE PRINCIPAL AXIS IS     0

 ATOM   ATOMIC CHARGE
 H.1-1       1.0
 O.1-1       8.0
 C.1-1       6.0
 N.1-1       7.0
 P.1-1      15.0

     ATOMIC BASIS SET LIBRARY
     ----------------
 THE CONTRACTED PRIMITIVE FUNCTIONS HAVE BEEN UNNORMALIZED
 THE CONTRACTED BASIS FUNCTIONS ARE NOW NORMALIZED TO UNITY

  SHELL TYPE  PRIMITIVE        EXPONENT          CONTRACTION COEFFICIENT(S)

 H.1-1     

      1   S       1            18.7311370    0.033494604338
      1   S       2             2.8253944    0.234726953484
      1   S       3             0.6401217    0.813757326146

      2   S       4             0.1612778    1.000000000000

 O.1-1     

      3   S       5          5484.6716600    0.001831074430
      3   S       6           825.2349460    0.013950172200
      3   S       7           188.0469580    0.068445078098
      3   S       8            52.9645000    0.232714335992
      3   S       9            16.8975704    0.470192897984
      3   S      10             5.7996353    0.358520852987

      4   L      11            15.5396162   -0.110777549525    0.070874268231
      4   L      12             3.5999336   -0.148026262701    0.339752839147
      4   L      13             1.0137618    1.130767015354    0.727158577316

      5   L      14             0.2700058    1.000000000000    1.000000000000

      6   D      15             0.8000000    1.000000000000

 C.1-1     

      7   S      16          3047.5248800    0.001834737132
      7   S      17           457.3695180    0.014037322813
      7   S      18           103.9486850    0.068842622264
      7   S      19            29.2101553    0.232184443216
      7   S      20             9.2866630    0.467941348435
      7   S      21             3.1639270    0.362311985337

      8   L      22             7.8682723   -0.119332419775    0.068999066591
      8   L      23             1.8812885   -0.160854151696    0.316423960957
      8   L      24             0.5442493    1.143456437840    0.744308290898

      9   L      25             0.1687145    1.000000000000    1.000000000000

     10   D      26             0.8000000    1.000000000000

 N.1-1     

     11   S      27          4173.5114600    0.001834772160
     11   S      28           627.4579110    0.013994627002
     11   S      29           142.9020930    0.068586551812
     11   S      30            40.2343293    0.232240873040
     11   S      31            12.8202129    0.469069948082
     11   S      32             4.3904370    0.360455199063

     12   L      33            11.6263619   -0.114961181702    0.067579743878
     12   L      34             2.7162798   -0.169117478561    0.323907295893
     12   L      35             0.7722184    1.145851947027    0.740895139755

     13   L      36             0.2120315    1.000000000000    1.000000000000

     14   D      37             0.8000000    1.000000000000

 P.1-1     

     15   S      38         19413.3000000    0.001851598923
     15   S      39          2909.4200000    0.014206191735
     15   S      40           661.3640000    0.069999459277
     15   S      41           185.7590000    0.240078860331
     15   S      42            59.1943000    0.484761717984
     15   S      43            20.0310000    0.335199804993

     16   L      44           339.4780000   -0.002782170105    0.004564616191
     16   L      45            81.0101000   -0.036049901354    0.033693571881
     16   L      46            25.8780000   -0.116631004382    0.139754883368
     16   L      47             9.4522100    0.096832803638    0.339361716786
     16   L      48             3.6656600    0.614418023082    0.450920623685
     16   L      49             1.4674600    0.403798015170    0.238585800889

     17   L      50             2.1562300   -0.252924113863   -0.017765312733
     17   L      51             0.7489970    0.032851844678    0.274058196433
     17   L      52             0.2831450    1.081254761783    0.785421562957

     18   L      53             0.0998317    1.000000000000    1.000000000000

     19   D      54             0.5500000    1.000000000000

 TOTAL NUMBER OF BASIS SET SHELLS             =   19
 NUMBER OF CARTESIAN GAUSSIAN BASIS FUNCTIONS =   66

     $CONTRL OPTIONS
     ---------------
 SCFTYP=RHF          RUNTYP=ENERGY       EXETYP=RUN     
 MPLEVL=       0     CITYP =NONE         CCTYP =NONE         VBTYP =NONE    
 DFTTYP=NONE         TDDFT =NONE    
 MULT  =       1     ICHARG=       0     NZVAR =       0     COORD =UNIQUE  
 PP    =NONE         RELWFN=NONE         LOCAL =NONE         NUMGRD=       F
 ISPHER=       1     NOSYM =       0     MAXIT =     200     UNITS =ANGS    
 PLTORB=       F     MOLPLT=       F     AIMPAC=       F     FRIEND=        
 NPRINT=      -5     IREST =       0     GEOM  =INPUT   
 NORMF =       0     NORMP =       0     ITOL  =      24     ICUT  =      12
 INTTYP=BEST         GRDTYP=BEST         QMTTOL= 1.0E-06

     $SYSTEM OPTIONS
     ---------------
  REPLICATED MEMORY=    63000000 WORDS (ON EVERY NODE).
 DISTRIBUTED MEMDDI=          63 MILLION WORDS IN AGGREGATE,
 MEMDDI DISTRIBUTED OVER  16 PROCESSORS IS     3937500 WORDS/PROCESSOR.
 TOTAL MEMORY REQUESTED ON EACH PROCESSOR=    66937500 WORDS.
 TIMLIM=      525600.00 MINUTES, OR     365.0 DAYS.
 PARALL= T  BALTYP=  DLB     KDIAG=    0  COREFL= F
 MXSEQ2=     300 MXSEQ3=     150  mem10=         0

 ** LOOKING UP INTERNALLY STORED DATA FOR SOLVENT=WATER    **
 OPTICAL AND PHYSICAL CONSTANTS:
 EPS= 78.390; EPSINF=  1.776; RSOLV=  1.385 A; VMOL=  18.070 ML/MOL;
 TCE= .25700E-03 1/K; STEN= 71.810 DYN/CM;  DSTEN=  0.6500; CMF=  1.2770


     -----------------------------------
     INPUT FOR PCM SOLVATION CALCULATION 
     -----------------------------------
     IEF   =     -10
     ICOMP =       2     IFIELD=       0     ICAV  =       1
     IDISP =       1     IREP  =       0     IDP   =       0

     SOLVNT=WATER        EPS   = 78.3900     EPSINF=  1.7760
     VMOL  = 18.0700     TCE   =  0.00025700 STEN  = 71.8100
     DSTEN =  0.6500     CMF   =  1.2770     RSOLV =  1.3850

     NESFP =       0
     OMEGA = 40.0000     RET   =100.0000     FRO   =  0.7000

     TABS  =298.0000     IPRINT=       0

     --------------------------------
     INPUT FOR ITERATIVE C-PCM METHOD 
     --------------------------------
     IPCMIT  =         1     MXDIIS  =        50
     MXITR1  =       200     MXITR2  =       200
     THRES   = 0.100E-09     IMUL    =         3
     RCUT(1) =   20.0000     RCUT(2) =   50.0000

     IDIRCT  =         1
     IMGABI  =         0     RABI    =    4.0000
     IMGASC  =         0     RASC    =   20.0000
     THRSLS  = 0.500E-03     DENSLS  =    0.0100
     IEFPOL  =         1     REFPOL  =    0.0000

     INPUT FOR ISOTROPIC DIELECTRICS
     -------------------------------
     EPS=    78.39

          ----------------
          PROPERTIES INPUT
          ----------------

     MOMENTS            FIELD           POTENTIAL          DENSITY
 IEMOM =       1   IEFLD =       0   IEPOT =       0   IEDEN =       0
 WHERE =COMASS     WHERE =NUCLEI     WHERE =NUCLEI     WHERE =NUCLEI  
 OUTPUT=BOTH       OUTPUT=BOTH       OUTPUT=NONE       OUTPUT=BOTH    
 IEMINT=       0   IEFINT=       0                     IEDINT=       0
                                                       MORB  =       0
          EXTRAPOLATION IN EFFECT
          SOSCF IN EFFECT
 ORBITAL PRINTING OPTION: NPREO=     1 32767     2     1

     -------------------------------
     INTEGRAL TRANSFORMATION OPTIONS
     -------------------------------
     NWORD  =            0
     CUTOFF = 1.0E-10     MPTRAN =       0
     DIRTRF =       T     AOINTS =DUP     

          ----------------------
          INTEGRAL INPUT OPTIONS
          ----------------------
 NOPK  =       1 NORDER=       0 SCHWRZ=       T

 ..... DONE SETTING UP THE RUN .....
 CPU     0: STEP CPU TIME=     0.03 TOTAL CPU TIME=          0.0 (      0.0 MIN)
 TOTAL WALL CLOCK TIME=          0.1 SECONDS, CPU UTILIZATION IS    42.86%
 CPU     0: STEP CPU TIME=     0.00 TOTAL CPU TIME=          0.0 (      0.0 MIN)
 TOTAL WALL CLOCK TIME=          0.1 SECONDS, CPU UTILIZATION IS    42.86%

                    ----------------------
                    AO INTEGRAL TECHNOLOGY
                    ----------------------
     S,P,L SHELL ROTATED AXIS INTEGRALS, REPROGRAMMED BY
        KAZUYA ISHIMURA (IMS) AND JOSE SIERRA (SYNSTAR).
     S,P,D,L SHELL ROTATED AXIS INTEGRALS PROGRAMMED BY
        KAZUYA ISHIMURA (INSTITUTE FOR MOLECULAR SCIENCE).
     S,P,D,F,G SHELL TO TOTAL QUARTET ANGULAR MOMENTUM SUM 5,
        ERIC PROGRAM BY GRAHAM FLETCHER (ELORET AND NASA ADVANCED
        SUPERCOMPUTING DIVISION, AMES RESEARCH CENTER).
     S,P,D,F,G,L SHELL GENERAL RYS QUADRATURE PROGRAMMED BY
        MICHEL DUPUIS (PACIFIC NORTHWEST NATIONAL LABORATORY).
 Setting modorb=1 flag...
 Setting modorb=1 flag...

          -----------------------
          MP2 CONTROL INFORMATION
          -----------------------
          NACORE =        8  NBCORE =        8
          LMOMP2 =        F  AOINTS = DUP     
          METHOD =        2  NWORD  =               0
          MP2PRP =        F  OSPT   = NONE    
          CUTOFF = 1.00E-12  CPHFBS = BASISAO 
          CODE   = IMS     

          NUMBER OF CORE -A-  ORBITALS =     8
          NUMBER OF CORE -B-  ORBITALS =     8
          NUMBER OF OCC. -A-  ORBITALS =    18
          NUMBER OF OCC. -B-  ORBITALS =    18
          NUMBER OF MOLECULAR ORBITALS =    66
          NUMBER OF   BASIS  FUNCTIONS =    66

 CPU     0: STEP CPU TIME=     0.04 TOTAL CPU TIME=          0.1 (      0.0 MIN)
 TOTAL WALL CLOCK TIME=          0.1 SECONDS, CPU UTILIZATION IS    70.00%
 CPU     0: STEP CPU TIME=     0.00 TOTAL CPU TIME=          0.1 (      0.0 MIN)
 TOTAL WALL CLOCK TIME=          0.1 SECONDS, CPU UTILIZATION IS    70.00%

     INPUT FOR CAVITY DEFINITION 
     ---------------------------
   ATOM               COORDINATES                RADIUS       EPS
      1     -5.7300     10.3370     -6.1550      0.0100     78.3900
      2     -4.8180     10.3580     -6.5010      1.5900     78.3900
      3     -4.8980     10.8640     -7.8420      1.7700     78.3900
      4     -5.3350     11.8890     -7.8220      0.0100     78.3900
      5     -5.5670     10.2080     -8.4410      0.0100     78.3900
      6     -3.5440     10.9290     -8.5540      1.7700     78.3900
      7     -3.6660     11.2730     -9.6000      0.0100     78.3900
      8     -2.6770     11.8910     -7.8880      1.5900     78.3900
      9     -1.3490     11.3880     -7.8700      1.7700     78.3900
     10     -0.7180     12.1760     -8.3430      0.0100     78.3900
     11     -0.8470     11.1330     -6.4920      1.6800     78.3900
     12     -1.7290     11.0170     -5.4400      1.7700     78.3900
     13     -2.7870     11.1250     -5.6810      0.0100     78.3900
     14     -1.3010     10.8150     -4.1880      1.7700     78.3900
     15     -1.9830     10.7410     -3.3440      0.0100     78.3900
     16      0.5190     10.9950     -6.2610      1.7700     78.3900
     17      1.3060     11.0710     -7.2170      1.5900     78.3900
     18      0.9730     10.8060     -5.0010      1.6800     78.3900
     19      0.1030     10.7170     -3.9790      1.7700     78.3900
     20      0.5750     10.5480     -2.7450      1.6800     78.3900
     21      1.5630     10.4610     -2.5970      0.0100     78.3900
     22     -0.0330     10.5350     -1.9490      0.0100     78.3900
     23     -1.3240     10.1500     -8.7420      1.7700     78.3900
     24     -0.5690      9.4100     -8.4100      0.0100     78.3900
     25     -1.0720     10.5130    -10.0850      1.5900     78.3900
     26     -1.1030      9.6970    -10.5970      0.0100     78.3900
     27     -2.7430      9.6180     -8.5710      1.7700     78.3900
     28     -2.8620      9.1550     -7.5640      0.0100     78.3900
     29     -3.2190      8.7660     -9.6440      1.5900     78.3900
     30     -2.9620      7.2120     -9.5540      2.1000     78.3900
     31     -3.4520      6.7240     -8.2490      1.5900     78.3900
     32     -3.5480      6.5680    -10.7510      1.5900     78.3900
     33     -1.3890      7.0880     -9.6120      1.5900     78.3900
     34     -0.7250      7.2670    -10.8900      1.7700     78.3900
     35     -0.9440      8.2670    -11.3310      0.0100     78.3900
     36     -1.0710      6.4980    -11.6160      0.0100     78.3900
     37      0.7960      7.1350    -10.7490      1.7700     78.3900
     38      1.3140      7.3370    -11.7100      0.0100     78.3900
     39      1.2860      8.1080     -9.7800      1.5900     78.3900
     40      2.3280      7.5260     -9.0170      1.7700     78.3900
     41      3.2200      8.1850     -9.1330      0.0100     78.3900
     42      1.9710      7.4470     -7.5950      1.6800     78.3900
     43      2.0700      7.3220     -5.4040      1.7700     78.3900
     44      0.7240      7.4560     -5.7210      1.6800     78.3900
     45      0.7180      7.5180     -7.0290      1.7700     78.3900
     46     -0.1750      7.6190     -7.6460      0.0100     78.3900
     47      4.0960      7.0450     -4.2100      1.6800     78.3900
     48      4.7020      7.0060     -5.4000      1.7700     78.3900
     49      5.7890      6.8670     -5.3680      0.0100     78.3900
     50      4.1790      7.1620     -6.6200      1.6800     78.3900
     51      2.8450      7.3040     -6.5500      1.7700     78.3900
     52      2.7500      7.2090     -4.1740      1.7700     78.3900
     53      2.1320      7.2750     -2.9820      1.6800     78.3900
     54      1.1330      7.3480     -2.9070      0.0100     78.3900
     55      2.6740      7.2740     -2.1370      0.0100     78.3900
     56      2.6250      6.1690     -9.6160      1.7700     78.3900
     57      2.9580      5.4340     -8.8570      0.0100     78.3900
     58      3.6040      6.2960    -10.6270      1.5900     78.3900
     59      3.6480      5.4400    -11.0700      0.0100     78.3900
     60      1.2770      5.7780    -10.2100      1.7700     78.3900
     61      0.5620      5.4910     -9.4030      0.0100     78.3900
     62      1.3500      4.8030    -11.2840      1.5900     78.3900
     63      1.2070      3.2720    -10.9230      2.1000     78.3900
     64      0.0530      3.1260    -10.0110      1.5900     78.3900
     65      1.1520      2.4860    -12.1780      1.5900     78.3900
     66      2.5220      2.9230    -10.1340      1.5900     78.3900
     67      3.8270      2.9140    -10.7510      1.7700     78.3900
     68      4.0120      3.8460    -11.3300      0.0100     78.3900
     69      3.9210      2.0670    -11.4620      0.0100     78.3900
     70      4.9410      2.7500     -9.7070      1.7700     78.3900
     71      5.9440      2.7910    -10.1830      0.0100     78.3900
     72      4.8730      3.8380     -8.7500      1.5900     78.3900
     73      5.1190      3.3370     -7.4470      1.7700     78.3900
     74      5.9570      3.9440     -7.0390      0.0100     78.3900
     75      3.9570      3.5010     -6.5640      1.6800     78.3900
     76      3.9820      3.5530     -5.1950      1.7700     78.3900
     77      5.7510      3.4300     -2.2360      1.6800     78.3900
     78      6.6730      3.2410     -2.5710      0.0100     78.3900
     79      5.5880      3.4430     -1.2450      0.0100     78.3900
     80      5.0760      3.4400     -4.4190      1.6800     78.3900
     81      4.7850      3.5460     -3.1270      1.7700     78.3900
     82      3.5160      3.7770     -2.6490      1.6800     78.3900
     83      3.3610      3.8460     -1.6560      0.0100     78.3900
     84      2.3730      3.9100     -3.4330      1.7700     78.3900
     85      1.2540      4.1280     -2.9540      1.5900     78.3900
     86      2.6710      3.7580     -4.8120      1.7700     78.3900
     87      1.8310      3.8030     -5.9160      1.6800     78.3900
     88      2.6380      3.6430     -6.9340      1.7700     78.3900
     89      2.3330      3.6300     -7.9790      0.0100     78.3900
     90      5.5660      1.8980     -7.5790      1.7700     78.3900
     91      5.2460      1.2720     -6.7160      0.0100     78.3900
     92      6.9740      1.8250     -7.7210      1.5900     78.3900
     93      7.1880      0.8940     -7.8900      0.0100     78.3900
     94      4.8640      1.4670     -8.8630      1.7700     78.3900
     95      3.7820      1.2820     -8.6700      0.0100     78.3900
     96      5.4960      0.3690     -9.5700      1.5900     78.3900
     97      5.2400     -1.0930     -9.0430      2.1000     78.3900
     98      3.7800     -1.2940     -8.9430      1.5900     78.3900
     99      5.9890     -2.0610     -9.8740      1.5900     78.3900
    100      5.8660     -1.1360     -7.5980      1.5900     78.3900
    101      5.4170     -2.1650     -6.6780      1.7700     78.3900
    102      5.5620     -3.1860     -7.1050      0.0100     78.3900
    103      4.3290     -2.0420     -6.4620      0.0100     78.3900
    104      6.1690     -2.0880     -5.3400      1.7700     78.3900
    105      7.2510     -2.2990     -5.4820      0.0100     78.3900
    106      6.0580     -0.7430     -4.7910      1.5900     78.3900
    107      5.8980     -0.8090     -3.3840      1.7700     78.3900
    108      6.6980     -0.1720     -2.9390      0.0100     78.3900
    109      4.5850     -0.2840     -2.9810      1.6800     78.3900
    110      4.1740      0.0090     -1.7090      1.7700     78.3900
    111      4.7900      0.1260      1.6970      1.6800     78.3900
    112      5.7200     -0.2320      1.7730      0.0100     78.3900
    113      4.3140      0.4190      2.5310      0.0100     78.3900
    114      4.8970     -0.1550     -0.5910      1.6800     78.3900
    115      4.2420      0.2330      0.5000      1.7700     78.3900
    116      2.9720      0.7460      0.4680      1.6800     78.3900
    117      2.5480      1.0140      1.3420      0.0100     78.3900
    118      2.2010      0.9370     -0.6720      1.7700     78.3900
    119      1.0620      1.4080     -0.6080      1.5900     78.3900
    120      2.8890      0.5030     -1.8390      1.7700     78.3900
    121      2.4920      0.5050     -3.1720      1.6800     78.3900
    122      3.5350      0.0360     -3.8130      1.7700     78.3900
    123      3.6020     -0.1080     -4.8950      0.0100     78.3900
    124      6.1030     -2.2530     -2.9720      1.7700     78.3900
    125      5.5080     -2.5370     -2.0800      0.0100     78.3900
    126      7.4760     -2.4860     -2.7150      1.5900     78.3900
    127      7.5950     -3.4420     -2.6510      0.0100     78.3900
    128      5.6300     -2.9930     -4.2170      1.7700     78.3900
    129      4.5180     -2.9410     -4.2860      0.0100     78.3900
    130      6.1540     -4.3340     -4.3520      1.5900     78.3900
    131      5.2290     -5.5750     -4.0550      2.1000     78.3900
    132      3.8810     -5.3080     -4.5970      1.5900     78.3900
    133      5.9130     -6.8010     -4.5240      1.5900     78.3900
    134      5.1500     -5.5890     -2.4790      1.5900     78.3900
    135      6.3350     -5.9170     -1.7120      1.7700     78.3900
    136      7.1830     -5.2400     -1.9670      0.0100     78.3900
    137      6.6610     -6.9610     -1.9240      0.0100     78.3900
    138      6.0830     -5.8090     -0.2020      1.7700     78.3900
    139      6.9710     -6.1330      0.3780      0.0100     78.3900
    140      5.8340     -4.4190      0.1500      1.5900     78.3900
    141      4.8130     -4.3610      1.1370      1.7700     78.3900
    142      5.2540     -3.7980      1.9920      0.0100     78.3900
    143      3.5990     -3.6400      0.6650      1.6800     78.3900
    144      3.3700     -3.4780     -0.6820      1.7700     78.3900
    145      4.1270     -3.8890     -1.3480      0.0100     78.3900
    146      2.2980     -2.8180     -1.1350      1.7700     78.3900
    147      2.1210     -2.6570     -2.1950      0.0100     78.3900
    148      2.6780     -3.1460      1.5840      1.7700     78.3900
    149      2.8780     -3.3220      2.7950      1.5900     78.3900
    150      1.5840     -2.4800      1.1430      1.6800     78.3900
    151      1.3770     -2.3170     -0.1760      1.7700     78.3900
    152      0.2950     -1.6580     -0.5830      1.6800     78.3900
    153     -0.3350     -1.2790      0.0990      0.0100     78.3900
    154      0.1140     -1.4750     -1.5510      0.0100     78.3900
    155      4.5180     -5.7860      1.5840      1.7700     78.3900
    156      3.4520     -5.9260      1.8620      0.0100     78.3900
    157      5.3560     -6.1250      2.6780      1.5900     78.3900
    158      5.2960     -7.0840      2.8320      0.0100     78.3900
    159      4.8640     -6.5790      0.3270      1.7700     78.3900
    160      4.0470     -6.4910     -0.4220      0.0100     78.3900
    161      5.1940     -7.9620      0.5650      1.5900     78.3900
    162      4.4060     -8.4430      0.8730      0.0100     78.3900
    163     -6.4600      3.0700      6.8460      0.0100     78.3900
    164     -5.6140      2.5880      6.9100      1.5900     78.3900
    165     -5.5090      2.1200      8.2640      1.7700     78.3900
    166     -6.3850      1.4760      8.4940      0.0100     78.3900
    167     -5.5290      2.9910      8.9560      0.0100     78.3900
    168     -4.2310      1.3180      8.5280      1.7700     78.3900
    169     -4.1570      1.0240      9.5960      0.0100     78.3900
    170     -4.2360      0.0920      7.7370      1.5900     78.3900
    171     -2.9180     -0.1660      7.2750      1.7700     78.3900
    172     -2.6460     -1.1910      7.6150      0.0100     78.3900
    173     -2.8380     -0.1070      5.8100      1.6800     78.3900
    174     -1.8380     -0.6370      5.0390      1.7700     78.3900
    175      1.1770     -2.3200      4.7670      1.6800     78.3900
    176      1.4040     -2.5300      5.7180      0.0100     78.3900
    177      1.7750     -2.6620      4.0360      0.0100     78.3900
    178     -0.7520     -1.2870      5.4940      1.6800     78.3900
    179      0.0460     -1.6920      4.5080      1.7700     78.3900
    180     -0.2440     -1.4970      3.1820      1.6800     78.3900
    181      0.3940     -1.8680      2.4950      0.0100     78.3900
    182     -1.3670     -0.8500      2.6830      1.7700     78.3900
    183     -1.5500     -0.7200      1.4680      1.5900     78.3900
    184     -2.1960     -0.3710      3.7320      1.7700     78.3900
    185     -3.3890      0.3380      3.6800      1.6800     78.3900
    186     -3.7370      0.4730      4.9400      1.7700     78.3900
    187     -4.6420      0.9710      5.3040      0.0100     78.3900
    188     -2.0030      0.8350      7.9420      1.7700     78.3900
    189     -1.1200      1.0910      7.3210      0.0100     78.3900
    190     -1.5810      0.3310      9.1950      1.5900     78.3900
    191     -1.1610      1.0650      9.6610      0.0100     78.3900
    192     -2.9300      2.0270      8.1210      1.7700     78.3900
    193     -3.1270      2.5200      7.1410      0.0100     78.3900
    194     -2.5260      2.9590      9.1520      1.5900     78.3900
    195     -1.5890      4.1630      8.7530      2.1000     78.3900
    196     -2.1480      4.8130      7.5470      1.5900     78.3900
    197     -1.3920      5.0190      9.9440      1.5900     78.3900
    198     -0.2220      3.4950      8.3550      1.5900     78.3900
    199      0.6440      2.8830      9.3370      1.7700     78.3900
    200      0.1370      2.0520      9.8720      0.0100     78.3900
    201      0.9420      3.6260     10.1080      0.0100     78.3900
    202      1.9320      2.3400      8.6950      1.7700     78.3900
    203      2.6140      1.9250      9.4670      0.0100     78.3900
    204      1.6280      1.2600      7.7620      1.5900     78.3900
    205      2.4880      1.3630      6.6280      1.7700     78.3900
    206      3.0160      0.3830      6.5670      0.0100     78.3900
    207      1.7540      1.5980      5.3500      1.6800     78.3900
    208      0.5000      2.1620      5.3720      1.7700     78.3900
    209      0.0980      2.3800      6.3610      0.0100     78.3900
    210     -0.1870      2.3880      4.2440      1.7700     78.3900
    211     -1.1940      2.7990      4.2470      0.0100     78.3900
    212      2.3540      1.3050      4.1250      1.7700     78.3900
    213      3.5010      0.8350      4.1060      1.5900     78.3900
    214      1.6760      1.5260      2.9760      1.6800     78.3900
    215      0.4400      2.0500      3.0110      1.7700     78.3900
    216     -0.1940      2.2500      1.8610      1.6800     78.3900
    217      0.2510      1.9760      1.0030      0.0100     78.3900
    218     -1.1430      2.5630      1.8170      0.0100     78.3900
    219      3.4960      2.4590      6.9180      1.7700     78.3900
    220      3.8160      3.0080      6.0060      0.0100     78.3900
    221      4.6310      1.9320      7.5740      1.5900     78.3900
    222      5.1840      2.6980      7.7960      0.0100     78.3900
    223      2.7000      3.3660      7.8520      1.7700     78.3900
    224      1.9390      3.9350      7.2740      0.0100     78.3900
    225      3.4850      4.2200      8.7160      1.5900     78.3900
    226      4.1190      5.5190      8.0870      2.1000     78.3900
    227      3.2110      6.0320      7.0310      1.5900     78.3900
    228      4.4830      6.4340      9.1930      1.5900     78.3900
    229      5.4470      4.9760      7.4280      1.5900     78.3900
    230      6.0270      5.7600      6.3540      1.7700     78.3900
    231      6.3700      6.7580      6.7160      0.0100     78.3900
    232      5.2770      5.9550      5.5550      0.0100     78.3900
    233      7.2210      5.0460      5.7010      1.7700     78.3900
    234      8.0180      4.8440      6.4470      0.0100     78.3900
    235      6.8200      3.7600      5.1360      1.5900     78.3900
    236      7.3890      3.6090      3.8400      1.7700     78.3900
    237      7.8880      2.6140      3.8430      0.0100     78.3900
    238      6.3890      3.6360      2.7380      1.6800     78.3900
    239      5.0610      4.0310      2.7390      1.7700     78.3900
    240      2.3280      5.2710      4.4540      1.6800     78.3900
    241      1.4320      5.6630      4.2520      0.0100     78.3900
    242      2.7570      5.4780      5.3420      0.0100     78.3900
    243      4.3640      4.4990      3.7830      1.6800     78.3900
    244      3.1200      4.8160      3.5000      1.7700     78.3900
    245      2.5950      4.7000      2.2380      1.6800     78.3900
    246      1.6490      4.9970      2.0770      0.0100     78.3900
    247      3.2830      4.2070      1.1320      1.7700     78.3900
    248      2.7700      4.1010      0.0160      1.5900     78.3900
    249      4.6210      3.8590      1.4480      1.7700     78.3900
    250      5.6320      3.3640      0.6400      1.6800     78.3900
    251      6.6630      3.2450      1.4440      1.7700     78.3900
    252      7.6470      2.8750      1.1430      0.0100     78.3900
    253      8.4270      4.6960      3.6850      1.7700     78.3900
    254      8.5680      5.0140      2.6290      0.0100     78.3900
    255      9.6630      4.2570      4.2180      1.5900     78.3900
    256     10.2130      5.0400      4.3670      0.0100     78.3900
    257      7.8210      5.8200      4.5170      1.7700     78.3900
    258      6.9660      6.2800      3.9670      0.0100     78.3900
    259      8.7680      6.7940      5.0040      1.5900     78.3900
    260      9.0470      8.1140      4.1980      2.1000     78.3900
    261      7.8210      8.9390      4.2130      1.5900     78.3900
    262     10.2660      8.7380      4.7500      1.5900     78.3900
    263      9.3220      7.6530      2.7230      1.5900     78.3900
    264     10.6000      7.0900      2.3420      1.7700     78.3900
    265     10.7740      6.1160      2.8450      0.0100     78.3900
    266     11.4350      7.7610      2.6340      0.0100     78.3900
    267     10.6980      6.8570      0.8270      1.7700     78.3900
    268     11.7080      6.4710      0.5590      0.0100     78.3900
    269      9.7160      5.8570      0.4090      1.5900     78.3900
    270      9.1700      6.2300     -0.8520      1.7700     78.3900
    271      9.3310      5.3580     -1.5250      0.0100     78.3900
    272      7.7070      6.5410     -0.7690      1.6800     78.3900
    273      7.1020      6.8170      0.4370      1.7700     78.3900
    274      7.7620      6.8070      1.3020      0.0100     78.3900
    275      6.9720      6.5540     -1.9360      1.7700     78.3900
    276      7.4770      6.3410     -3.0320      1.5900     78.3900
    277      5.6340      6.8110     -1.7820      1.6800     78.3900
    278      5.0970      6.8580     -2.6410      0.0100     78.3900
    279      4.9590      7.0600     -0.6080      1.7700     78.3900
    280      3.7420      7.2330     -0.6150      1.5900     78.3900
    281      5.7910      7.0690      0.5570      1.7700     78.3900
    282      5.3320      7.2710      1.5210      0.0100     78.3900
    283      9.9890      7.4080     -1.3590      1.7700     78.3900
    284      9.3930      8.0920     -1.9950      0.0100     78.3900
    285     11.1150      6.9490     -2.0850      1.5900     78.3900
    286     11.6670      7.7220     -2.2580      0.0100     78.3900
    287     10.3970      8.0780     -0.0520      1.7700     78.3900
    288      9.5150      8.5850      0.4040      0.0100     78.3900
    289     11.5670      8.9240     -0.1380      1.5900     78.3900
    290     11.3960     10.4860     -0.1950      2.1000     78.3900
    291     10.3440     10.9170      0.7460      1.5900     78.3900
    292     12.7240     11.1160     -0.0360      1.5900     78.3900
    293     10.8820     10.7170     -1.6610      1.5900     78.3900
    294     11.7930     10.5070     -2.7660      1.7700     78.3900
    295     12.2150      9.4720     -2.7610      0.0100     78.3900
    296     12.6500     11.2200     -2.7100      0.0100     78.3900
    297     11.0660     10.7420     -4.0930      1.7700     78.3900
    298     11.7620     10.6660     -4.9540      0.0100     78.3900
    299     10.0420      9.7200     -4.2760      1.5900     78.3900
    300      8.8980     10.3170     -4.8760      1.7700     78.3900
    301      8.6800      9.7310     -5.8010      0.0100     78.3900
    302      7.7300     10.2570     -3.9880      1.6800     78.3900
    303      6.4240     10.3670     -4.3770      1.7700     78.3900
    304      4.0570     10.8840     -6.8540      1.6800     78.3900
    305      4.6190     10.9990     -7.6700      0.0100     78.3900
    306      3.0600     10.9700     -6.9330      0.0100     78.3900
    307      5.9910     10.5790     -5.6350      1.6800     78.3900
    308      4.6620     10.6590     -5.7030      1.7700     78.3900
    309      3.8470     10.5500     -4.6060      1.6800     78.3900
    310      2.8520     10.6350     -4.7440      0.0100     78.3900
    311      4.2680     10.3420     -3.2960      1.7700     78.3900
    312      3.4630     10.2640     -2.3620      1.5900     78.3900
    313      5.6840     10.2610     -3.2140      1.7700     78.3900
    314      6.5130     10.0920     -2.1070      1.6800     78.3900
    315      7.7220     10.0990     -2.6190      1.7700     78.3900
    316      8.6480      9.9930     -2.0520      0.0100     78.3900
    317      9.2620     11.7420     -5.2570      1.7700     78.3900
    318      8.3910     12.4300     -5.1890      0.0100     78.3900
    319      9.8050     11.7620     -6.5680      1.5900     78.3900
    320     10.1800     12.6440     -6.7340      0.0100     78.3900
    321     10.3090     12.0760     -4.2020      1.7700     78.3900
    322      9.8180     12.2990     -3.2280      0.0100     78.3900
    323     11.2080     13.1360     -4.5770      1.5900     78.3900
    324     10.7350     13.9900     -4.6030      0.0100     78.3900

     ----------------------------
     INPUT FOR TESSERA DEFINITION
     ----------------------------
     NTSALL  =        60     MTHALL  =         4
     MTHAUT  =         0     AUTFRE  =    2.0000
     NTSFRZ  =        60     KEEPSM  =         0
     AREAKP  =   10.0000     BONDRY  =    1.0000
     AREATL  =    0.0100

     SPHERE     INITS       METHOD
          1        60       FIXPVA
          2        60       FIXPVA
          3        60       FIXPVA
          4        60       FIXPVA
          5        60       FIXPVA
          6        60       FIXPVA
          7        60       FIXPVA
          8        60       FIXPVA
          9        60       FIXPVA
         10        60       FIXPVA
         11        60       FIXPVA
         12        60       FIXPVA
         13        60       FIXPVA
         14        60       FIXPVA
         15        60       FIXPVA
         16        60       FIXPVA
         17        60       FIXPVA
         18        60       FIXPVA
         19        60       FIXPVA
         20        60       FIXPVA
         21        60       FIXPVA
         22        60       FIXPVA
         23        60       FIXPVA
         24        60       FIXPVA
         25        60       FIXPVA
         26        60       FIXPVA
         27        60       FIXPVA
         28        60       FIXPVA
         29        60       FIXPVA
         30        60       FIXPVA
         31        60       FIXPVA
         32        60       FIXPVA
         33        60       FIXPVA
         34        60       FIXPVA
         35        60       FIXPVA
         36        60       FIXPVA
         37        60       FIXPVA
         38        60       FIXPVA
         39        60       FIXPVA
         40        60       FIXPVA
         41        60       FIXPVA
         42        60       FIXPVA
         43        60       FIXPVA
         44        60       FIXPVA
         45        60       FIXPVA
         46        60       FIXPVA
         47        60       FIXPVA
         48        60       FIXPVA
         49        60       FIXPVA
         50        60       FIXPVA
         51        60       FIXPVA
         52        60       FIXPVA
         53        60       FIXPVA
         54        60       FIXPVA
         55        60       FIXPVA
         56        60       FIXPVA
         57        60       FIXPVA
         58        60       FIXPVA
         59        60       FIXPVA
         60        60       FIXPVA
         61        60       FIXPVA
         62        60       FIXPVA
         63        60       FIXPVA
         64        60       FIXPVA
         65        60       FIXPVA
         66        60       FIXPVA
         67        60       FIXPVA
         68        60       FIXPVA
         69        60       FIXPVA
         70        60       FIXPVA
         71        60       FIXPVA
         72        60       FIXPVA
         73        60       FIXPVA
         74        60       FIXPVA
         75        60       FIXPVA
         76        60       FIXPVA
         77        60       FIXPVA
         78        60       FIXPVA
         79        60       FIXPVA
         80        60       FIXPVA
         81        60       FIXPVA
         82        60       FIXPVA
         83        60       FIXPVA
         84        60       FIXPVA
         85        60       FIXPVA
         86        60       FIXPVA
         87        60       FIXPVA
         88        60       FIXPVA
         89        60       FIXPVA
         90        60       FIXPVA
         91        60       FIXPVA
         92        60       FIXPVA
         93        60       FIXPVA
         94        60       FIXPVA
         95        60       FIXPVA
         96        60       FIXPVA
         97        60       FIXPVA
         98        60       FIXPVA
         99        60       FIXPVA
        100        60       FIXPVA
        101        60       FIXPVA
        102        60       FIXPVA
        103        60       FIXPVA
        104        60       FIXPVA
        105        60       FIXPVA
        106        60       FIXPVA
        107        60       FIXPVA
        108        60       FIXPVA
        109        60       FIXPVA
        110        60       FIXPVA
        111        60       FIXPVA
        112        60       FIXPVA
        113        60       FIXPVA
        114        60       FIXPVA
        115        60       FIXPVA
        116        60       FIXPVA
        117        60       FIXPVA
        118        60       FIXPVA
        119        60       FIXPVA
        120        60       FIXPVA
        121        60       FIXPVA
        122        60       FIXPVA
        123        60       FIXPVA
        124        60       FIXPVA
        125        60       FIXPVA
        126        60       FIXPVA
        127        60       FIXPVA
        128        60       FIXPVA
        129        60       FIXPVA
        130        60       FIXPVA
        131        60       FIXPVA
        132        60       FIXPVA
        133        60       FIXPVA
        134        60       FIXPVA
        135        60       FIXPVA
        136        60       FIXPVA
        137        60       FIXPVA
        138        60       FIXPVA
        139        60       FIXPVA
        140        60       FIXPVA
        141        60       FIXPVA
        142        60       FIXPVA
        143        60       FIXPVA
        144        60       FIXPVA
        145        60       FIXPVA
        146        60       FIXPVA
        147        60       FIXPVA
        148        60       FIXPVA
        149        60       FIXPVA
        150        60       FIXPVA
        151        60       FIXPVA
        152        60       FIXPVA
        153        60       FIXPVA
        154        60       FIXPVA
        155        60       FIXPVA
        156        60       FIXPVA
        157        60       FIXPVA
        158        60       FIXPVA
        159        60       FIXPVA
        160        60       FIXPVA
        161        60       FIXPVA
        162        60       FIXPVA
        163        60       FIXPVA
        164        60       FIXPVA
        165        60       FIXPVA
        166        60       FIXPVA
        167        60       FIXPVA
        168        60       FIXPVA
        169        60       FIXPVA
        170        60       FIXPVA
        171        60       FIXPVA
        172        60       FIXPVA
        173        60       FIXPVA
        174        60       FIXPVA
        175        60       FIXPVA
        176        60       FIXPVA
        177        60       FIXPVA
        178        60       FIXPVA
        179        60       FIXPVA
        180        60       FIXPVA
        181        60       FIXPVA
        182        60       FIXPVA
        183        60       FIXPVA
        184        60       FIXPVA
        185        60       FIXPVA
        186        60       FIXPVA
        187        60       FIXPVA
        188        60       FIXPVA
        189        60       FIXPVA
        190        60       FIXPVA
        191        60       FIXPVA
        192        60       FIXPVA
        193        60       FIXPVA
        194        60       FIXPVA
        195        60       FIXPVA
        196        60       FIXPVA
        197        60       FIXPVA
        198        60       FIXPVA
        199        60       FIXPVA
        200        60       FIXPVA
        201        60       FIXPVA
        202        60       FIXPVA
        203        60       FIXPVA
        204        60       FIXPVA
        205        60       FIXPVA
        206        60       FIXPVA
        207        60       FIXPVA
        208        60       FIXPVA
        209        60       FIXPVA
        210        60       FIXPVA
        211        60       FIXPVA
        212        60       FIXPVA
        213        60       FIXPVA
        214        60       FIXPVA
        215        60       FIXPVA
        216        60       FIXPVA
        217        60       FIXPVA
        218        60       FIXPVA
        219        60       FIXPVA
        220        60       FIXPVA
        221        60       FIXPVA
        222        60       FIXPVA
        223        60       FIXPVA
        224        60       FIXPVA
        225        60       FIXPVA
        226        60       FIXPVA
        227        60       FIXPVA
        228        60       FIXPVA
        229        60       FIXPVA
        230        60       FIXPVA
        231        60       FIXPVA
        232        60       FIXPVA
        233        60       FIXPVA
        234        60       FIXPVA
        235        60       FIXPVA
        236        60       FIXPVA
        237        60       FIXPVA
        238        60       FIXPVA
        239        60       FIXPVA
        240        60       FIXPVA
        241        60       FIXPVA
        242        60       FIXPVA
        243        60       FIXPVA
        244        60       FIXPVA
        245        60       FIXPVA
        246        60       FIXPVA
        247        60       FIXPVA
        248        60       FIXPVA
        249        60       FIXPVA
        250        60       FIXPVA
        251        60       FIXPVA
        252        60       FIXPVA
        253        60       FIXPVA
        254        60       FIXPVA
        255        60       FIXPVA
        256        60       FIXPVA
        257        60       FIXPVA
        258        60       FIXPVA
        259        60       FIXPVA
        260        60       FIXPVA
        261        60       FIXPVA
        262        60       FIXPVA
        263        60       FIXPVA
        264        60       FIXPVA
        265        60       FIXPVA
        266        60       FIXPVA
        267        60       FIXPVA
        268        60       FIXPVA
        269        60       FIXPVA
        270        60       FIXPVA
        271        60       FIXPVA
        272        60       FIXPVA
        273        60       FIXPVA
        274        60       FIXPVA
        275        60       FIXPVA
        276        60       FIXPVA
        277        60       FIXPVA
        278        60       FIXPVA
        279        60       FIXPVA
        280        60       FIXPVA
        281        60       FIXPVA
        282        60       FIXPVA
        283        60       FIXPVA
        284        60       FIXPVA
        285        60       FIXPVA
        286        60       FIXPVA
        287        60       FIXPVA
        288        60       FIXPVA
        289        60       FIXPVA
        290        60       FIXPVA
        291        60       FIXPVA
        292        60       FIXPVA
        293        60       FIXPVA
        294        60       FIXPVA
        295        60       FIXPVA
        296        60       FIXPVA
        297        60       FIXPVA
        298        60       FIXPVA
        299        60       FIXPVA
        300        60       FIXPVA
        301        60       FIXPVA
        302        60       FIXPVA
        303        60       FIXPVA
        304        60       FIXPVA
        305        60       FIXPVA
        306        60       FIXPVA
        307        60       FIXPVA
        308        60       FIXPVA
        309        60       FIXPVA
        310        60       FIXPVA
        311        60       FIXPVA
        312        60       FIXPVA
        313        60       FIXPVA
        314        60       FIXPVA
        315        60       FIXPVA
        316        60       FIXPVA
        317        60       FIXPVA
        318        60       FIXPVA
        319        60       FIXPVA
        320        60       FIXPVA
        321        60       FIXPVA
        322        60       FIXPVA
        323        60       FIXPVA
        324        60       FIXPVA

     ------------------------------
      FIXPVA TESSELLATION FOR PCM
         PEIFENG SU AND HUI LI
     UNIVERSITY OF NEBRASKA-LINCOLN
     ------------------------------


 PCM DIMENSIONS: MXSP=   324, MXTS=     12960, MEMORY=        133167

     INPUT FOR CAVITY DEFINITION 
     ---------------------------
   ATOM               COORDINATES                RADIUS       EPS
      1     -5.7300     10.3370     -6.1550      0.0100     78.3900
      2     -4.8180     10.3580     -6.5010      1.5900     78.3900
      3     -4.8980     10.8640     -7.8420      1.7700     78.3900
      4     -5.3350     11.8890     -7.8220      0.0100     78.3900
      5     -5.5670     10.2080     -8.4410      0.0100     78.3900
      6     -3.5440     10.9290     -8.5540      1.7700     78.3900
      7     -3.6660     11.2730     -9.6000      0.0100     78.3900
      8     -2.6770     11.8910     -7.8880      1.5900     78.3900
      9     -1.3490     11.3880     -7.8700      1.7700     78.3900
     10     -0.7180     12.1760     -8.3430      0.0100     78.3900
     11     -0.8470     11.1330     -6.4920      1.6800     78.3900
     12     -1.7290     11.0170     -5.4400      1.7700     78.3900
     13     -2.7870     11.1250     -5.6810      0.0100     78.3900
     14     -1.3010     10.8150     -4.1880      1.7700     78.3900
     15     -1.9830     10.7410     -3.3440      0.0100     78.3900
     16      0.5190     10.9950     -6.2610      1.7700     78.3900
     17      1.3060     11.0710     -7.2170      1.5900     78.3900
     18      0.9730     10.8060     -5.0010      1.6800     78.3900
     19      0.1030     10.7170     -3.9790      1.7700     78.3900
     20      0.5750     10.5480     -2.7450      1.6800     78.3900
     21      1.5630     10.4610     -2.5970      0.0100     78.3900
     22     -0.0330     10.5350     -1.9490      0.0100     78.3900
     23     -1.3240     10.1500     -8.7420      1.7700     78.3900
     24     -0.5690      9.4100     -8.4100      0.0100     78.3900
     25     -1.0720     10.5130    -10.0850      1.5900     78.3900
     26     -1.1030      9.6970    -10.5970      0.0100     78.3900
     27     -2.7430      9.6180     -8.5710      1.7700     78.3900
     28     -2.8620      9.1550     -7.5640      0.0100     78.3900
     29     -3.2190      8.7660     -9.6440      1.5900     78.3900
     30     -2.9620      7.2120     -9.5540      2.1000     78.3900
     31     -3.4520      6.7240     -8.2490      1.5900     78.3900
     32     -3.5480      6.5680    -10.7510      1.5900     78.3900
     33     -1.3890      7.0880     -9.6120      1.5900     78.3900
     34     -0.7250      7.2670    -10.8900      1.7700     78.3900
     35     -0.9440      8.2670    -11.3310      0.0100     78.3900
     36     -1.0710      6.4980    -11.6160      0.0100     78.3900
     37      0.7960      7.1350    -10.7490      1.7700     78.3900
     38      1.3140      7.3370    -11.7100      0.0100     78.3900
     39      1.2860      8.1080     -9.7800      1.5900     78.3900
     40      2.3280      7.5260     -9.0170      1.7700     78.3900
     41      3.2200      8.1850     -9.1330      0.0100     78.3900
     42      1.9710      7.4470     -7.5950      1.6800     78.3900
     43      2.0700      7.3220     -5.4040      1.7700     78.3900
     44      0.7240      7.4560     -5.7210      1.6800     78.3900
     45      0.7180      7.5180     -7.0290      1.7700     78.3900
     46     -0.1750      7.6190     -7.6460      0.0100     78.3900
     47      4.0960      7.0450     -4.2100      1.6800     78.3900
     48      4.7020      7.0060     -5.4000      1.7700     78.3900
     49      5.7890      6.8670     -5.3680      0.0100     78.3900
     50      4.1790      7.1620     -6.6200      1.6800     78.3900
     51      2.8450      7.3040     -6.5500      1.7700     78.3900
     52      2.7500      7.2090     -4.1740      1.7700     78.3900
     53      2.1320      7.2750     -2.9820      1.6800     78.3900
     54      1.1330      7.3480     -2.9070      0.0100     78.3900
     55      2.6740      7.2740     -2.1370      0.0100     78.3900
     56      2.6250      6.1690     -9.6160      1.7700     78.3900
     57      2.9580      5.4340     -8.8570      0.0100     78.3900
     58      3.6040      6.2960    -10.6270      1.5900     78.3900
     59      3.6480      5.4400    -11.0700      0.0100     78.3900
     60      1.2770      5.7780    -10.2100      1.7700     78.3900
     61      0.5620      5.4910     -9.4030      0.0100     78.3900
     62      1.3500      4.8030    -11.2840      1.5900     78.3900
     63      1.2070      3.2720    -10.9230      2.1000     78.3900
     64      0.0530      3.1260    -10.0110      1.5900     78.3900
     65      1.1520      2.4860    -12.1780      1.5900     78.3900
     66      2.5220      2.9230    -10.1340      1.5900     78.3900
     67      3.8270      2.9140    -10.7510      1.7700     78.3900
     68      4.0120      3.8460    -11.3300      0.0100     78.3900
     69      3.9210      2.0670    -11.4620      0.0100     78.3900
     70      4.9410      2.7500     -9.7070      1.7700     78.3900
     71      5.9440      2.7910    -10.1830      0.0100     78.3900
     72      4.8730      3.8380     -8.7500      1.5900     78.3900
     73      5.1190      3.3370     -7.4470      1.7700     78.3900
     74      5.9570      3.9440     -7.0390      0.0100     78.3900
     75      3.9570      3.5010     -6.5640      1.6800     78.3900
     76      3.9820      3.5530     -5.1950      1.7700     78.3900
     77      5.7510      3.4300     -2.2360      1.6800     78.3900
     78      6.6730      3.2410     -2.5710      0.0100     78.3900
     79      5.5880      3.4430     -1.2450      0.0100     78.3900
     80      5.0760      3.4400     -4.4190      1.6800     78.3900
     81      4.7850      3.5460     -3.1270      1.7700     78.3900
     82      3.5160      3.7770     -2.6490      1.6800     78.3900
     83      3.3610      3.8460     -1.6560      0.0100     78.3900
     84      2.3730      3.9100     -3.4330      1.7700     78.3900
     85      1.2540      4.1280     -2.9540      1.5900     78.3900
     86      2.6710      3.7580     -4.8120      1.7700     78.3900
     87      1.8310      3.8030     -5.9160      1.6800     78.3900
     88      2.6380      3.6430     -6.9340      1.7700     78.3900
     89      2.3330      3.6300     -7.9790      0.0100     78.3900
     90      5.5660      1.8980     -7.5790      1.7700     78.3900
     91      5.2460      1.2720     -6.7160      0.0100     78.3900
     92      6.9740      1.8250     -7.7210      1.5900     78.3900
     93      7.1880      0.8940     -7.8900      0.0100     78.3900
     94      4.8640      1.4670     -8.8630      1.7700     78.3900
     95      3.7820      1.2820     -8.6700      0.0100     78.3900
     96      5.4960      0.3690     -9.5700      1.5900     78.3900
     97      5.2400     -1.0930     -9.0430      2.1000     78.3900
     98      3.7800     -1.2940     -8.9430      1.5900     78.3900
     99      5.9890     -2.0610     -9.8740      1.5900     78.3900
    100      5.8660     -1.1360     -7.5980      1.5900     78.3900
    101      5.4170     -2.1650     -6.6780      1.7700     78.3900
    102      5.5620     -3.1860     -7.1050      0.0100     78.3900
    103      4.3290     -2.0420     -6.4620      0.0100     78.3900
    104      6.1690     -2.0880     -5.3400      1.7700     78.3900
    105      7.2510     -2.2990     -5.4820      0.0100     78.3900
    106      6.0580     -0.7430     -4.7910      1.5900     78.3900
    107      5.8980     -0.8090     -3.3840      1.7700     78.3900
    108      6.6980     -0.1720     -2.9390      0.0100     78.3900
    109      4.5850     -0.2840     -2.9810      1.6800     78.3900
    110      4.1740      0.0090     -1.7090      1.7700     78.3900
    111      4.7900      0.1260      1.6970      1.6800     78.3900
    112      5.7200     -0.2320      1.7730      0.0100     78.3900
    113      4.3140      0.4190      2.5310      0.0100     78.3900
    114      4.8970     -0.1550     -0.5910      1.6800     78.3900
    115      4.2420      0.2330      0.5000      1.7700     78.3900
    116      2.9720      0.7460      0.4680      1.6800     78.3900
    117      2.5480      1.0140      1.3420      0.0100     78.3900
    118      2.2010      0.9370     -0.6720      1.7700     78.3900
    119      1.0620      1.4080     -0.6080      1.5900     78.3900
    120      2.8890      0.5030     -1.8390      1.7700     78.3900
    121      2.4920      0.5050     -3.1720      1.6800     78.3900
    122      3.5350      0.0360     -3.8130      1.7700     78.3900
    123      3.6020     -0.1080     -4.8950      0.0100     78.3900
    124      6.1030     -2.2530     -2.9720      1.7700     78.3900
    125      5.5080     -2.5370     -2.0800      0.0100     78.3900
    126      7.4760     -2.4860     -2.7150      1.5900     78.3900
    127      7.5950     -3.4420     -2.6510      0.0100     78.3900
    128      5.6300     -2.9930     -4.2170      1.7700     78.3900
    129      4.5180     -2.9410     -4.2860      0.0100     78.3900
    130      6.1540     -4.3340     -4.3520      1.5900     78.3900
    131      5.2290     -5.5750     -4.0550      2.1000     78.3900
    132      3.8810     -5.3080     -4.5970      1.5900     78.3900
    133      5.9130     -6.8010     -4.5240      1.5900     78.3900
    134      5.1500     -5.5890     -2.4790      1.5900     78.3900
    135      6.3350     -5.9170     -1.7120      1.7700     78.3900
    136      7.1830     -5.2400     -1.9670      0.0100     78.3900
    137      6.6610     -6.9610     -1.9240      0.0100     78.3900
    138      6.0830     -5.8090     -0.2020      1.7700     78.3900
    139      6.9710     -6.1330      0.3780      0.0100     78.3900
    140      5.8340     -4.4190      0.1500      1.5900     78.3900
    141      4.8130     -4.3610      1.1370      1.7700     78.3900
    142      5.2540     -3.7980      1.9920      0.0100     78.3900
    143      3.5990     -3.6400      0.6650      1.6800     78.3900
    144      3.3700     -3.4780     -0.6820      1.7700     78.3900
    145      4.1270     -3.8890     -1.3480      0.0100     78.3900
    146      2.2980     -2.8180     -1.1350      1.7700     78.3900
    147      2.1210     -2.6570     -2.1950      0.0100     78.3900
    148      2.6780     -3.1460      1.5840      1.7700     78.3900
    149      2.8780     -3.3220      2.7950      1.5900     78.3900
    150      1.5840     -2.4800      1.1430      1.6800     78.3900
    151      1.3770     -2.3170     -0.1760      1.7700     78.3900
    152      0.2950     -1.6580     -0.5830      1.6800     78.3900
    153     -0.3350     -1.2790      0.0990      0.0100     78.3900
    154      0.1140     -1.4750     -1.5510      0.0100     78.3900
    155      4.5180     -5.7860      1.5840      1.7700     78.3900
    156      3.4520     -5.9260      1.8620      0.0100     78.3900
    157      5.3560     -6.1250      2.6780      1.5900     78.3900
    158      5.2960     -7.0840      2.8320      0.0100     78.3900
    159      4.8640     -6.5790      0.3270      1.7700     78.3900
    160      4.0470     -6.4910     -0.4220      0.0100     78.3900
    161      5.1940     -7.9620      0.5650      1.5900     78.3900
    162      4.4060     -8.4430      0.8730      0.0100     78.3900
    163     -6.4600      3.0700      6.8460      0.0100     78.3900
    164     -5.6140      2.5880      6.9100      1.5900     78.3900
    165     -5.5090      2.1200      8.2640      1.7700     78.3900
    166     -6.3850      1.4760      8.4940      0.0100     78.3900
    167     -5.5290      2.9910      8.9560      0.0100     78.3900
    168     -4.2310      1.3180      8.5280      1.7700     78.3900
    169     -4.1570      1.0240      9.5960      0.0100     78.3900
    170     -4.2360      0.0920      7.7370      1.5900     78.3900
    171     -2.9180     -0.1660      7.2750      1.7700     78.3900
    172     -2.6460     -1.1910      7.6150      0.0100     78.3900
    173     -2.8380     -0.1070      5.8100      1.6800     78.3900
    174     -1.8380     -0.6370      5.0390      1.7700     78.3900
    175      1.1770     -2.3200      4.7670      1.6800     78.3900
    176      1.4040     -2.5300      5.7180      0.0100     78.3900
    177      1.7750     -2.6620      4.0360      0.0100     78.3900
    178     -0.7520     -1.2870      5.4940      1.6800     78.3900
    179      0.0460     -1.6920      4.5080      1.7700     78.3900
    180     -0.2440     -1.4970      3.1820      1.6800     78.3900
    181      0.3940     -1.8680      2.4950      0.0100     78.3900
    182     -1.3670     -0.8500      2.6830      1.7700     78.3900
    183     -1.5500     -0.7200      1.4680      1.5900     78.3900
    184     -2.1960     -0.3710      3.7320      1.7700     78.3900
    185     -3.3890      0.3380      3.6800      1.6800     78.3900
    186     -3.7370      0.4730      4.9400      1.7700     78.3900
    187     -4.6420      0.9710      5.3040      0.0100     78.3900
    188     -2.0030      0.8350      7.9420      1.7700     78.3900
    189     -1.1200      1.0910      7.3210      0.0100     78.3900
    190     -1.5810      0.3310      9.1950      1.5900     78.3900
    191     -1.1610      1.0650      9.6610      0.0100     78.3900
    192     -2.9300      2.0270      8.1210      1.7700     78.3900
    193     -3.1270      2.5200      7.1410      0.0100     78.3900
    194     -2.5260      2.9590      9.1520      1.5900     78.3900
    195     -1.5890      4.1630      8.7530      2.1000     78.3900
    196     -2.1480      4.8130      7.5470      1.5900     78.3900
    197     -1.3920      5.0190      9.9440      1.5900     78.3900
    198     -0.2220      3.4950      8.3550      1.5900     78.3900
    199      0.6440      2.8830      9.3370      1.7700     78.3900
    200      0.1370      2.0520      9.8720      0.0100     78.3900
    201      0.9420      3.6260     10.1080      0.0100     78.3900
    202      1.9320      2.3400      8.6950      1.7700     78.3900
    203      2.6140      1.9250      9.4670      0.0100     78.3900
    204      1.6280      1.2600      7.7620      1.5900     78.3900
    205      2.4880      1.3630      6.6280      1.7700     78.3900
    206      3.0160      0.3830      6.5670      0.0100     78.3900
    207      1.7540      1.5980      5.3500      1.6800     78.3900
    208      0.5000      2.1620      5.3720      1.7700     78.3900
    209      0.0980      2.3800      6.3610      0.0100     78.3900
    210     -0.1870      2.3880      4.2440      1.7700     78.3900
    211     -1.1940      2.7990      4.2470      0.0100     78.3900
    212      2.3540      1.3050      4.1250      1.7700     78.3900
    213      3.5010      0.8350      4.1060      1.5900     78.3900
    214      1.6760      1.5260      2.9760      1.6800     78.3900
    215      0.4400      2.0500      3.0110      1.7700     78.3900
    216     -0.1940      2.2500      1.8610      1.6800     78.3900
    217      0.2510      1.9760      1.0030      0.0100     78.3900
    218     -1.1430      2.5630      1.8170      0.0100     78.3900
    219      3.4960      2.4590      6.9180      1.7700     78.3900
    220      3.8160      3.0080      6.0060      0.0100     78.3900
    221      4.6310      1.9320      7.5740      1.5900     78.3900
    222      5.1840      2.6980      7.7960      0.0100     78.3900
    223      2.7000      3.3660      7.8520      1.7700     78.3900
    224      1.9390      3.9350      7.2740      0.0100     78.3900
    225      3.4850      4.2200      8.7160      1.5900     78.3900
    226      4.1190      5.5190      8.0870      2.1000     78.3900
    227      3.2110      6.0320      7.0310      1.5900     78.3900
    228      4.4830      6.4340      9.1930      1.5900     78.3900
    229      5.4470      4.9760      7.4280      1.5900     78.3900
    230      6.0270      5.7600      6.3540      1.7700     78.3900
    231      6.3700      6.7580      6.7160      0.0100     78.3900
    232      5.2770      5.9550      5.5550      0.0100     78.3900
    233      7.2210      5.0460      5.7010      1.7700     78.3900
    234      8.0180      4.8440      6.4470      0.0100     78.3900
    235      6.8200      3.7600      5.1360      1.5900     78.3900
    236      7.3890      3.6090      3.8400      1.7700     78.3900
    237      7.8880      2.6140      3.8430      0.0100     78.3900
    238      6.3890      3.6360      2.7380      1.6800     78.3900
    239      5.0610      4.0310      2.7390      1.7700     78.3900
    240      2.3280      5.2710      4.4540      1.6800     78.3900
    241      1.4320      5.6630      4.2520      0.0100     78.3900
    242      2.7570      5.4780      5.3420      0.0100     78.3900
    243      4.3640      4.4990      3.7830      1.6800     78.3900
    244      3.1200      4.8160      3.5000      1.7700     78.3900
    245      2.5950      4.7000      2.2380      1.6800     78.3900
    246      1.6490      4.9970      2.0770      0.0100     78.3900
    247      3.2830      4.2070      1.1320      1.7700     78.3900
    248      2.7700      4.1010      0.0160      1.5900     78.3900
    249      4.6210      3.8590      1.4480      1.7700     78.3900
    250      5.6320      3.3640      0.6400      1.6800     78.3900
    251      6.6630      3.2450      1.4440      1.7700     78.3900
    252      7.6470      2.8750      1.1430      0.0100     78.3900
    253      8.4270      4.6960      3.6850      1.7700     78.3900
    254      8.5680      5.0140      2.6290      0.0100     78.3900
    255      9.6630      4.2570      4.2180      1.5900     78.3900
    256     10.2130      5.0400      4.3670      0.0100     78.3900
    257      7.8210      5.8200      4.5170      1.7700     78.3900
    258      6.9660      6.2800      3.9670      0.0100     78.3900
    259      8.7680      6.7940      5.0040      1.5900     78.3900
    260      9.0470      8.1140      4.1980      2.1000     78.3900
    261      7.8210      8.9390      4.2130      1.5900     78.3900
    262     10.2660      8.7380      4.7500      1.5900     78.3900
    263      9.3220      7.6530      2.7230      1.5900     78.3900
    264     10.6000      7.0900      2.3420      1.7700     78.3900
    265     10.7740      6.1160      2.8450      0.0100     78.3900
    266     11.4350      7.7610      2.6340      0.0100     78.3900
    267     10.6980      6.8570      0.8270      1.7700     78.3900
    268     11.7080      6.4710      0.5590      0.0100     78.3900
    269      9.7160      5.8570      0.4090      1.5900     78.3900
    270      9.1700      6.2300     -0.8520      1.7700     78.3900
    271      9.3310      5.3580     -1.5250      0.0100     78.3900
    272      7.7070      6.5410     -0.7690      1.6800     78.3900
    273      7.1020      6.8170      0.4370      1.7700     78.3900
    274      7.7620      6.8070      1.3020      0.0100     78.3900
    275      6.9720      6.5540     -1.9360      1.7700     78.3900
    276      7.4770      6.3410     -3.0320      1.5900     78.3900
    277      5.6340      6.8110     -1.7820      1.6800     78.3900
    278      5.0970      6.8580     -2.6410      0.0100     78.3900
    279      4.9590      7.0600     -0.6080      1.7700     78.3900
    280      3.7420      7.2330     -0.6150      1.5900     78.3900
    281      5.7910      7.0690      0.5570      1.7700     78.3900
    282      5.3320      7.2710      1.5210      0.0100     78.3900
    283      9.9890      7.4080     -1.3590      1.7700     78.3900
    284      9.3930      8.0920     -1.9950      0.0100     78.3900
    285     11.1150      6.9490     -2.0850      1.5900     78.3900
    286     11.6670      7.7220     -2.2580      0.0100     78.3900
    287     10.3970      8.0780     -0.0520      1.7700     78.3900
    288      9.5150      8.5850      0.4040      0.0100     78.3900
    289     11.5670      8.9240     -0.1380      1.5900     78.3900
    290     11.3960     10.4860     -0.1950      2.1000     78.3900
    291     10.3440     10.9170      0.7460      1.5900     78.3900
    292     12.7240     11.1160     -0.0360      1.5900     78.3900
    293     10.8820     10.7170     -1.6610      1.5900     78.3900
    294     11.7930     10.5070     -2.7660      1.7700     78.3900
    295     12.2150      9.4720     -2.7610      0.0100     78.3900
    296     12.6500     11.2200     -2.7100      0.0100     78.3900
    297     11.0660     10.7420     -4.0930      1.7700     78.3900
    298     11.7620     10.6660     -4.9540      0.0100     78.3900
    299     10.0420      9.7200     -4.2760      1.5900     78.3900
    300      8.8980     10.3170     -4.8760      1.7700     78.3900
    301      8.6800      9.7310     -5.8010      0.0100     78.3900
    302      7.7300     10.2570     -3.9880      1.6800     78.3900
    303      6.4240     10.3670     -4.3770      1.7700     78.3900
    304      4.0570     10.8840     -6.8540      1.6800     78.3900
    305      4.6190     10.9990     -7.6700      0.0100     78.3900
    306      3.0600     10.9700     -6.9330      0.0100     78.3900
    307      5.9910     10.5790     -5.6350      1.6800     78.3900
    308      4.6620     10.6590     -5.7030      1.7700     78.3900
    309      3.8470     10.5500     -4.6060      1.6800     78.3900
    310      2.8520     10.6350     -4.7440      0.0100     78.3900
    311      4.2680     10.3420     -3.2960      1.7700     78.3900
    312      3.4630     10.2640     -2.3620      1.5900     78.3900
    313      5.6840     10.2610     -3.2140      1.7700     78.3900
    314      6.5130     10.0920     -2.1070      1.6800     78.3900
    315      7.7220     10.0990     -2.6190      1.7700     78.3900
    316      8.6480      9.9930     -2.0520      0.0100     78.3900
    317      9.2620     11.7420     -5.2570      1.7700     78.3900
    318      8.3910     12.4300     -5.1890      0.0100     78.3900
    319      9.8050     11.7620     -6.5680      1.5900     78.3900
    320     10.1800     12.6440     -6.7340      0.0100     78.3900
    321     10.3090     12.0760     -4.2020      1.7700     78.3900
    322      9.8180     12.2990     -3.2280      0.0100     78.3900
    323     11.2080     13.1360     -4.5770      1.5900     78.3900
    324     10.7350     13.9900     -4.6030      0.0100     78.3900

 CREATION OF A NEW CAVITY WITH THE ORIGINAL SPHERE
 SIZES FOR THE COMPUTATION OF THE CAVITATION ENERGY.

     INPUT FOR CAVITY DEFINITION 
     ---------------------------
   ATOM               COORDINATES                RADIUS       EPS
      1     -5.7300     10.3370     -6.1550      0.0100     78.3900
      2     -4.8180     10.3580     -6.5010      1.5900     78.3900
      3     -4.8980     10.8640     -7.8420      1.7700     78.3900
      4     -5.3350     11.8890     -7.8220      0.0100     78.3900
      5     -5.5670     10.2080     -8.4410      0.0100     78.3900
      6     -3.5440     10.9290     -8.5540      1.7700     78.3900
      7     -3.6660     11.2730     -9.6000      0.0100     78.3900
      8     -2.6770     11.8910     -7.8880      1.5900     78.3900
      9     -1.3490     11.3880     -7.8700      1.7700     78.3900
     10     -0.7180     12.1760     -8.3430      0.0100     78.3900
     11     -0.8470     11.1330     -6.4920      1.6800     78.3900
     12     -1.7290     11.0170     -5.4400      1.7700     78.3900
     13     -2.7870     11.1250     -5.6810      0.0100     78.3900
     14     -1.3010     10.8150     -4.1880      1.7700     78.3900
     15     -1.9830     10.7410     -3.3440      0.0100     78.3900
     16      0.5190     10.9950     -6.2610      1.7700     78.3900
     17      1.3060     11.0710     -7.2170      1.5900     78.3900
     18      0.9730     10.8060     -5.0010      1.6800     78.3900
     19      0.1030     10.7170     -3.9790      1.7700     78.3900
     20      0.5750     10.5480     -2.7450      1.6800     78.3900
     21      1.5630     10.4610     -2.5970      0.0100     78.3900
     22     -0.0330     10.5350     -1.9490      0.0100     78.3900
     23     -1.3240     10.1500     -8.7420      1.7700     78.3900
     24     -0.5690      9.4100     -8.4100      0.0100     78.3900
     25     -1.0720     10.5130    -10.0850      1.5900     78.3900
     26     -1.1030      9.6970    -10.5970      0.0100     78.3900
     27     -2.7430      9.6180     -8.5710      1.7700     78.3900
     28     -2.8620      9.1550     -7.5640      0.0100     78.3900
     29     -3.2190      8.7660     -9.6440      1.5900     78.3900
     30     -2.9620      7.2120     -9.5540      2.1000     78.3900
     31     -3.4520      6.7240     -8.2490      1.5900     78.3900
     32     -3.5480      6.5680    -10.7510      1.5900     78.3900
     33     -1.3890      7.0880     -9.6120      1.5900     78.3900
     34     -0.7250      7.2670    -10.8900      1.7700     78.3900
     35     -0.9440      8.2670    -11.3310      0.0100     78.3900
     36     -1.0710      6.4980    -11.6160      0.0100     78.3900
     37      0.7960      7.1350    -10.7490      1.7700     78.3900
     38      1.3140      7.3370    -11.7100      0.0100     78.3900
     39      1.2860      8.1080     -9.7800      1.5900     78.3900
[...]
   272    9   7.0   0.00    0.0    0.000000   -0.840241   -0.848195
   273    9   6.0   1.46    2.6    0.002615    0.195264    0.178678
   274    9   1.0   0.00    0.0    0.000000    0.304411    0.326875
   275    9   6.0   0.00    0.0    0.000000    1.131591    1.141233
   276    9   8.0   9.29   20.3    0.144667   -0.688700   -0.704582
   277    9   7.0   0.00    0.0    0.000000   -0.931223   -1.014683
   278    9   1.0   0.00    0.0    0.000000    0.487348    0.548900
   279    9   6.0   0.70    1.2    0.009778    0.905451    0.907351
   280    9   8.0   7.13   15.6    0.129484   -0.732588   -0.716432
   281    9   6.0   6.55   11.6   -0.016286   -0.450841   -0.452328
   282    9   1.0   0.00    0.0    0.000000    0.259910    0.260830
   283    9   6.0   0.20    0.3    0.004864    0.137844    0.108809
   284    9   1.0   0.00    0.0    0.000000    0.201560    0.227795
   285    9   8.0  16.54   36.2    0.091637   -0.820876   -0.839126
   286    9   1.0   0.00    0.0    0.000000    0.492810    0.514413
   287    9   6.0   0.95    1.7   -0.020183    0.138367    0.106508
   288    9   1.0   0.00    0.0    0.000000    0.251486    0.254267
   289    9   8.0   3.84    8.4    0.051854   -0.793762   -0.801253
   290    9  15.0   8.64   10.8    0.123593    1.599128    1.659564
   291    9   8.0  13.99   30.6    0.308323   -0.889618   -0.889535
   292    9   8.0  18.23   39.8    0.357918   -0.895764   -0.889304
   293    9   8.0   1.36    3.0    0.029525   -0.969739   -0.784057
   294   10   6.0  11.51   20.3   -0.093167    0.202023   -0.024566
   295   10   1.0   0.00    0.0    0.000000    0.172543    0.177840
   296   10   1.0   0.00    0.0    0.000000    0.239334    0.219716
   297   10   6.0   6.64   11.7   -0.042084    0.089360    0.158606
   298   10   1.0   0.00    0.0    0.000000    0.245334    0.216218
   299   10   8.0   4.56   10.0    0.053637   -0.727486   -0.733662
   300   10   6.0   6.96   12.3   -0.042400    0.415404    0.416288
   301   10   1.0   0.00    0.0    0.000000    0.252777    0.249509
   302   10   7.0   0.00    0.0    0.000000   -0.793000   -0.803617
   303   10   6.0   1.02    1.8    0.002587    0.709376    0.713019
   304   10   7.0  15.29   29.9   -0.092286   -0.967935   -1.052821
   305   10   1.0   0.00    0.0    0.000000    0.444264    0.438020
   306   10   1.0   0.00    0.0    0.000000    0.474003    0.523273
   307   10   7.0   7.01   13.7    0.110570   -0.758919   -0.761814
   308   10   6.0   0.95    1.7   -0.002308    0.983365    0.980914
   309   10   7.0   2.26    4.4    0.002984   -0.941230   -1.030507
   310   10   1.0   0.00    0.0    0.000000    0.482675    0.540113
   311   10   6.0   1.50    2.6    0.002271    0.880103    0.882504
   312   10   8.0   9.03   19.7    0.150334   -0.750840   -0.737251
   313   10   6.0   2.84    5.0    0.014819   -0.054792   -0.047250
   314   10   7.0   7.07   13.8    0.113494   -0.594067   -0.595284
   315   10   6.0   5.26    9.3    0.014010    0.270920    0.264744
   316   10   1.0   0.00    0.0    0.000000    0.263623    0.283225
   317   10   6.0   7.62   13.4   -0.055819    0.111979    0.112708
   318   10   1.0   0.00    0.0    0.000000    0.227929    0.226713
   319   10   8.0  20.44   44.7    0.031138   -0.836825   -0.838937
   320   10   1.0   0.00    0.0    0.000000    0.501732    0.500809
   321   10   6.0   6.15   10.9   -0.056628    0.164821    0.147035
   322   10   1.0   0.00    0.0    0.000000    0.223996    0.226767
   323   10   8.0  22.47   49.1   -0.005240   -0.852473   -0.857294
   324   10   1.0   0.00    0.0    0.000000    0.508826    0.507582

 Done with FMO properties.
 CPU     0: STEP CPU TIME=     0.01 TOTAL CPU TIME=      16292.4 (    271.5 MIN)
 TOTAL WALL CLOCK TIME=      38204.3 SECONDS, CPU UTILIZATION IS    42.65%
 CPU     0: STEP CPU TIME=     0.00 TOTAL CPU TIME=      16292.4 (    271.5 MIN)
 TOTAL WALL CLOCK TIME=      38204.3 SECONDS, CPU UTILIZATION IS    42.65%

 Total timing statistics in pairs (CPU,wall) for each rank, sec

    Rank   total     SCF    corr     DFT    CPHF     EFP    solv     ESP    geom
 -------------------------------------------------------------------------------
       1   16292.4   4827.3   6131.8      0.0    0.0   0.0  135.2  4921.7    0.0
       1   38204.4  10440.9  16044.0      0.0    0.0   0.0  416.6 10583.3    0.0
       2   16273.5   4783.3   5980.5      0.0    0.0   0.0  137.2  5096.3    0.0
       2   38204.4  10441.3  16043.7      0.0    0.0   0.0  416.4 10582.6    0.0
       3   16421.3   4805.4   6150.7      0.0    0.0   0.0  136.5  5044.7    0.0
       3   38204.4  10440.9  16043.6      0.0    0.0   0.0  416.7 10582.6    0.0
       4   17157.8   4780.3   6668.0      0.0    0.0   0.0  136.3  5298.1    0.0
       4   38204.4  10441.7  16043.6      0.0    0.0   0.0  415.6 10582.4    0.0
       5   16426.0   4748.2   6303.9      0.0    0.0   0.0  135.2  4955.3    0.0
       5   38204.4  10441.6  16043.7      0.0    0.0   0.0  416.4 10582.6    0.0
       6   17125.0   4771.7   6945.6      0.0    0.0   0.0  135.2  4994.8    0.0
       6   38204.4  10441.7  16043.7      0.0    0.0   0.0  415.4 10582.4    0.0
       7   16285.4   4787.5   6085.9      0.0    0.0   0.0  135.9  4985.8    0.0
       7   38204.4  10441.9  16043.7      0.0    0.0   0.0  415.6 10582.5    0.0
       8   17304.4   4826.0   6645.1      0.0    0.0   0.0  136.8  5410.8    0.0
       8   38204.4  10442.2  16043.6      0.0    0.0   0.0  414.7 10582.4    0.0
       9   16591.1   4784.9   6507.3      0.0    0.0   0.0  133.1  4883.3    0.0
       9   38204.4  10441.9  16043.6      0.0    0.0   0.0  415.2 10583.0    0.0
      10   16360.0   4758.9   6237.2      0.0    0.0   0.0  134.5  4948.9    0.0
      10   38204.4  10441.9  16043.6      0.0    0.0   0.0  415.1 10582.9    0.0
      11   16616.5   4771.8   6520.0      0.0    0.0   0.0  133.5  4918.3    0.0
      11   38204.4  10442.4  16043.6      0.0    0.0   0.0  414.5 10582.9    0.0
      12   17060.7   4796.1   6878.8      0.0    0.0   0.0  134.3  4964.3    0.0
      12   38204.4  10442.2  16043.6      0.0    0.0   0.0  414.0 10582.8    0.0
      13   16307.5   4795.2   6205.8      0.0    0.0   0.0  132.6  4890.4    0.0
      13   38204.4  10443.6  16043.6      0.0    0.0   0.0  414.0 10582.9    0.0
      14   16269.4   4750.6   6115.8      0.0    0.0   0.0  134.0  4991.6    0.0
      14   38204.4  10442.6  16043.6      0.0    0.0   0.0  413.9 10582.8    0.0
      15   17195.7   4826.4   6965.0      0.0    0.0   0.0  133.2  4990.6    0.0
      15   38204.4  10442.8  16043.6      0.0    0.0   0.0  413.9 10582.6    0.0
      16   17955.3   4805.4   7464.2      0.0    0.0   0.0  134.7  5272.5    0.0
      16   38204.4  10443.1  16043.6      0.0    0.0   0.0  413.3 10582.6    0.0
averaged   16727.6   4788.7   6487.8      0.0    0.0   0.0  134.9  5035.5    0.0
averaged   38204.4  10442.1  16043.7      0.0    0.0   0.0  415.1 10582.7    0.0

  FMO  timing statistics in pairs (CPU,wall) for each rank, sec

    Rank  FMOini FMOscf1  FMOdm1 FMOsyn1 FMOscf2  FMOes2 FMOsyn2 FMOscf3 FMOsyn3
 -------------------------------------------------------------------------------
       1    2.1    6342.8    0.3    0.0    9755.2     192.0    0.0    0.0    0.0
       1    5.1   13790.7    0.7    0.0   23956.7     450.8    0.0    0.0    0.0
       2    1.5    6412.5    0.1    0.0    9664.8     194.6    0.0    0.0    0.0
       2    5.1   13790.7    0.7    0.0   23956.0     451.5    0.0    0.0    0.0
       3    1.7    6425.9    0.1    0.0    9792.3     201.3    0.0    0.0    0.0
       3    5.1   13790.7    0.7    0.0   23955.5     452.0    0.0    0.0    0.0
       4    1.5    6547.3    0.1    0.0   10414.7     194.1    0.0    0.0    0.0
       4    5.1   13790.7    0.7    0.0   23955.6     451.9    0.0    0.0    0.0
       5    1.8    6336.9    0.2    0.0    9885.6     201.5    0.0    0.0    0.0
       5    5.1   13790.7    0.7    0.0   23956.4     451.1    0.0    0.0    0.0
       6    1.6    6306.3    0.1    0.0   10619.4     197.6    0.0    0.0    0.0
       6    5.1   13790.7    0.7    0.0   23956.1     451.4    0.0    0.0    0.0
       7    1.7    6366.8    0.1    0.0    9709.3     207.5    0.0    0.0    0.0
       7    5.1   13790.7    0.7    0.0   23954.7     452.8    0.0    0.0    0.0
       8    1.5    6670.3    0.1    0.0   10428.1     204.5    0.0    0.0    0.0
       8    5.1   13790.7    0.7    0.0   23957.0     450.6    0.0    0.0    0.0
       9    1.8    6209.9    0.2    0.0   10178.0     201.3    0.0    0.0    0.0
       9    5.1   13790.7    0.7    0.0   23956.0     451.5    0.0    0.0    0.0
      10    1.5    6263.9    0.1    0.0    9893.5     201.0    0.0    0.0    0.0
      10    5.1   13790.7    0.7    0.0   23955.3     452.2    0.0    0.0    0.0
      11    1.5    6296.8    0.2    0.0   10124.7     193.2    0.0    0.0    0.0
      11    5.1   13790.7    0.7    0.0   23955.8     451.7    0.0    0.0    0.0
      12    1.3    6383.1    0.1    0.0   10468.6     207.6    0.0    0.0    0.0
      12    5.1   13790.7    0.7    0.0   23955.5     452.0    0.0    0.0    0.0
      13    1.6    6251.5    0.2    0.0    9850.1     204.0    0.0    0.0    0.0
      13    5.1   13790.7    0.7    0.0   23956.2     451.3    0.0    0.0    0.0
      14    1.4    6335.5    0.1    0.0    9733.2     199.2    0.0    0.0    0.0
      14    5.1   13790.7    0.7    0.0   23956.7     450.8    0.0    0.0    0.0
      15    1.5    6299.8    0.1    0.0   10693.0     201.2    0.0    0.0    0.0
      15    5.1   13790.7    0.7    0.0   23955.5     452.1    0.0    0.0    0.0
      16    1.4    6716.7    0.1    0.0   11037.8     199.3    0.0    0.0    0.0
      16    5.1   13790.7    0.7    0.0   23955.8     451.7    0.0    0.0    0.0
averaged    1.6    6385.4    0.1    0.0   10140.5     200.0    0.0    0.0    0.0
averaged    5.1   13790.7    0.7    0.0   23955.9     451.6    0.0    0.0    0.0
             62744237  WORDS OF DYNAMIC MEMORY USED
 EXECUTION OF GAMESS TERMINATED NORMALLY Mon Oct 28 11:58:47 2019
 DDI: 263640 bytes (0.3 MB / 0 MWords) used by master data server.

 ----------------------------------------
 CPU timing information for all processes
 ========================================
 0: 15917.34 + 375.387 = 16292.421
 1: 15937.452 + 336.78 = 16273.530
 2: 16062.743 + 358.537 = 16421.281
 3: 16785.618 + 372.208 = 17157.827
 4: 16047.198 + 378.866 = 16426.64
 5: 16739.58 + 385.999 = 17125.58
 6: 15921.425 + 364.00 = 16285.425
 7: 16930.590 + 373.856 = 17304.447
 8: 16210.982 + 380.142 = 16591.124
 9: 16012.273 + 347.730 = 16360.03
 10: 16251.815 + 364.696 = 16616.512
 11: 16689.961 + 370.732 = 17060.694
 12: 15940.744 + 366.721 = 16307.465
 13: 15935.989 + 333.392 = 16269.382
 14: 16795.547 + 400.173 = 17195.720
 15: 17536.577 + 418.741 = 17955.319
 ----------------------------------------
 ddikick.x: exited gracefully.
unset echo
----- accounting info -----
Files used on the master node gollum062.lsa.umich.edu were:
-rw-r--r-- 1 hazwong frank    16223 Oct 28 01:22 /scratch/hazwong/529417/1F5G_1/usrc/1F5G_1_fmo_input.F05
-rw-r--r-- 1 hazwong frank      634 Oct 28 11:58 /scratch/hazwong/529417/1F5G_1/usrc/1F5G_1_fmo_input.F06.001
-rw-r--r-- 1 hazwong frank      634 Oct 28 11:58 /scratch/hazwong/529417/1F5G_1/usrc/1F5G_1_fmo_input.F06.002
-rw-r--r-- 1 hazwong frank      634 Oct 28 11:58 /scratch/hazwong/529417/1F5G_1/usrc/1F5G_1_fmo_input.F06.003
-rw-r--r-- 1 hazwong frank      634 Oct 28 11:58 /scratch/hazwong/529417/1F5G_1/usrc/1F5G_1_fmo_input.F06.004
-rw-r--r-- 1 hazwong frank      634 Oct 28 11:58 /scratch/hazwong/529417/1F5G_1/usrc/1F5G_1_fmo_input.F06.005
-rw-r--r-- 1 hazwong frank      634 Oct 28 11:58 /scratch/hazwong/529417/1F5G_1/usrc/1F5G_1_fmo_input.F06.006
-rw-r--r-- 1 hazwong frank      634 Oct 28 11:58 /scratch/hazwong/529417/1F5G_1/usrc/1F5G_1_fmo_input.F06.007
-rw-r--r-- 1 hazwong frank      634 Oct 28 11:58 /scratch/hazwong/529417/1F5G_1/usrc/1F5G_1_fmo_input.F06.008
-rw-r--r-- 1 hazwong frank      634 Oct 28 11:58 /scratch/hazwong/529417/1F5G_1/usrc/1F5G_1_fmo_input.F06.009
-rw-r--r-- 1 hazwong frank      634 Oct 28 11:58 /scratch/hazwong/529417/1F5G_1/usrc/1F5G_1_fmo_input.F06.010
-rw-r--r-- 1 hazwong frank      634 Oct 28 11:58 /scratch/hazwong/529417/1F5G_1/usrc/1F5G_1_fmo_input.F06.011
-rw-r--r-- 1 hazwong frank      634 Oct 28 11:58 /scratch/hazwong/529417/1F5G_1/usrc/1F5G_1_fmo_input.F06.012
-rw-r--r-- 1 hazwong frank      634 Oct 28 11:58 /scratch/hazwong/529417/1F5G_1/usrc/1F5G_1_fmo_input.F06.013
-rw-r--r-- 1 hazwong frank      634 Oct 28 11:58 /scratch/hazwong/529417/1F5G_1/usrc/1F5G_1_fmo_input.F06.014
-rw-r--r-- 1 hazwong frank      634 Oct 28 11:58 /scratch/hazwong/529417/1F5G_1/usrc/1F5G_1_fmo_input.F06.015
-rw-r--r-- 1 hazwong frank     9128 Oct 28 11:58 /scratch/hazwong/529417/1F5G_1/usrc/1F5G_1_fmo_input.F07
-rw-r--r-- 1 hazwong frank        0 Oct 28 01:22 /scratch/hazwong/529417/1F5G_1/usrc/1F5G_1_fmo_input.F07.001
-rw-r--r-- 1 hazwong frank        0 Oct 28 01:22 /scratch/hazwong/529417/1F5G_1/usrc/1F5G_1_fmo_input.F07.002
-rw-r--r-- 1 hazwong frank        0 Oct 28 01:22 /scratch/hazwong/529417/1F5G_1/usrc/1F5G_1_fmo_input.F07.003
-rw-r--r-- 1 hazwong frank        0 Oct 28 01:22 /scratch/hazwong/529417/1F5G_1/usrc/1F5G_1_fmo_input.F07.004
-rw-r--r-- 1 hazwong frank        0 Oct 28 01:22 /scratch/hazwong/529417/1F5G_1/usrc/1F5G_1_fmo_input.F07.005
-rw-r--r-- 1 hazwong frank        0 Oct 28 01:22 /scratch/hazwong/529417/1F5G_1/usrc/1F5G_1_fmo_input.F07.006
-rw-r--r-- 1 hazwong frank        0 Oct 28 01:22 /scratch/hazwong/529417/1F5G_1/usrc/1F5G_1_fmo_input.F07.007
-rw-r--r-- 1 hazwong frank        0 Oct 28 01:22 /scratch/hazwong/529417/1F5G_1/usrc/1F5G_1_fmo_input.F07.008
-rw-r--r-- 1 hazwong frank        0 Oct 28 01:22 /scratch/hazwong/529417/1F5G_1/usrc/1F5G_1_fmo_input.F07.009
-rw-r--r-- 1 hazwong frank        0 Oct 28 01:22 /scratch/hazwong/529417/1F5G_1/usrc/1F5G_1_fmo_input.F07.010
-rw-r--r-- 1 hazwong frank        0 Oct 28 01:22 /scratch/hazwong/529417/1F5G_1/usrc/1F5G_1_fmo_input.F07.011
-rw-r--r-- 1 hazwong frank        0 Oct 28 01:22 /scratch/hazwong/529417/1F5G_1/usrc/1F5G_1_fmo_input.F07.012
-rw-r--r-- 1 hazwong frank        0 Oct 28 01:22 /scratch/hazwong/529417/1F5G_1/usrc/1F5G_1_fmo_input.F07.013
-rw-r--r-- 1 hazwong frank        0 Oct 28 01:22 /scratch/hazwong/529417/1F5G_1/usrc/1F5G_1_fmo_input.F07.014
-rw-r--r-- 1 hazwong frank        0 Oct 28 01:22 /scratch/hazwong/529417/1F5G_1/usrc/1F5G_1_fmo_input.F07.015
-rw-r--r-- 1 hazwong frank    65440 Oct 28 11:58 /scratch/hazwong/529417/1F5G_1/usrc/1F5G_1_fmo_input.F10.000
-rw-r--r-- 1 hazwong frank        0 Oct 28 01:22 /scratch/hazwong/529417/1F5G_1/usrc/1F5G_1_fmo_input.F26.000
-rw-r--r-- 1 hazwong frank        0 Oct 28 01:22 /scratch/hazwong/529417/1F5G_1/usrc/1F5G_1_fmo_input.F26.001
-rw-r--r-- 1 hazwong frank        0 Oct 28 01:22 /scratch/hazwong/529417/1F5G_1/usrc/1F5G_1_fmo_input.F26.002
-rw-r--r-- 1 hazwong frank        0 Oct 28 01:22 /scratch/hazwong/529417/1F5G_1/usrc/1F5G_1_fmo_input.F26.003
-rw-r--r-- 1 hazwong frank        0 Oct 28 01:22 /scratch/hazwong/529417/1F5G_1/usrc/1F5G_1_fmo_input.F26.004
-rw-r--r-- 1 hazwong frank        0 Oct 28 01:22 /scratch/hazwong/529417/1F5G_1/usrc/1F5G_1_fmo_input.F26.005
-rw-r--r-- 1 hazwong frank        0 Oct 28 01:22 /scratch/hazwong/529417/1F5G_1/usrc/1F5G_1_fmo_input.F26.006
-rw-r--r-- 1 hazwong frank        0 Oct 28 01:22 /scratch/hazwong/529417/1F5G_1/usrc/1F5G_1_fmo_input.F26.007
-rw-r--r-- 1 hazwong frank        0 Oct 28 01:22 /scratch/hazwong/529417/1F5G_1/usrc/1F5G_1_fmo_input.F26.008
-rw-r--r-- 1 hazwong frank        0 Oct 28 01:22 /scratch/hazwong/529417/1F5G_1/usrc/1F5G_1_fmo_input.F26.009
-rw-r--r-- 1 hazwong frank        0 Oct 28 01:22 /scratch/hazwong/529417/1F5G_1/usrc/1F5G_1_fmo_input.F26.010
-rw-r--r-- 1 hazwong frank        0 Oct 28 01:22 /scratch/hazwong/529417/1F5G_1/usrc/1F5G_1_fmo_input.F26.011
-rw-r--r-- 1 hazwong frank        0 Oct 28 01:22 /scratch/hazwong/529417/1F5G_1/usrc/1F5G_1_fmo_input.F26.012
-rw-r--r-- 1 hazwong frank        0 Oct 28 01:22 /scratch/hazwong/529417/1F5G_1/usrc/1F5G_1_fmo_input.F26.013
-rw-r--r-- 1 hazwong frank        0 Oct 28 01:22 /scratch/hazwong/529417/1F5G_1/usrc/1F5G_1_fmo_input.F26.014
-rw-r--r-- 1 hazwong frank        0 Oct 28 01:22 /scratch/hazwong/529417/1F5G_1/usrc/1F5G_1_fmo_input.F26.015
-rw-r--r-- 1 hazwong frank        0 Oct 28 01:22 /scratch/hazwong/529417/1F5G_1/usrc/1F5G_1_fmo_input.F27.000
-rw-r--r-- 1 hazwong frank        0 Oct 28 01:22 /scratch/hazwong/529417/1F5G_1/usrc/1F5G_1_fmo_input.F27.001
-rw-r--r-- 1 hazwong frank        0 Oct 28 01:22 /scratch/hazwong/529417/1F5G_1/usrc/1F5G_1_fmo_input.F27.002
-rw-r--r-- 1 hazwong frank        0 Oct 28 01:22 /scratch/hazwong/529417/1F5G_1/usrc/1F5G_1_fmo_input.F27.003
-rw-r--r-- 1 hazwong frank        0 Oct 28 01:22 /scratch/hazwong/529417/1F5G_1/usrc/1F5G_1_fmo_input.F27.004
-rw-r--r-- 1 hazwong frank        0 Oct 28 01:22 /scratch/hazwong/529417/1F5G_1/usrc/1F5G_1_fmo_input.F27.005
-rw-r--r-- 1 hazwong frank        0 Oct 28 01:22 /scratch/hazwong/529417/1F5G_1/usrc/1F5G_1_fmo_input.F27.006
-rw-r--r-- 1 hazwong frank        0 Oct 28 01:22 /scratch/hazwong/529417/1F5G_1/usrc/1F5G_1_fmo_input.F27.007
-rw-r--r-- 1 hazwong frank        0 Oct 28 01:22 /scratch/hazwong/529417/1F5G_1/usrc/1F5G_1_fmo_input.F27.008
-rw-r--r-- 1 hazwong frank        0 Oct 28 01:22 /scratch/hazwong/529417/1F5G_1/usrc/1F5G_1_fmo_input.F27.009
-rw-r--r-- 1 hazwong frank        0 Oct 28 01:22 /scratch/hazwong/529417/1F5G_1/usrc/1F5G_1_fmo_input.F27.010
-rw-r--r-- 1 hazwong frank        0 Oct 28 01:22 /scratch/hazwong/529417/1F5G_1/usrc/1F5G_1_fmo_input.F27.011
-rw-r--r-- 1 hazwong frank        0 Oct 28 01:22 /scratch/hazwong/529417/1F5G_1/usrc/1F5G_1_fmo_input.F27.012
-rw-r--r-- 1 hazwong frank        0 Oct 28 01:22 /scratch/hazwong/529417/1F5G_1/usrc/1F5G_1_fmo_input.F27.013
-rw-r--r-- 1 hazwong frank        0 Oct 28 01:22 /scratch/hazwong/529417/1F5G_1/usrc/1F5G_1_fmo_input.F27.014
-rw-r--r-- 1 hazwong frank        0 Oct 28 01:22 /scratch/hazwong/529417/1F5G_1/usrc/1F5G_1_fmo_input.F27.015
-rw-r--r-- 1 hazwong frank 20561920 Oct 28 05:11 /scratch/hazwong/529417/1F5G_1/usrc/1F5G_1_fmo_input.F40.000
-rw-r--r-- 1 hazwong frank 20561920 Oct 28 05:11 /scratch/hazwong/529417/1F5G_1/usrc/1F5G_1_fmo_input.F40.001
-rw-r--r-- 1 hazwong frank 20561920 Oct 28 05:11 /scratch/hazwong/529417/1F5G_1/usrc/1F5G_1_fmo_input.F40.002
-rw-r--r-- 1 hazwong frank 20561920 Oct 28 05:11 /scratch/hazwong/529417/1F5G_1/usrc/1F5G_1_fmo_input.F40.003
-rw-r--r-- 1 hazwong frank 20561920 Oct 28 05:11 /scratch/hazwong/529417/1F5G_1/usrc/1F5G_1_fmo_input.F40.004
-rw-r--r-- 1 hazwong frank 20561920 Oct 28 05:11 /scratch/hazwong/529417/1F5G_1/usrc/1F5G_1_fmo_input.F40.005
-rw-r--r-- 1 hazwong frank 20561920 Oct 28 05:11 /scratch/hazwong/529417/1F5G_1/usrc/1F5G_1_fmo_input.F40.006
-rw-r--r-- 1 hazwong frank 20561920 Oct 28 05:11 /scratch/hazwong/529417/1F5G_1/usrc/1F5G_1_fmo_input.F40.007
-rw-r--r-- 1 hazwong frank 20561920 Oct 28 05:11 /scratch/hazwong/529417/1F5G_1/usrc/1F5G_1_fmo_input.F40.008
-rw-r--r-- 1 hazwong frank 20561920 Oct 28 05:11 /scratch/hazwong/529417/1F5G_1/usrc/1F5G_1_fmo_input.F40.009
-rw-r--r-- 1 hazwong frank 20561920 Oct 28 05:11 /scratch/hazwong/529417/1F5G_1/usrc/1F5G_1_fmo_input.F40.010
-rw-r--r-- 1 hazwong frank 20561920 Oct 28 05:11 /scratch/hazwong/529417/1F5G_1/usrc/1F5G_1_fmo_input.F40.011
-rw-r--r-- 1 hazwong frank 20561920 Oct 28 05:11 /scratch/hazwong/529417/1F5G_1/usrc/1F5G_1_fmo_input.F40.012
-rw-r--r-- 1 hazwong frank 20561920 Oct 28 05:11 /scratch/hazwong/529417/1F5G_1/usrc/1F5G_1_fmo_input.F40.013
-rw-r--r-- 1 hazwong frank 20561920 Oct 28 05:11 /scratch/hazwong/529417/1F5G_1/usrc/1F5G_1_fmo_input.F40.014
-rw-r--r-- 1 hazwong frank 20561920 Oct 28 05:11 /scratch/hazwong/529417/1F5G_1/usrc/1F5G_1_fmo_input.F40.015
ls: No match.
ls: No match.
ls: No match.
Mon Oct 28 11:58:50 EDT 2019
0.193u 0.077s 10:36:47.87 0.0%	0+0k 1208+128io 19pf+0w
