‘1F7Y_3_fmo_input.inp’ -> ‘/scratch/hazwong/824259/./1F7Y_3_fmo_input.inp’
‘rungms’ -> ‘/scratch/hazwong/824259/./rungms’
‘gms-files.csh’ -> ‘/scratch/hazwong/824259/./gms-files.csh’
----- GAMESS execution script 'rungms' -----
This job is running on host gollum082.lsa.umich.edu
under operating system Linux at Sat Dec 7 00:18:51 EST 2019
Available scratch disk space (Kbyte units) at beginning of the job is
Filesystem     1K-blocks   Used Available Use% Mounted on
/dev/sda4      426933580 289388 426644192   1% /scratch
GAMESS temporary binary files will be written to /scratch/hazwong/824259/1F7Y_3/usrc
GAMESS supplementary output files will be written to /scratch/hazwong/824259/1F7Y_3/src
Copying input file 1F7Y_3_fmo_input.inp to your run's scratch directory...
cp 1F7Y_3_fmo_input.inp /scratch/hazwong/824259/1F7Y_3/usrc/1F7Y_3_fmo_input.F05
unset echo
This is a GDDI run, keeping various output files on local disks
setenv OUTPUT /scratch/hazwong/824259/1F7Y_3/usrc/1F7Y_3_fmo_input.F06
setenv PUNCH /scratch/hazwong/824259/1F7Y_3/usrc/1F7Y_3_fmo_input.F07
unset echo
 
Assuming a single but multicore node.
 
/export/apps/CentOS7/gamess/src/build//ddikick.x /export/apps/CentOS7/gamess/src/build//gamess.R3.x 1F7Y_3_fmo_input -ddi 1 16 gollum082.lsa.umich.edu:cpus=16 -scr /scratch/hazwong/824259/1F7Y_3/usrc

 Distributed Data Interface kickoff program.
 Initiating 16 compute processes on 1 nodes to run the following command:
 /export/apps/CentOS7/gamess/src/build//gamess.R3.x 1F7Y_3_fmo_input 

          ******************************************************
          *         GAMESS VERSION = 30 SEP 2018 (R3)         *
          *             FROM IOWA STATE UNIVERSITY             *
          * M.W.SCHMIDT, K.K.BALDRIDGE, J.A.BOATZ, S.T.ELBERT, *
          *   M.S.GORDON, J.H.JENSEN, S.KOSEKI, N.MATSUNAGA,   *
          *          K.A.NGUYEN, S.J.SU, T.L.WINDUS,           *
          *       TOGETHER WITH M.DUPUIS, J.A.MONTGOMERY       *
          *         J.COMPUT.CHEM.  14, 1347-1363(1993)        *
          **************** 64 BIT LINUX VERSION ****************

  SINCE 1993, STUDENTS AND POSTDOCS WORKING AT IOWA STATE UNIVERSITY
  AND ALSO IN THEIR VARIOUS JOBS AFTER LEAVING ISU HAVE MADE IMPORTANT
  CONTRIBUTIONS TO THE CODE:
     IVANA ADAMOVIC, CHRISTINE AIKENS, YURI ALEXEEV, POOJA ARORA,
     ANDREY ASADCHEV, ROB BELL, PRADIPTA BANDYOPADHYAY, JONATHAN BENTZ,
     BRETT BODE, KURT BRORSEN, CALEB CARLIN, GALINA CHABAN, WEI CHEN,
     CHEOL HO CHOI, PAUL DAY, ALBERT DEFUSCO, NUWAN DESILVA, TIM DUDLEY,
     DMITRI FEDOROV, ALEX FINDLATER, GRAHAM FLETCHER, MARK FREITAG,
     KURT GLAESEMANN, ANASTASIA GUNINA,
     DAN KEMP, GRANT MERRILL, NORIYUKI MINEZAWA, JONATHAN MULLIN,
     TAKESHI NAGATA, SEAN NEDD, HEATHER NETZLOFF, BOSILJKA NJEGIC, RYAN OLSON,
     MIKE PAK, BUU PHAM,
     SPENCER PRUITT, LUKE ROSKOP, JIM SHOEMAKER, LYUDMILA SLIPCHENKO,
     TONY SMITH, SAROM SOK LEANG, JIE SONG, TETSUYA TAKETSUGU, SIMON WEBB,
     PENG XU, SOOHAENG YOO, FEDERICO ZAHARIEV

  ADDITIONAL CODE HAS BEEN PROVIDED BY COLLABORATORS IN OTHER GROUPS:
     IOWA STATE UNIVERSITY:
          JOE IVANIC, AARON WEST, LAIMUTIS BYTAUTAS, KLAUS RUEDENBERG
     UNIVERSITY OF TOKYO: KIMIHIKO HIRAO, TAKAHITO NAKAJIMA,
          TAKAO TSUNEDA, MUNEAKI KAMIYA, SUSUMU YANAGISAWA,
          KIYOSHI YAGI, MAHITO CHIBA, SEIKEN TOKURA, NAOAKI KAWAKAMI
     UNIVERSITY OF AARHUS: FRANK JENSEN
     UNIVERSITY OF IOWA: VISVALDAS KAIRYS, HUI LI
     NATIONAL INST. OF STANDARDS AND TECHNOLOGY: WALT STEVENS, DAVID GARMER
     UNIVERSITY OF PISA: BENEDETTA MENNUCCI, JACOPO TOMASI
     UNIVERSITY OF MEMPHIS: HENRY KURTZ, PRAKASHAN KORAMBATH
     UNIVERSITY OF ALBERTA: TOBY ZENG, MARIUSZ KLOBUKOWSKI
     UNIVERSITY OF NEW ENGLAND: MARK SPACKMAN
     MIE UNIVERSITY: HIROAKI UMEDA
     NAT. INST. OF ADVANCED INDUSTRIAL SCIENCE AND TECHNOLOGY: KAZUO KITAURA
     MICHIGAN STATE UNIVERSITY:
          KAROL KOWALSKI, MARTA WLOCH, JEFFREY GOUR, JESSE LUTZ,
          WEI LI, JUN SHEN, J. EMILIANO DEUSTUA, PIOTR PIECUCH
     UNIVERSITY OF MINNESOTA:
          YINAN SHU
     UNIVERSITY OF SILESIA: MONIKA MUSIAL, STANISLAW KUCHARSKI
     FACULTES UNIVERSITAIRES NOTRE-DAME DE LA PAIX:
          OLIVIER QUINET, BENOIT CHAMPAGNE
     UNIVERSITY OF CALIFORNIA - SANTA BARBARA: BERNARD KIRTMAN
     INSTITUTE FOR MOLECULAR SCIENCE:
          KAZUYA ISHIMURA, MICHIO KATOUDA, AND SHIGERU NAGASE
     UNIVERSITY OF NOTRE DAME: ANNA POMOGAEVA, DAN CHIPMAN
     KYUSHU UNIVERSITY:
          HARUYUKI NAKANO,
          FENG LONG GU, JACEK KORCHOWIEC, MARCIN MAKOWSKI, AND YURIKO AOKI,
          HIROTOSHI MORI AND EISAKU MIYOSHI
     PENNSYLVANIA STATE UNIVERSITY:
          TZVETELIN IORDANOV, CHET SWALINA, JONATHAN SKONE,
          SHARON HAMMES-SCHIFFER
     WASEDA UNIVERSITY:
          MASATO KOBAYASHI, TOMOKO AKAMA, TSUGUKI TOUMA,
          TAKESHI YOSHIKAWA, YASUHIRO IKABATA, JUNJI SEINO,
          YUYA NAKAJIMA, HIROMI NAKAI
     NANJING UNIVERSITY: SHUHUA LI
     UNIVERSITY OF NEBRASKA:
          PEIFENG SU, DEJUN SI, NANDUN THELLAMUREGE, YALI WANG, HUI LI
     UNIVERSITY OF ZURICH: ROBERTO PEVERATI, KIM BALDRIDGE
     N. COPERNICUS UNIVERSITY AND JACKSON STATE UNIVERSITY:
          MARIA BARYSZ
     UNIVERSITY OF COPENHAGEN: Jimmy Kromann, CASPER STEINMANN
     TOKYO INSTITUTE OF TECHNOLOGY: HIROYA NAKATA
     NAGOYA UNIVERSITY: YOSHIO NISHIMOTO, STEPHAN IRLE
     MOSCOW STATE UNIVERSITY: VLADIMIR MIRONOV


 PARALLEL VERSION RUNNING ON       16 PROCESSORS IN        1 NODES.

 EXECUTION OF GAMESS BEGUN Sat Dec  7 00:18:52 2019

            ECHO OF THE FIRST FEW INPUT CARDS -
 INPUT CARD>!*** FMO 5.3 (Gamess) INPUT generated by Facio 22.1.1.32 ***                    
 INPUT CARD> $CONTRL RUNTYP=ENERGY NPRINT=-5 ISPHER=1 MAXIT=200 $END                        
 INPUT CARD> $SYSTEM MWORDS=63 MEMDDI=63 $END                                               
 INPUT CARD> $GDDI NGROUP=1 $END                                                            
 INPUT CARD> $SCF DIRSCF=.TRUE. NPUNCH=0 $END                                               
 INPUT CARD>!*** NumCPU : 2  MemPerNode : 512MB                                             
 INPUT CARD> $PCM SOLVNT=WATER IEF=-10 ICOMP=2 ICAV=1 IDISP=1 IFMO=-1 $END                  
 INPUT CARD> $PCMCAV RADII=SUAHF $END                                                       
 INPUT CARD> $TESCAV NTSALL=60 $END                                                         
 INPUT CARD> $FMOPRP                                                                        
 INPUT CARD>    NAODIR=200                                                                  
 INPUT CARD>    NGRFMO(1)=1, 1, 0, 0, 0,   0, 0, 0, 0, 0                                    
 INPUT CARD>    IPIEDA=1                                                                    
 INPUT CARD>    NPRINT=9                                                                    
 INPUT CARD> $END                                                                           
 INPUT CARD> $FMO                                                                           
 INPUT CARD>      SCFTYP(1)=RHF                                                             
 INPUT CARD>      MODGRD=10                                                                 
 INPUT CARD>      MODMUL=0                                                                  
 INPUT CARD>      MAXCAO=5                                                                  
 INPUT CARD>      MAXBND=10                                                                 
 INPUT CARD>      NLAYER=1                                                                  
 INPUT CARD>      MPLEVL(1)=2                                                               
 INPUT CARD>      NFRAG=8                                                                   
 INPUT CARD>      ICHARG(1)=-1, -1, -1, -1, -1, -1, -1, 0                                   
 INPUT CARD>      FRGNAM(1)=F1, F2, F3, F4, F5, F6, F7, F8                                  
 INPUT CARD>      indat(1)=0                                                                
 INPUT CARD>               1   -35   0                                                      
 INPUT CARD>               36   -66   0                                                     
 INPUT CARD>               67   -96   0                                                     
 INPUT CARD>               97   -126   0                                                    
 INPUT CARD>               127   -157   0                                                   
 INPUT CARD>               158   -191   0                                                   
 INPUT CARD>               192   -225   0                                                   
 INPUT CARD>               226   -252   0                                                   
 INPUT CARD> $END                                                                           
 INPUT CARD>                                                                                
 INPUT CARD> $FMOBND                                                                        
 INPUT CARD>   -36   35       6-31G*    MINI                                                
 INPUT CARD>   -67   66       6-31G*    MINI                                                
 INPUT CARD>   -97   96       6-31G*    MINI                                                
 INPUT CARD>   -127   126       6-31G*    MINI                                              
 INPUT CARD>   -158   157       6-31G*    MINI                                              
 INPUT CARD>   -192   191       6-31G*    MINI                                              
 INPUT CARD>   -226   225       6-31G*    MINI                                              
 INPUT CARD> $END                                                                           
 INPUT CARD> $FMOHYB                                                                        
 INPUT CARD> 6-31G*      15   5                                                             
 INPUT CARD>   1 0  -0.065034   0.288264   0.000000   0.000000   0.604412                   
 INPUT CARD>         0.290129   0.000000   0.000000   0.319045  -0.017106                   


 -------------------------------------------------------------
 GROUP DDI, PROGRAMMED BY: RYAN M. OLSON AND DMITRI G. FEDOROV
        FEDOROV ET AL., J. COMPUT. CHEM., 25 (2004) 872.
 -------------------------------------------------------------

 -------------------------------------------------------
 GDDI: INITIALIZATION COMPLETED FOR GROUP     1 OF     1
 WITH    16 PROCESSES BALTYP=DLB   global rank=        0
 -------------------------------------------------------

   63000000 WORDS OF MEMORY AVAILABLE


     RUN TITLE
     ---------
  FMO calculation                                                                

 THE POINT GROUP OF THE MOLECULE IS C1      
 THE ORDER OF THE PRINCIPAL AXIS IS     0

 ATOM   ATOMIC CHARGE
 H.1-1       1.0
 O.1-1       8.0
 C.1-1       6.0
 N.1-1       7.0
 P.1-1      15.0

     ATOMIC BASIS SET LIBRARY
     ----------------
 THE CONTRACTED PRIMITIVE FUNCTIONS HAVE BEEN UNNORMALIZED
 THE CONTRACTED BASIS FUNCTIONS ARE NOW NORMALIZED TO UNITY

  SHELL TYPE  PRIMITIVE        EXPONENT          CONTRACTION COEFFICIENT(S)

 H.1-1     

      1   S       1            18.7311370    0.033494604338
      1   S       2             2.8253944    0.234726953484
      1   S       3             0.6401217    0.813757326146

      2   S       4             0.1612778    1.000000000000

 O.1-1     

      3   S       5          5484.6716600    0.001831074430
      3   S       6           825.2349460    0.013950172200
      3   S       7           188.0469580    0.068445078098
      3   S       8            52.9645000    0.232714335992
      3   S       9            16.8975704    0.470192897984
      3   S      10             5.7996353    0.358520852987

      4   L      11            15.5396162   -0.110777549525    0.070874268231
      4   L      12             3.5999336   -0.148026262701    0.339752839147
      4   L      13             1.0137618    1.130767015354    0.727158577316

      5   L      14             0.2700058    1.000000000000    1.000000000000

      6   D      15             0.8000000    1.000000000000

 C.1-1     

      7   S      16          3047.5248800    0.001834737132
      7   S      17           457.3695180    0.014037322813
      7   S      18           103.9486850    0.068842622264
      7   S      19            29.2101553    0.232184443216
      7   S      20             9.2866630    0.467941348435
      7   S      21             3.1639270    0.362311985337

      8   L      22             7.8682723   -0.119332419775    0.068999066591
      8   L      23             1.8812885   -0.160854151696    0.316423960957
      8   L      24             0.5442493    1.143456437840    0.744308290898

      9   L      25             0.1687145    1.000000000000    1.000000000000

     10   D      26             0.8000000    1.000000000000

 N.1-1     

     11   S      27          4173.5114600    0.001834772160
     11   S      28           627.4579110    0.013994627002
     11   S      29           142.9020930    0.068586551812
     11   S      30            40.2343293    0.232240873040
     11   S      31            12.8202129    0.469069948082
     11   S      32             4.3904370    0.360455199063

     12   L      33            11.6263619   -0.114961181702    0.067579743878
     12   L      34             2.7162798   -0.169117478561    0.323907295893
     12   L      35             0.7722184    1.145851947027    0.740895139755

     13   L      36             0.2120315    1.000000000000    1.000000000000

     14   D      37             0.8000000    1.000000000000

 P.1-1     

     15   S      38         19413.3000000    0.001851598923
     15   S      39          2909.4200000    0.014206191735
     15   S      40           661.3640000    0.069999459277
     15   S      41           185.7590000    0.240078860331
     15   S      42            59.1943000    0.484761717984
     15   S      43            20.0310000    0.335199804993

     16   L      44           339.4780000   -0.002782170105    0.004564616191
     16   L      45            81.0101000   -0.036049901354    0.033693571881
     16   L      46            25.8780000   -0.116631004382    0.139754883368
     16   L      47             9.4522100    0.096832803638    0.339361716786
     16   L      48             3.6656600    0.614418023082    0.450920623685
     16   L      49             1.4674600    0.403798015170    0.238585800889

     17   L      50             2.1562300   -0.252924113863   -0.017765312733
     17   L      51             0.7489970    0.032851844678    0.274058196433
     17   L      52             0.2831450    1.081254761783    0.785421562957

     18   L      53             0.0998317    1.000000000000    1.000000000000

     19   D      54             0.5500000    1.000000000000

 TOTAL NUMBER OF BASIS SET SHELLS             =   19
 NUMBER OF CARTESIAN GAUSSIAN BASIS FUNCTIONS =   66

     $CONTRL OPTIONS
     ---------------
 SCFTYP=RHF          RUNTYP=ENERGY       EXETYP=RUN     
 MPLEVL=       0     CITYP =NONE         CCTYP =NONE         VBTYP =NONE    
 DFTTYP=NONE         TDDFT =NONE    
 MULT  =       1     ICHARG=       0     NZVAR =       0     COORD =UNIQUE  
 PP    =NONE         RELWFN=NONE         LOCAL =NONE         NUMGRD=       F
 ISPHER=       1     NOSYM =       0     MAXIT =     200     UNITS =ANGS    
 PLTORB=       F     MOLPLT=       F     AIMPAC=       F     FRIEND=        
 NPRINT=      -5     IREST =       0     GEOM  =INPUT   
 NORMF =       0     NORMP =       0     ITOL  =      24     ICUT  =      12
 INTTYP=BEST         GRDTYP=BEST         QMTTOL= 1.0E-06

     $SYSTEM OPTIONS
     ---------------
  REPLICATED MEMORY=    63000000 WORDS (ON EVERY NODE).
 DISTRIBUTED MEMDDI=          63 MILLION WORDS IN AGGREGATE,
 MEMDDI DISTRIBUTED OVER  16 PROCESSORS IS     3937500 WORDS/PROCESSOR.
 TOTAL MEMORY REQUESTED ON EACH PROCESSOR=    66937500 WORDS.
 TIMLIM=      525600.00 MINUTES, OR     365.0 DAYS.
 PARALL= T  BALTYP=  DLB     KDIAG=    0  COREFL= F
 MXSEQ2=     300 MXSEQ3=     150  mem10=         0

 ** LOOKING UP INTERNALLY STORED DATA FOR SOLVENT=WATER    **
 OPTICAL AND PHYSICAL CONSTANTS:
 EPS= 78.390; EPSINF=  1.776; RSOLV=  1.385 A; VMOL=  18.070 ML/MOL;
 TCE= .25700E-03 1/K; STEN= 71.810 DYN/CM;  DSTEN=  0.6500; CMF=  1.2770


     -----------------------------------
     INPUT FOR PCM SOLVATION CALCULATION 
     -----------------------------------
     IEF   =     -10
     ICOMP =       2     IFIELD=       0     ICAV  =       1
     IDISP =       1     IREP  =       0     IDP   =       0

     SOLVNT=WATER        EPS   = 78.3900     EPSINF=  1.7760
     VMOL  = 18.0700     TCE   =  0.00025700 STEN  = 71.8100
     DSTEN =  0.6500     CMF   =  1.2770     RSOLV =  1.3850

     NESFP =       0
     OMEGA = 40.0000     RET   =100.0000     FRO   =  0.7000

     TABS  =298.0000     IPRINT=       0

     --------------------------------
     INPUT FOR ITERATIVE C-PCM METHOD 
     --------------------------------
     IPCMIT  =         1     MXDIIS  =        50
     MXITR1  =       200     MXITR2  =       200
     THRES   = 0.100E-09     IMUL    =         3
     RCUT(1) =   20.0000     RCUT(2) =   50.0000

     IDIRCT  =         1
     IMGABI  =         0     RABI    =    4.0000
     IMGASC  =         0     RASC    =   20.0000
     THRSLS  = 0.500E-03     DENSLS  =    0.0100
     IEFPOL  =         1     REFPOL  =    0.0000

     INPUT FOR ISOTROPIC DIELECTRICS
     -------------------------------
     EPS=    78.39

          ----------------
          PROPERTIES INPUT
          ----------------

     MOMENTS            FIELD           POTENTIAL          DENSITY
 IEMOM =       1   IEFLD =       0   IEPOT =       0   IEDEN =       0
 WHERE =COMASS     WHERE =NUCLEI     WHERE =NUCLEI     WHERE =NUCLEI  
 OUTPUT=BOTH       OUTPUT=BOTH       OUTPUT=NONE       OUTPUT=BOTH    
 IEMINT=       0   IEFINT=       0                     IEDINT=       0
                                                       MORB  =       0
          EXTRAPOLATION IN EFFECT
          SOSCF IN EFFECT
 ORBITAL PRINTING OPTION: NPREO=     1 32767     2     1

     -------------------------------
     INTEGRAL TRANSFORMATION OPTIONS
     -------------------------------
     NWORD  =            0
     CUTOFF = 1.0E-10     MPTRAN =       0
     DIRTRF =       T     AOINTS =DUP     

          ----------------------
          INTEGRAL INPUT OPTIONS
          ----------------------
 NOPK  =       1 NORDER=       0 SCHWRZ=       T

 ..... DONE SETTING UP THE RUN .....
 CPU     0: STEP CPU TIME=     0.03 TOTAL CPU TIME=          0.0 (      0.0 MIN)
 TOTAL WALL CLOCK TIME=          0.1 SECONDS, CPU UTILIZATION IS    50.00%
 CPU     0: STEP CPU TIME=     0.00 TOTAL CPU TIME=          0.0 (      0.0 MIN)
 TOTAL WALL CLOCK TIME=          0.1 SECONDS, CPU UTILIZATION IS    42.86%

                    ----------------------
                    AO INTEGRAL TECHNOLOGY
                    ----------------------
     S,P,L SHELL ROTATED AXIS INTEGRALS, REPROGRAMMED BY
        KAZUYA ISHIMURA (IMS) AND JOSE SIERRA (SYNSTAR).
     S,P,D,L SHELL ROTATED AXIS INTEGRALS PROGRAMMED BY
        KAZUYA ISHIMURA (INSTITUTE FOR MOLECULAR SCIENCE).
     S,P,D,F,G SHELL TO TOTAL QUARTET ANGULAR MOMENTUM SUM 5,
        ERIC PROGRAM BY GRAHAM FLETCHER (ELORET AND NASA ADVANCED
        SUPERCOMPUTING DIVISION, AMES RESEARCH CENTER).
     S,P,D,F,G,L SHELL GENERAL RYS QUADRATURE PROGRAMMED BY
        MICHEL DUPUIS (PACIFIC NORTHWEST NATIONAL LABORATORY).
 Setting modorb=1 flag...
 Setting modorb=1 flag...

          -----------------------
          MP2 CONTROL INFORMATION
          -----------------------
          NACORE =        8  NBCORE =        8
          LMOMP2 =        F  AOINTS = DUP     
          METHOD =        2  NWORD  =               0
          MP2PRP =        F  OSPT   = NONE    
          CUTOFF = 1.00E-12  CPHFBS = BASISAO 
          CODE   = IMS     

          NUMBER OF CORE -A-  ORBITALS =     8
          NUMBER OF CORE -B-  ORBITALS =     8
          NUMBER OF OCC. -A-  ORBITALS =    18
          NUMBER OF OCC. -B-  ORBITALS =    18
          NUMBER OF MOLECULAR ORBITALS =    66
          NUMBER OF   BASIS  FUNCTIONS =    66

 CPU     0: STEP CPU TIME=     0.03 TOTAL CPU TIME=          0.1 (      0.0 MIN)
 TOTAL WALL CLOCK TIME=          0.1 SECONDS, CPU UTILIZATION IS    60.00%
 CPU     0: STEP CPU TIME=     0.00 TOTAL CPU TIME=          0.1 (      0.0 MIN)
 TOTAL WALL CLOCK TIME=          0.1 SECONDS, CPU UTILIZATION IS    60.00%

     INPUT FOR CAVITY DEFINITION 
     ---------------------------
   ATOM               COORDINATES                RADIUS       EPS
      1     -3.6050     -5.7530     -8.0580      0.0100     78.3900
      2     -3.0750     -4.9420     -7.9390      1.5900     78.3900
      3     -3.2710     -4.1330     -9.1090      1.7700     78.3900
      4     -4.3560     -3.9090     -9.2200      0.0100     78.3900
      5     -2.9450     -4.7030    -10.0080      0.0100     78.3900
      6     -2.4990     -2.8110     -9.0540      1.7700     78.3900
      7     -2.6490     -2.2240     -9.9860      0.0100     78.3900
      8     -2.9850     -1.9980     -7.9420      1.5900     78.3900
      9     -1.8920     -1.3200     -7.3470      1.7700     78.3900
     10     -2.1370     -0.2330     -7.3730      0.0100     78.3900
     11     -1.7000     -1.7330     -5.9520      1.6800     78.3900
     12     -1.1300     -1.7900     -3.8280      1.7700     78.3900
     13     -1.8880     -2.9310     -4.0560      1.6800     78.3900
     14     -2.2090     -2.8490     -5.3270      1.7700     78.3900
     15     -2.8170     -3.5760     -5.8740      0.0100     78.3900
     16      0.1910     -0.1230     -2.7870      1.6800     78.3900
     17      0.2610      0.4610     -3.9880      1.7700     78.3900
     18      0.8470      1.3860     -4.0230      0.0100     78.3900
     19     -0.3170      0.0990     -5.1400      1.6800     78.3900
     20     -0.9980     -1.0490     -4.9900      1.7700     78.3900
     21     -0.5140     -1.2770     -2.6660      1.7700     78.3900
     22     -0.6000     -1.8640     -1.4560      1.6800     78.3900
     23     -1.1080     -2.7180     -1.3110      0.0100     78.3900
     24     -0.1040     -1.4800     -0.6740      0.0100     78.3900
     25     -0.6730     -1.5820     -8.2060      1.7700     78.3900
     26      0.2660     -1.6050     -7.6160      0.0100     78.3900
     27     -0.5880     -0.5940     -9.2140      1.5900     78.3900
     28      0.1610     -0.8350     -9.7720      0.0100     78.3900
     29     -0.9920     -2.9500     -8.8010      1.7700     78.3900
     30     -0.8700     -3.7410     -8.0250      0.0100     78.3900
     31     -0.3100     -3.2620    -10.0430      1.5900     78.3900
     32      1.0750     -4.0130     -9.9680      2.1000     78.3900
     33      0.9180     -5.1960     -9.0980      1.5900     78.3900
     34      1.5520     -4.2620    -11.3460      1.5900     78.3900
     35      2.0410     -2.9770     -9.2770      1.5900     78.3900
     36      2.4640     -1.7980    -10.0050      1.7700     78.3900
     37      1.5960     -1.2390    -10.4240      0.0100     78.3900
     38      3.1190     -2.0850    -10.8620      0.0100     78.3900
     39      3.2510     -0.8340     -9.1060      1.7700     78.3900
     40      3.4750      0.1140     -9.6400      0.0100     78.3900
     41      2.4710     -0.4920     -7.9260      1.5900     78.3900
     42      3.3420     -0.3570     -6.8130      1.7700     78.3900
     43      3.2010      0.6870     -6.4500      0.0100     78.3900
     44      3.0250     -1.2990     -5.7010      1.6800     78.3900
     45      2.3500     -2.4690     -5.9610      1.7700     78.3900
     46      2.0780     -2.6390     -7.0030      0.0100     78.3900
     47      2.0230     -3.3200     -4.9810      1.7700     78.3900
     48      1.4580     -4.2320     -5.1630      0.0100     78.3900
     49      3.4400     -1.0180     -4.3990      1.7700     78.3900
     50      4.0780      0.0220     -4.1730      1.5900     78.3900
     51      3.1280     -1.8740     -3.3990      1.6800     78.3900
     52      2.4240     -2.9880     -3.6550      1.7700     78.3900
     53      2.0960     -3.7920     -2.6460      1.6800     78.3900
     54      2.3640     -3.5390     -1.7120      0.0100     78.3900
     55      1.5610     -4.6240     -2.7840      0.0100     78.3900
     56      4.7580     -0.5140     -7.3270      1.7700     78.3900
     57      5.4000     -1.0200     -6.5870      0.0100     78.3900
     58      5.3090      0.7450     -7.6730      1.5900     78.3900
     59      6.1730      0.5640     -8.0770      0.0100     78.3900
     60      4.5640     -1.3960     -8.5560      1.7700     78.3900
     61      4.3650     -2.4500     -8.2560      0.0100     78.3900
     62      5.6040     -1.2860     -9.5550      1.5900     78.3900
     63      6.9390     -2.0930     -9.3470      2.1000     78.3900
     64      6.5830     -3.4450     -8.8660      1.5900     78.3900
     65      7.7300     -2.0370    -10.5990      1.5900     78.3900
     66      7.7250     -1.3200     -8.2200      1.5900     78.3900
     67      8.7300     -2.0100     -7.4240      1.7700     78.3900
     68      9.7510     -1.7780     -7.8070      0.0100     78.3900
     69      8.6220     -3.1200     -7.4720      0.0100     78.3900
     70      8.6630     -1.6310     -5.9300      1.7700     78.3900
     71      9.0430     -0.6020     -5.7590      0.0100     78.3900
     72      7.2810     -1.6620     -5.4790      1.5900     78.3900
     73      7.1700     -2.3030     -4.2310      1.7700     78.3900
     74      6.5980     -1.5880     -3.5940      0.0100     78.3900
     75      6.4240     -3.5920     -4.3270      1.6800     78.3900
     76      6.3040     -4.2660     -5.5270      1.7700     78.3900
     77      6.7820     -3.7960     -6.3910      0.0100     78.3900
     78      5.7880     -4.0620     -3.1970      1.7700     78.3900
     79      5.8200     -3.4680     -2.1250      1.5900     78.3900
     80      5.1060     -5.2370     -3.3540      1.6800     78.3900
     81      4.6770     -5.6060     -2.5170      0.0100     78.3900
     82      4.9470     -5.9630     -4.5130      1.7700     78.3900
     83      4.2840     -7.0000     -4.5080      1.5900     78.3900
     84      5.6030     -5.4010     -5.6540      1.7700     78.3900
     85      5.5140     -5.9140     -6.6090      0.0100     78.3900
     86      8.5860     -2.4470     -3.6970      1.7700     78.3900
     87      8.7060     -3.3420     -3.0520      0.0100     78.3900
     88      8.9780     -1.2750     -2.9870      1.5900     78.3900
     89      8.2040     -0.7340     -2.7730      0.0100     78.3900
     90      9.3830     -2.6110     -4.9900      1.7700     78.3900
     91      9.2120     -3.6310     -5.4100      0.0100     78.3900
     92     10.7890     -2.2740     -4.8940      1.5900     78.3900
     93     11.7710     -3.4010     -4.3880      2.1000     78.3900
     94     11.0210     -4.4440     -3.6550      1.5900     78.3900
     95     12.5580     -3.8550     -5.5530      1.5900     78.3900
     96     12.7430     -2.6720     -3.3900      1.5900     78.3900
     97     12.3690     -2.3670     -2.0300      1.7700     78.3900
     98     12.2410     -3.3050     -1.4410      0.0100     78.3900
     99     11.4010     -1.8170     -2.0080      0.0100     78.3900
    100     13.4580     -1.5150     -1.3420      1.7700     78.3900
    101     14.3510     -2.1390     -1.1310      0.0100     78.3900
    102     13.8540     -0.3900     -2.1840      1.5900     78.3900
    103     13.2530      0.8020     -1.7080      1.7700     78.3900
    104     14.0960      1.3890     -1.2750      0.0100     78.3900
    105     12.5820      1.5370     -2.8000      1.6800     78.3900
    106     11.8660      0.8560     -3.7590      1.7700     78.3900
    107     11.8210     -0.2300     -3.6310      0.0100     78.3900
    108     12.7090      2.9070     -2.8450      1.7700     78.3900
    109     13.3480      3.5420     -2.0100      1.5900     78.3900
    110     12.0820      3.5100     -3.9030      1.6800     78.3900
    111     12.1860      4.5110     -3.9510      0.0100     78.3900
    112     11.3930      2.8970     -4.9280      1.7700     78.3900
    113     10.9230      3.5700     -5.8450      1.5900     78.3900
    114     11.2940      1.4710     -4.8050      1.7700     78.3900
    115     10.7700      0.9140     -5.5780      0.0100     78.3900
    116     12.3060      0.4250     -0.5840      1.7700     78.3900
    117     11.2960      0.1960     -0.9860      0.0100     78.3900
    118     12.2260      1.4260      0.4120      1.5900     78.3900
    119     13.0880      1.4560      0.8580      0.0100     78.3900
    120     12.9650     -0.8420     -0.0490      1.7700     78.3900
    121     12.1750     -1.4910      0.3980      0.0100     78.3900
    122     14.0590     -0.5840      0.8670      1.5900     78.3900
    123     14.1870     -1.4330      2.1820      2.1000     78.3900
    124     13.9840     -2.8670      1.8740      1.5900     78.3900
    125     15.4430     -1.0520      2.8600      1.5900     78.3900
    126     12.9710     -0.9390      3.0370      1.5900     78.3900
    127     13.0820     -0.9130      4.4760      1.7700     78.3900
    128     13.0580      0.1500      4.8130      0.0100     78.3900
    129     14.0310     -1.3480      4.8740      0.0100     78.3900
    130     11.9220     -1.6480      5.1530      1.7700     78.3900
    131     12.0660     -1.4950      6.2320      0.0100     78.3900
    132     10.6610     -1.0490      4.7570      1.5900     78.3900
    133      9.6710     -2.0480      4.5410      1.7700     78.3900
    134      8.8080     -1.7220      5.1660      0.0100     78.3900
    135      9.1910     -2.1320      3.1480      1.6800     78.3900
    136      9.8140     -1.4020      2.1650      1.7700     78.3900
    137     10.6750     -0.8040      2.4700      0.0100     78.3900
    138      9.3740     -1.4300      0.9050      1.7700     78.3900
    139      9.8390     -0.8510      0.1120      0.0100     78.3900
    140      8.0810     -2.9250      2.8370      1.7700     78.3900
    141      7.5160     -3.5670      3.7360      1.5900     78.3900
    142      7.6350     -2.9710      1.5640      1.6800     78.3900
    143      8.2430     -2.2390      0.6220      1.7700     78.3900
    144      7.7830     -2.2830     -0.6090      1.6800     78.3900
    145      6.9880     -2.8570     -0.8140      0.0100     78.3900
    146      8.3480     -1.9590     -1.3680      0.0100     78.3900
    147     10.2030     -3.3660      5.0370      1.7700     78.3900
    148      9.9190     -4.2270      4.3960      0.0100     78.3900
    149      9.6700     -3.5620      6.3290      1.5900     78.3900
    150     10.2670     -3.1350      6.9640      0.0100     78.3900
    151     11.7370     -3.1580      4.9500      1.7700     78.3900
    152     12.0420     -3.3420      3.8950      0.0100     78.3900
    153     12.6060     -3.9080      5.8210      1.5900     78.3900
    154     12.4330     -4.4220      7.2910      2.1000     78.3900
    155     11.5120     -5.5800      7.2900      1.5900     78.3900
    156     13.7630     -4.6410      7.8960      1.5900     78.3900
    157     11.7560     -3.1900      8.0250      1.5900     78.3900
    158     11.1990     -3.3200      9.3520      1.7700     78.3900
    159     12.0020     -3.6450     10.0630      0.0100     78.3900
    160     10.4080     -4.1040      9.3630      0.0100     78.3900
    161     10.5690     -2.0060      9.8960      1.7700     78.3900
    162     10.1730     -2.1830     10.9210      0.0100     78.3900
    163     11.5760     -0.9610      9.9730      1.5900     78.3900
    164     11.3340      0.0230      8.9740      1.7700     78.3900
    165     10.9540      0.9260      9.5060      0.0100     78.3900
    166     12.5730      0.3440      8.2440      1.6800     78.3900
    167     12.9270      1.5710      7.7520      1.7700     78.3900
    168     12.2310      4.9290      7.2670      1.6800     78.3900
    169     12.6590      5.7250      6.8390      0.0100     78.3900
    170     11.3140      5.0160      7.6550      0.0100     78.3900
    171     12.2000      2.6980      7.8460      1.6800     78.3900
    172     12.8060      3.7410      7.2790      1.7700     78.3900
    173     14.0480      3.6690      6.7060      1.6800     78.3900
    174     14.4470      4.5080      6.3280      0.0100     78.3900
    175     14.8320      2.5250      6.6180      1.7700     78.3900
    176     15.9500      2.5460      6.0930      1.5900     78.3900
    177     14.1810      1.3990      7.1930      1.7700     78.3900
    178     14.6110      0.0810      7.3280      1.6800     78.3900
    179     13.6210     -0.5080      7.9580      1.7700     78.3900
    180     13.5970     -1.5590      8.2580      0.0100     78.3900
    181     10.2310     -0.4980      8.0740      1.7700     78.3900
    182     10.6160     -1.1570      7.2950      0.0100     78.3900
    183      9.4730      0.5330      7.4690      1.5900     78.3900
    184      8.6510      0.1170      7.1470      0.0100     78.3900
    185      9.4380     -1.3980      9.0210      1.7700     78.3900
    186      8.9850     -2.2450      8.4600      0.0100     78.3900
    187      8.4500     -0.7030      9.7980      1.5900     78.3900
    188      6.9500     -0.5690      9.3310      2.1000     78.3900
    189      6.2780     -1.8420      9.6560      1.5900     78.3900
    190      6.3840      0.6540      9.9370      1.5900     78.3900
    191      6.9680     -0.4200      7.7520      1.5900     78.3900
    192      5.9510      0.3810      7.0910      1.7700     78.3900
    193      5.5870      1.2300      7.7160      0.0100     78.3900
    194      5.0690     -0.2620      6.8700      0.0100     78.3900
    195      6.4440      0.9740      5.7610      1.7700     78.3900
    196      7.3270      1.6300      5.9240      0.0100     78.3900
    197      6.8360     -0.0900      4.8540      1.5900     78.3900
    198      6.5010      0.2770      3.5210      1.7700     78.3900
    199      7.4490      0.2580      2.9360      0.0100     78.3900
    200      5.5540     -0.6770      2.9250      1.6800     78.3900
    201      5.1550     -0.7250      1.6160      1.7700     78.3900
    202      5.2450      0.5100     -1.6240      1.6800     78.3900
    203      5.8570      1.2970     -1.5570      0.0100     78.3900
    204      4.7930      0.3110     -2.4990      0.0100     78.3900
    205      5.5500      0.1130      0.6350      1.6800     78.3900
    206      5.0030     -0.2030     -0.5400      1.7700     78.3900
    207      4.1420     -1.2510     -0.7150      1.6800     78.3900
    208      3.8090     -1.4440     -1.6470      0.0100     78.3900
    209      3.7330     -2.1370      0.2700      1.7700     78.3900
    210      2.9630     -3.0700      0.0190      1.5900     78.3900
    211      4.2880     -1.8010      1.5320      1.7700     78.3900
    212      4.1330     -2.4110      2.7700      1.6800     78.3900
    213      4.9100     -1.7140      3.5650      1.7700     78.3900
    214      5.0630     -1.9090      4.6290      0.0100     78.3900
    215      5.9470      1.6860      3.5560      1.7700     78.3900
    216      5.1550      1.8500      2.7980      0.0100     78.3900
    217      6.9810      2.6290      3.3550      1.5900     78.3900
    218      6.5740      3.4970      3.4480      0.0100     78.3900
    219      5.3870      1.7600      4.9700      1.7700     78.3900
    220      4.4540      1.1520      5.0330      0.0100     78.3900
    221      5.2450      3.1030      5.5010      1.5900     78.3900
    222      3.8080      3.7610      5.4780      2.1000     78.3900
    223      2.7990      2.7310      5.8020      1.5900     78.3900
    224      3.8050      4.9770      6.3190      1.5900     78.3900
    225      3.6410      4.1880      3.9740      1.5900     78.3900
    226      4.4950      5.2090      3.4050      1.7700     78.3900
    227      5.5720      4.9390      3.5010      0.0100     78.3900
    228      4.3480      6.1830      3.9310      0.0100     78.3900
    229      4.1950      5.4190      1.9130      1.7700     78.3900
    230      4.8000      6.2580      1.5020      0.0100     78.3900
    231      4.5450      4.2150      1.1680      1.5900     78.3900
    232      3.5820      3.9950      0.1420      1.7700     78.3900
    233      4.1600      3.9440     -0.8120      0.0100     78.3900
    234      2.8270      2.7250      0.3500      1.6800     78.3900
    235      2.7680      2.1320      1.5900      1.7700     78.3900
    236      3.3240      2.6380      2.3740      0.0100     78.3900
    237      2.1830      2.1600     -0.7270      1.7700     78.3900
    238      2.1950      2.6650     -1.8440      1.5900     78.3900
    239      1.5200      0.9900     -0.4590      1.6800     78.3900
    240      1.0680      0.5600     -1.2580      0.0100     78.3900
    241      1.4580      0.3190      0.7450      1.7700     78.3900
    242      0.8620     -0.7530      0.8260      1.5900     78.3900
    243      2.1350      0.9750      1.8200      1.7700     78.3900
    244      2.1420      0.5060      2.8010      0.0100     78.3900
    245      2.6690      5.2130      0.1110      1.7700     78.3900
    246      1.6290      4.9470     -0.1870      0.0100     78.3900
    247      3.1940      6.1830     -0.7840      1.5900     78.3900
    248      2.6870      7.0100     -0.6950      0.0100     78.3900
    249      2.7210      5.6680      1.5650      1.7700     78.3900
    250      2.1030      4.9970      2.1990      0.0100     78.3900
    251      2.3570      7.0470      1.7690      1.5900     78.3900
    252      1.4050      7.1630      1.5970      0.0100     78.3900

     ----------------------------
     INPUT FOR TESSERA DEFINITION
     ----------------------------
     NTSALL  =        60     MTHALL  =         4
     MTHAUT  =         0     AUTFRE  =    2.0000
     NTSFRZ  =        60     KEEPSM  =         0
     AREAKP  =   10.0000     BONDRY  =    1.0000
     AREATL  =    0.0100

     SPHERE     INITS       METHOD
          1        60       FIXPVA
          2        60       FIXPVA
          3        60       FIXPVA
          4        60       FIXPVA
          5        60       FIXPVA
          6        60       FIXPVA
          7        60       FIXPVA
          8        60       FIXPVA
          9        60       FIXPVA
         10        60       FIXPVA
         11        60       FIXPVA
         12        60       FIXPVA
         13        60       FIXPVA
         14        60       FIXPVA
         15        60       FIXPVA
         16        60       FIXPVA
         17        60       FIXPVA
         18        60       FIXPVA
         19        60       FIXPVA
         20        60       FIXPVA
         21        60       FIXPVA
         22        60       FIXPVA
         23        60       FIXPVA
         24        60       FIXPVA
         25        60       FIXPVA
         26        60       FIXPVA
         27        60       FIXPVA
         28        60       FIXPVA
         29        60       FIXPVA
         30        60       FIXPVA
         31        60       FIXPVA
         32        60       FIXPVA
         33        60       FIXPVA
         34        60       FIXPVA
         35        60       FIXPVA
         36        60       FIXPVA
         37        60       FIXPVA
         38        60       FIXPVA
         39        60       FIXPVA
         40        60       FIXPVA
         41        60       FIXPVA
         42        60       FIXPVA
         43        60       FIXPVA
         44        60       FIXPVA
         45        60       FIXPVA
         46        60       FIXPVA
         47        60       FIXPVA
         48        60       FIXPVA
         49        60       FIXPVA
         50        60       FIXPVA
         51        60       FIXPVA
         52        60       FIXPVA
         53        60       FIXPVA
         54        60       FIXPVA
         55        60       FIXPVA
         56        60       FIXPVA
         57        60       FIXPVA
         58        60       FIXPVA
         59        60       FIXPVA
         60        60       FIXPVA
         61        60       FIXPVA
         62        60       FIXPVA
         63        60       FIXPVA
         64        60       FIXPVA
         65        60       FIXPVA
         66        60       FIXPVA
         67        60       FIXPVA
         68        60       FIXPVA
         69        60       FIXPVA
         70        60       FIXPVA
         71        60       FIXPVA
         72        60       FIXPVA
         73        60       FIXPVA
         74        60       FIXPVA
         75        60       FIXPVA
         76        60       FIXPVA
         77        60       FIXPVA
         78        60       FIXPVA
         79        60       FIXPVA
         80        60       FIXPVA
         81        60       FIXPVA
         82        60       FIXPVA
         83        60       FIXPVA
         84        60       FIXPVA
         85        60       FIXPVA
         86        60       FIXPVA
         87        60       FIXPVA
         88        60       FIXPVA
         89        60       FIXPVA
         90        60       FIXPVA
         91        60       FIXPVA
         92        60       FIXPVA
         93        60       FIXPVA
         94        60       FIXPVA
         95        60       FIXPVA
         96        60       FIXPVA
         97        60       FIXPVA
         98        60       FIXPVA
         99        60       FIXPVA
        100        60       FIXPVA
        101        60       FIXPVA
        102        60       FIXPVA
        103        60       FIXPVA
        104        60       FIXPVA
        105        60       FIXPVA
        106        60       FIXPVA
        107        60       FIXPVA
        108        60       FIXPVA
        109        60       FIXPVA
        110        60       FIXPVA
        111        60       FIXPVA
        112        60       FIXPVA
        113        60       FIXPVA
        114        60       FIXPVA
        115        60       FIXPVA
        116        60       FIXPVA
        117        60       FIXPVA
        118        60       FIXPVA
        119        60       FIXPVA
        120        60       FIXPVA
        121        60       FIXPVA
        122        60       FIXPVA
        123        60       FIXPVA
        124        60       FIXPVA
        125        60       FIXPVA
        126        60       FIXPVA
        127        60       FIXPVA
        128        60       FIXPVA
        129        60       FIXPVA
        130        60       FIXPVA
        131        60       FIXPVA
        132        60       FIXPVA
        133        60       FIXPVA
        134        60       FIXPVA
        135        60       FIXPVA
        136        60       FIXPVA
        137        60       FIXPVA
        138        60       FIXPVA
        139        60       FIXPVA
        140        60       FIXPVA
        141        60       FIXPVA
        142        60       FIXPVA
        143        60       FIXPVA
        144        60       FIXPVA
        145        60       FIXPVA
        146        60       FIXPVA
        147        60       FIXPVA
        148        60       FIXPVA
        149        60       FIXPVA
        150        60       FIXPVA
        151        60       FIXPVA
        152        60       FIXPVA
        153        60       FIXPVA
        154        60       FIXPVA
        155        60       FIXPVA
        156        60       FIXPVA
        157        60       FIXPVA
        158        60       FIXPVA
        159        60       FIXPVA
        160        60       FIXPVA
        161        60       FIXPVA
        162        60       FIXPVA
        163        60       FIXPVA
        164        60       FIXPVA
        165        60       FIXPVA
        166        60       FIXPVA
        167        60       FIXPVA
        168        60       FIXPVA
        169        60       FIXPVA
        170        60       FIXPVA
        171        60       FIXPVA
        172        60       FIXPVA
        173        60       FIXPVA
        174        60       FIXPVA
        175        60       FIXPVA
        176        60       FIXPVA
        177        60       FIXPVA
        178        60       FIXPVA
        179        60       FIXPVA
        180        60       FIXPVA
        181        60       FIXPVA
        182        60       FIXPVA
        183        60       FIXPVA
        184        60       FIXPVA
        185        60       FIXPVA
        186        60       FIXPVA
        187        60       FIXPVA
        188        60       FIXPVA
        189        60       FIXPVA
        190        60       FIXPVA
        191        60       FIXPVA
        192        60       FIXPVA
        193        60       FIXPVA
        194        60       FIXPVA
        195        60       FIXPVA
        196        60       FIXPVA
        197        60       FIXPVA
        198        60       FIXPVA
        199        60       FIXPVA
        200        60       FIXPVA
        201        60       FIXPVA
        202        60       FIXPVA
        203        60       FIXPVA
        204        60       FIXPVA
        205        60       FIXPVA
        206        60       FIXPVA
        207        60       FIXPVA
        208        60       FIXPVA
        209        60       FIXPVA
        210        60       FIXPVA
        211        60       FIXPVA
        212        60       FIXPVA
        213        60       FIXPVA
        214        60       FIXPVA
        215        60       FIXPVA
        216        60       FIXPVA
        217        60       FIXPVA
        218        60       FIXPVA
        219        60       FIXPVA
        220        60       FIXPVA
        221        60       FIXPVA
        222        60       FIXPVA
        223        60       FIXPVA
        224        60       FIXPVA
        225        60       FIXPVA
        226        60       FIXPVA
        227        60       FIXPVA
        228        60       FIXPVA
        229        60       FIXPVA
        230        60       FIXPVA
        231        60       FIXPVA
        232        60       FIXPVA
        233        60       FIXPVA
        234        60       FIXPVA
        235        60       FIXPVA
        236        60       FIXPVA
        237        60       FIXPVA
        238        60       FIXPVA
        239        60       FIXPVA
        240        60       FIXPVA
        241        60       FIXPVA
        242        60       FIXPVA
        243        60       FIXPVA
        244        60       FIXPVA
        245        60       FIXPVA
        246        60       FIXPVA
        247        60       FIXPVA
        248        60       FIXPVA
        249        60       FIXPVA
        250        60       FIXPVA
        251        60       FIXPVA
        252        60       FIXPVA

     ------------------------------
      FIXPVA TESSELLATION FOR PCM
         PEIFENG SU AND HUI LI
     UNIVERSITY OF NEBRASKA-LINCOLN
     ------------------------------


 PCM DIMENSIONS: MXSP=   252, MXTS=     10080, MEMORY=        103575

     INPUT FOR CAVITY DEFINITION 
     ---------------------------
   ATOM               COORDINATES                RADIUS       EPS
      1     -3.6050     -5.7530     -8.0580      0.0100     78.3900
      2     -3.0750     -4.9420     -7.9390      1.5900     78.3900
      3     -3.2710     -4.1330     -9.1090      1.7700     78.3900
      4     -4.3560     -3.9090     -9.2200      0.0100     78.3900
      5     -2.9450     -4.7030    -10.0080      0.0100     78.3900
      6     -2.4990     -2.8110     -9.0540      1.7700     78.3900
      7     -2.6490     -2.2240     -9.9860      0.0100     78.3900
      8     -2.9850     -1.9980     -7.9420      1.5900     78.3900
      9     -1.8920     -1.3200     -7.3470      1.7700     78.3900
     10     -2.1370     -0.2330     -7.3730      0.0100     78.3900
     11     -1.7000     -1.7330     -5.9520      1.6800     78.3900
     12     -1.1300     -1.7900     -3.8280      1.7700     78.3900
     13     -1.8880     -2.9310     -4.0560      1.6800     78.3900
     14     -2.2090     -2.8490     -5.3270      1.7700     78.3900
     15     -2.8170     -3.5760     -5.8740      0.0100     78.3900
     16      0.1910     -0.1230     -2.7870      1.6800     78.3900
     17      0.2610      0.4610     -3.9880      1.7700     78.3900
     18      0.8470      1.3860     -4.0230      0.0100     78.3900
     19     -0.3170      0.0990     -5.1400      1.6800     78.3900
     20     -0.9980     -1.0490     -4.9900      1.7700     78.3900
     21     -0.5140     -1.2770     -2.6660      1.7700     78.3900
     22     -0.6000     -1.8640     -1.4560      1.6800     78.3900
     23     -1.1080     -2.7180     -1.3110      0.0100     78.3900
     24     -0.1040     -1.4800     -0.6740      0.0100     78.3900
     25     -0.6730     -1.5820     -8.2060      1.7700     78.3900
     26      0.2660     -1.6050     -7.6160      0.0100     78.3900
     27     -0.5880     -0.5940     -9.2140      1.5900     78.3900
     28      0.1610     -0.8350     -9.7720      0.0100     78.3900
     29     -0.9920     -2.9500     -8.8010      1.7700     78.3900
     30     -0.8700     -3.7410     -8.0250      0.0100     78.3900
     31     -0.3100     -3.2620    -10.0430      1.5900     78.3900
     32      1.0750     -4.0130     -9.9680      2.1000     78.3900
     33      0.9180     -5.1960     -9.0980      1.5900     78.3900
     34      1.5520     -4.2620    -11.3460      1.5900     78.3900
     35      2.0410     -2.9770     -9.2770      1.5900     78.3900
     36      2.4640     -1.7980    -10.0050      1.7700     78.3900
     37      1.5960     -1.2390    -10.4240      0.0100     78.3900
     38      3.1190     -2.0850    -10.8620      0.0100     78.3900
     39      3.2510     -0.8340     -9.1060      1.7700     78.3900
     40      3.4750      0.1140     -9.6400      0.0100     78.3900
     41      2.4710     -0.4920     -7.9260      1.5900     78.3900
     42      3.3420     -0.3570     -6.8130      1.7700     78.3900
     43      3.2010      0.6870     -6.4500      0.0100     78.3900
     44      3.0250     -1.2990     -5.7010      1.6800     78.3900
     45      2.3500     -2.4690     -5.9610      1.7700     78.3900
     46      2.0780     -2.6390     -7.0030      0.0100     78.3900
     47      2.0230     -3.3200     -4.9810      1.7700     78.3900
     48      1.4580     -4.2320     -5.1630      0.0100     78.3900
     49      3.4400     -1.0180     -4.3990      1.7700     78.3900
     50      4.0780      0.0220     -4.1730      1.5900     78.3900
     51      3.1280     -1.8740     -3.3990      1.6800     78.3900
     52      2.4240     -2.9880     -3.6550      1.7700     78.3900
     53      2.0960     -3.7920     -2.6460      1.6800     78.3900
     54      2.3640     -3.5390     -1.7120      0.0100     78.3900
     55      1.5610     -4.6240     -2.7840      0.0100     78.3900
     56      4.7580     -0.5140     -7.3270      1.7700     78.3900
     57      5.4000     -1.0200     -6.5870      0.0100     78.3900
     58      5.3090      0.7450     -7.6730      1.5900     78.3900
     59      6.1730      0.5640     -8.0770      0.0100     78.3900
     60      4.5640     -1.3960     -8.5560      1.7700     78.3900
     61      4.3650     -2.4500     -8.2560      0.0100     78.3900
     62      5.6040     -1.2860     -9.5550      1.5900     78.3900
     63      6.9390     -2.0930     -9.3470      2.1000     78.3900
     64      6.5830     -3.4450     -8.8660      1.5900     78.3900
     65      7.7300     -2.0370    -10.5990      1.5900     78.3900
     66      7.7250     -1.3200     -8.2200      1.5900     78.3900
     67      8.7300     -2.0100     -7.4240      1.7700     78.3900
     68      9.7510     -1.7780     -7.8070      0.0100     78.3900
     69      8.6220     -3.1200     -7.4720      0.0100     78.3900
     70      8.6630     -1.6310     -5.9300      1.7700     78.3900
     71      9.0430     -0.6020     -5.7590      0.0100     78.3900
     72      7.2810     -1.6620     -5.4790      1.5900     78.3900
     73      7.1700     -2.3030     -4.2310      1.7700     78.3900
     74      6.5980     -1.5880     -3.5940      0.0100     78.3900
     75      6.4240     -3.5920     -4.3270      1.6800     78.3900
     76      6.3040     -4.2660     -5.5270      1.7700     78.3900
     77      6.7820     -3.7960     -6.3910      0.0100     78.3900
     78      5.7880     -4.0620     -3.1970      1.7700     78.3900
     79      5.8200     -3.4680     -2.1250      1.5900     78.3900
     80      5.1060     -5.2370     -3.3540      1.6800     78.3900
     81      4.6770     -5.6060     -2.5170      0.0100     78.3900
     82      4.9470     -5.9630     -4.5130      1.7700     78.3900
     83      4.2840     -7.0000     -4.5080      1.5900     78.3900
     84      5.6030     -5.4010     -5.6540      1.7700     78.3900
     85      5.5140     -5.9140     -6.6090      0.0100     78.3900
     86      8.5860     -2.4470     -3.6970      1.7700     78.3900
     87      8.7060     -3.3420     -3.0520      0.0100     78.3900
     88      8.9780     -1.2750     -2.9870      1.5900     78.3900
     89      8.2040     -0.7340     -2.7730      0.0100     78.3900
     90      9.3830     -2.6110     -4.9900      1.7700     78.3900
     91      9.2120     -3.6310     -5.4100      0.0100     78.3900
     92     10.7890     -2.2740     -4.8940      1.5900     78.3900
     93     11.7710     -3.4010     -4.3880      2.1000     78.3900
     94     11.0210     -4.4440     -3.6550      1.5900     78.3900
     95     12.5580     -3.8550     -5.5530      1.5900     78.3900
     96     12.7430     -2.6720     -3.3900      1.5900     78.3900
     97     12.3690     -2.3670     -2.0300      1.7700     78.3900
     98     12.2410     -3.3050     -1.4410      0.0100     78.3900
     99     11.4010     -1.8170     -2.0080      0.0100     78.3900
    100     13.4580     -1.5150     -1.3420      1.7700     78.3900
    101     14.3510     -2.1390     -1.1310      0.0100     78.3900
    102     13.8540     -0.3900     -2.1840      1.5900     78.3900
    103     13.2530      0.8020     -1.7080      1.7700     78.3900
    104     14.0960      1.3890     -1.2750      0.0100     78.3900
    105     12.5820      1.5370     -2.8000      1.6800     78.3900
    106     11.8660      0.8560     -3.7590      1.7700     78.3900
    107     11.8210     -0.2300     -3.6310      0.0100     78.3900
    108     12.7090      2.9070     -2.8450      1.7700     78.3900
    109     13.3480      3.5420     -2.0100      1.5900     78.3900
    110     12.0820      3.5100     -3.9030      1.6800     78.3900
    111     12.1860      4.5110     -3.9510      0.0100     78.3900
    112     11.3930      2.8970     -4.9280      1.7700     78.3900
    113     10.9230      3.5700     -5.8450      1.5900     78.3900
    114     11.2940      1.4710     -4.8050      1.7700     78.3900
    115     10.7700      0.9140     -5.5780      0.0100     78.3900
    116     12.3060      0.4250     -0.5840      1.7700     78.3900
    117     11.2960      0.1960     -0.9860      0.0100     78.3900
    118     12.2260      1.4260      0.4120      1.5900     78.3900
    119     13.0880      1.4560      0.8580      0.0100     78.3900
    120     12.9650     -0.8420     -0.0490      1.7700     78.3900
    121     12.1750     -1.4910      0.3980      0.0100     78.3900
    122     14.0590     -0.5840      0.8670      1.5900     78.3900
    123     14.1870     -1.4330      2.1820      2.1000     78.3900
    124     13.9840     -2.8670      1.8740      1.5900     78.3900
    125     15.4430     -1.0520      2.8600      1.5900     78.3900
    126     12.9710     -0.9390      3.0370      1.5900     78.3900
    127     13.0820     -0.9130      4.4760      1.7700     78.3900
    128     13.0580      0.1500      4.8130      0.0100     78.3900
    129     14.0310     -1.3480      4.8740      0.0100     78.3900
    130     11.9220     -1.6480      5.1530      1.7700     78.3900
    131     12.0660     -1.4950      6.2320      0.0100     78.3900
    132     10.6610     -1.0490      4.7570      1.5900     78.3900
    133      9.6710     -2.0480      4.5410      1.7700     78.3900
    134      8.8080     -1.7220      5.1660      0.0100     78.3900
    135      9.1910     -2.1320      3.1480      1.6800     78.3900
    136      9.8140     -1.4020      2.1650      1.7700     78.3900
    137     10.6750     -0.8040      2.4700      0.0100     78.3900
    138      9.3740     -1.4300      0.9050      1.7700     78.3900
    139      9.8390     -0.8510      0.1120      0.0100     78.3900
    140      8.0810     -2.9250      2.8370      1.7700     78.3900
    141      7.5160     -3.5670      3.7360      1.5900     78.3900
    142      7.6350     -2.9710      1.5640      1.6800     78.3900
    143      8.2430     -2.2390      0.6220      1.7700     78.3900
    144      7.7830     -2.2830     -0.6090      1.6800     78.3900
    145      6.9880     -2.8570     -0.8140      0.0100     78.3900
    146      8.3480     -1.9590     -1.3680      0.0100     78.3900
    147     10.2030     -3.3660      5.0370      1.7700     78.3900
    148      9.9190     -4.2270      4.3960      0.0100     78.3900
    149      9.6700     -3.5620      6.3290      1.5900     78.3900
    150     10.2670     -3.1350      6.9640      0.0100     78.3900
    151     11.7370     -3.1580      4.9500      1.7700     78.3900
    152     12.0420     -3.3420      3.8950      0.0100     78.3900
    153     12.6060     -3.9080      5.8210      1.5900     78.3900
    154     12.4330     -4.4220      7.2910      2.1000     78.3900
    155     11.5120     -5.5800      7.2900      1.5900     78.3900
    156     13.7630     -4.6410      7.8960      1.5900     78.3900
    157     11.7560     -3.1900      8.0250      1.5900     78.3900
    158     11.1990     -3.3200      9.3520      1.7700     78.3900
    159     12.0020     -3.6450     10.0630      0.0100     78.3900
    160     10.4080     -4.1040      9.3630      0.0100     78.3900
    161     10.5690     -2.0060      9.8960      1.7700     78.3900
    162     10.1730     -2.1830     10.9210      0.0100     78.3900
    163     11.5760     -0.9610      9.9730      1.5900     78.3900
    164     11.3340      0.0230      8.9740      1.7700     78.3900
    165     10.9540      0.9260      9.5060      0.0100     78.3900
    166     12.5730      0.3440      8.2440      1.6800     78.3900
    167     12.9270      1.5710      7.7520      1.7700     78.3900
    168     12.2310      4.9290      7.2670      1.6800     78.3900
    169     12.6590      5.7250      6.8390      0.0100     78.3900
    170     11.3140      5.0160      7.6550      0.0100     78.3900
    171     12.2000      2.6980      7.8460      1.6800     78.3900
    172     12.8060      3.7410      7.2790      1.7700     78.3900
    173     14.0480      3.6690      6.7060      1.6800     78.3900
    174     14.4470      4.5080      6.3280      0.0100     78.3900
    175     14.8320      2.5250      6.6180      1.7700     78.3900
    176     15.9500      2.5460      6.0930      1.5900     78.3900
    177     14.1810      1.3990      7.1930      1.7700     78.3900
    178     14.6110      0.0810      7.3280      1.6800     78.3900
    179     13.6210     -0.5080      7.9580      1.7700     78.3900
    180     13.5970     -1.5590      8.2580      0.0100     78.3900
    181     10.2310     -0.4980      8.0740      1.7700     78.3900
    182     10.6160     -1.1570      7.2950      0.0100     78.3900
    183      9.4730      0.5330      7.4690      1.5900     78.3900
    184      8.6510      0.1170      7.1470      0.0100     78.3900
    185      9.4380     -1.3980      9.0210      1.7700     78.3900
    186      8.9850     -2.2450      8.4600      0.0100     78.3900
    187      8.4500     -0.7030      9.7980      1.5900     78.3900
    188      6.9500     -0.5690      9.3310      2.1000     78.3900
    189      6.2780     -1.8420      9.6560      1.5900     78.3900
    190      6.3840      0.6540      9.9370      1.5900     78.3900
    191      6.9680     -0.4200      7.7520      1.5900     78.3900
    192      5.9510      0.3810      7.0910      1.7700     78.3900
    193      5.5870      1.2300      7.7160      0.0100     78.3900
    194      5.0690     -0.2620      6.8700      0.0100     78.3900
    195      6.4440      0.9740      5.7610      1.7700     78.3900
    196      7.3270      1.6300      5.9240      0.0100     78.3900
    197      6.8360     -0.0900      4.8540      1.5900     78.3900
    198      6.5010      0.2770      3.5210      1.7700     78.3900
    199      7.4490      0.2580      2.9360      0.0100     78.3900
    200      5.5540     -0.6770      2.9250      1.6800     78.3900
    201      5.1550     -0.7250      1.6160      1.7700     78.3900
    202      5.2450      0.5100     -1.6240      1.6800     78.3900
    203      5.8570      1.2970     -1.5570      0.0100     78.3900
    204      4.7930      0.3110     -2.4990      0.0100     78.3900
    205      5.5500      0.1130      0.6350      1.6800     78.3900
    206      5.0030     -0.2030     -0.5400      1.7700     78.3900
    207      4.1420     -1.2510     -0.7150      1.6800     78.3900
    208      3.8090     -1.4440     -1.6470      0.0100     78.3900
    209      3.7330     -2.1370      0.2700      1.7700     78.3900
    210      2.9630     -3.0700      0.0190      1.5900     78.3900
    211      4.2880     -1.8010      1.5320      1.7700     78.3900
    212      4.1330     -2.4110      2.7700      1.6800     78.3900
    213      4.9100     -1.7140      3.5650      1.7700     78.3900
    214      5.0630     -1.9090      4.6290      0.0100     78.3900
    215      5.9470      1.6860      3.5560      1.7700     78.3900
    216      5.1550      1.8500      2.7980      0.0100     78.3900
    217      6.9810      2.6290      3.3550      1.5900     78.3900
    218      6.5740      3.4970      3.4480      0.0100     78.3900
    219      5.3870      1.7600      4.9700      1.7700     78.3900
    220      4.4540      1.1520      5.0330      0.0100     78.3900
    221      5.2450      3.1030      5.5010      1.5900     78.3900
    222      3.8080      3.7610      5.4780      2.1000     78.3900
    223      2.7990      2.7310      5.8020      1.5900     78.3900
    224      3.8050      4.9770      6.3190      1.5900     78.3900
    225      3.6410      4.1880      3.9740      1.5900     78.3900
    226      4.4950      5.2090      3.4050      1.7700     78.3900
    227      5.5720      4.9390      3.5010      0.0100     78.3900
    228      4.3480      6.1830      3.9310      0.0100     78.3900
    229      4.1950      5.4190      1.9130      1.7700     78.3900
    230      4.8000      6.2580      1.5020      0.0100     78.3900
    231      4.5450      4.2150      1.1680      1.5900     78.3900
    232      3.5820      3.9950      0.1420      1.7700     78.3900
    233      4.1600      3.9440     -0.8120      0.0100     78.3900
    234      2.8270      2.7250      0.3500      1.6800     78.3900
    235      2.7680      2.1320      1.5900      1.7700     78.3900
    236      3.3240      2.6380      2.3740      0.0100     78.3900
    237      2.1830      2.1600     -0.7270      1.7700     78.3900
    238      2.1950      2.6650     -1.8440      1.5900     78.3900
    239      1.5200      0.9900     -0.4590      1.6800     78.3900
    240      1.0680      0.5600     -1.2580      0.0100     78.3900
    241      1.4580      0.3190      0.7450      1.7700     78.3900
    242      0.8620     -0.7530      0.8260      1.5900     78.3900
    243      2.1350      0.9750      1.8200      1.7700     78.3900
    244      2.1420      0.5060      2.8010      0.0100     78.3900
    245      2.6690      5.2130      0.1110      1.7700     78.3900
    246      1.6290      4.9470     -0.1870      0.0100     78.3900
    247      3.1940      6.1830     -0.7840      1.5900     78.3900
    248      2.6870      7.0100     -0.6950      0.0100     78.3900
    249      2.7210      5.6680      1.5650      1.7700     78.3900
    250      2.1030      4.9970      2.1990      0.0100     78.3900
    251      2.3570      7.0470      1.7690      1.5900     78.3900
    252      1.4050      7.1630      1.5970      0.0100     78.3900

 CREATION OF A NEW CAVITY WITH THE ORIGINAL SPHERE
 SIZES FOR THE COMPUTATION OF THE CAVITATION ENERGY.

     INPUT FOR CAVITY DEFINITION 
     ---------------------------
   ATOM               COORDINATES                RADIUS       EPS
      1     -3.6050     -5.7530     -8.0580      0.0100     78.3900
      2     -3.0750     -4.9420     -7.9390      1.5900     78.3900
      3     -3.2710     -4.1330     -9.1090      1.7700     78.3900
      4     -4.3560     -3.9090     -9.2200      0.0100     78.3900
      5     -2.9450     -4.7030    -10.0080      0.0100     78.3900
      6     -2.4990     -2.8110     -9.0540      1.7700     78.3900
      7     -2.6490     -2.2240     -9.9860      0.0100     78.3900
      8     -2.9850     -1.9980     -7.9420      1.5900     78.3900
      9     -1.8920     -1.3200     -7.3470      1.7700     78.3900
     10     -2.1370     -0.2330     -7.3730      0.0100     78.3900
     11     -1.7000     -1.7330     -5.9520      1.6800     78.3900
     12     -1.1300     -1.7900     -3.8280      1.7700     78.3900
     13     -1.8880     -2.9310     -4.0560      1.6800     78.3900
     14     -2.2090     -2.8490     -5.3270      1.7700     78.3900
     15     -2.8170     -3.5760     -5.8740      0.0100     78.3900
     16      0.1910     -0.1230     -2.7870      1.6800     78.3900
     17      0.2610      0.4610     -3.9880      1.7700     78.3900
     18      0.8470      1.3860     -4.0230      0.0100     78.3900
     19     -0.3170      0.0990     -5.1400      1.6800     78.3900
     20     -0.9980     -1.0490     -4.9900      1.7700     78.3900
     21     -0.5140     -1.2770     -2.6660      1.7700     78.3900
     22     -0.6000     -1.8640     -1.4560      1.6800     78.3900
     23     -1.1080     -2.7180     -1.3110      0.0100     78.3900
     24     -0.1040     -1.4800     -0.6740      0.0100     78.3900
     25     -0.6730     -1.5820     -8.2060      1.7700     78.3900
     26      0.2660     -1.6050     -7.6160      0.0100     78.3900
     27     -0.5880     -0.5940     -9.2140      1.5900     78.3900
     28      0.1610     -0.8350     -9.7720      0.0100     78.3900
     29     -0.9920     -2.9500     -8.8010      1.7700     78.3900
     30     -0.8700     -3.7410     -8.0250      0.0100     78.3900
     31     -0.3100     -3.2620    -10.0430      1.5900     78.3900
     32      1.0750     -4.0130     -9.9680      2.1000     78.3900
     33      0.9180     -5.1960     -9.0980      1.5900     78.3900
     34      1.5520     -4.2620    -11.3460      1.5900     78.3900
     35      2.0410     -2.9770     -9.2770      1.5900     78.3900
     36      2.4640     -1.7980    -10.0050      1.7700     78.3900
     37      1.5960     -1.2390    -10.4240      0.0100     78.3900
     38      3.1190     -2.0850    -10.8620      0.0100     78.3900
     39      3.2510     -0.8340     -9.1060      1.7700     78.3900
     40      3.4750      0.1140     -9.6400      0.0100     78.3900
     41      2.4710     -0.4920     -7.9260      1.5900     78.3900
     42      3.3420     -0.3570     -6.8130      1.7700     78.3900
     43      3.2010      0.6870     -6.4500      0.0100     78.3900
     44      3.0250     -1.2990     -5.7010      1.6800     78.3900
     45      2.3500     -2.4690     -5.9610      1.7700     78.3900
     46      2.0780     -2.6390     -7.0030      0.0100     78.3900
     47      2.0230     -3.3200     -4.9810      1.7700     78.3900
     48      1.4580     -4.2320     -5.1630      0.0100     78.3900
     49      3.4400     -1.0180     -4.3990      1.7700     78.3900
     50      4.0780      0.0220     -4.1730      1.5900     78.3900
     51      3.1280     -1.8740     -3.3990      1.6800     78.3900
     52      2.4240     -2.9880     -3.6550      1.7700     78.3900
     53      2.0960     -3.7920     -2.6460      1.6800     78.3900
     54      2.3640     -3.5390     -1.7120      0.0100     78.3900
     55      1.5610     -4.6240     -2.7840      0.0100     78.3900
     56      4.7580     -0.5140     -7.3270      1.7700     78.3900
     57      5.4000     -1.0200     -6.5870      0.0100     78.3900
     58      5.3090      0.7450     -7.6730      1.5900     78.3900
     59      6.1730      0.5640     -8.0770      0.0100     78.3900
     60      4.5640     -1.3960     -8.5560      1.7700     78.3900
     61      4.3650     -2.4500     -8.2560      0.0100     78.3900
     62      5.6040     -1.2860     -9.5550      1.5900     78.3900
     63      6.9390     -2.0930     -9.3470      2.1000     78.3900
     64      6.5830     -3.4450     -8.8660      1.5900     78.3900
     65      7.7300     -2.0370    -10.5990      1.5900     78.3900
     66      7.7250     -1.3200     -8.2200      1.5900     78.3900
     67      8.7300     -2.0100     -7.4240      1.7700     78.3900
     68      9.7510     -1.7780     -7.8070      0.0100     78.3900
     69      8.6220     -3.1200     -7.4720      0.0100     78.3900
     70      8.6630     -1.6310     -5.9300      1.7700     78.3900
     71      9.0430     -0.6020     -5.7590      0.0100     78.3900
     72      7.2810     -1.6620     -5.4790      1.5900     78.3900
     73      7.1700     -2.3030     -4.2310      1.7700     78.3900
     74      6.5980     -1.5880     -3.5940      0.0100     78.3900
     75      6.4240     -3.5920     -4.3270      1.6800     78.3900
     76      6.3040     -4.2660     -5.5270      1.7700     78.3900
     77      6.7820     -3.7960     -6.3910      0.0100     78.3900
     78      5.7880     -4.0620     -3.1970      1.7700     78.3900
     79      5.8200     -3.4680     -2.1250      1.5900     78.3900
     80      5.1060     -5.2370     -3.3540      1.6800     78.3900
     81      4.6770     -5.6060     -2.5170      0.0100     78.3900
     82      4.9470     -5.9630     -4.5130      1.7700     78.3900
     83      4.2840     -7.0000     -4.5080      1.5900     78.3900
     84      5.6030     -5.4010     -5.6540      1.7700     78.3900
     85      5.5140     -5.9140     -6.6090      0.0100     78.3900
     86      8.5860     -2.4470     -3.6970      1.7700     78.3900
     87      8.7060     -3.3420     -3.0520      0.0100     78.3900
     88      8.9780     -1.2750     -2.9870      1.5900     78.3900
     89      8.2040     -0.7340     -2.7730      0.0100     78.3900
     90      9.3830     -2.6110     -4.9900      1.7700     78.3900
     91      9.2120     -3.6310     -5.4100      0.0100     78.3900
     92     10.7890     -2.2740     -4.8940      1.5900     78.3900
     93     11.7710     -3.4010     -4.3880      2.1000     78.3900
     94     11.0210     -4.4440     -3.6550      1.5900     78.3900
     95     12.5580     -3.8550     -5.5530      1.5900     78.3900
     96     12.7430     -2.6720     -3.3900      1.5900     78.3900
     97     12.3690     -2.3670     -2.0300      1.7700     78.3900
     98     12.2410     -3.3050     -1.4410      0.0100     78.3900
     99     11.4010     -1.8170     -2.0080      0.0100     78.3900
    100     13.4580     -1.5150     -1.3420      1.7700     78.3900
    101     14.3510     -2.1390     -1.1310      0.0100     78.3900
    102     13.8540     -0.3900     -2.1840      1.5900     78.3900
    103     13.2530      0.8020     -1.7080      1.7700     78.3900
    104     14.0960      1.3890     -1.2750      0.0100     78.3900
    105     12.5820      1.5370     -2.8000      1.6800     78.3900
    106     11.8660      0.8560     -3.7590      1.7700     78.3900
    107     11.8210     -0.2300     -3.6310      0.0100     78.3900
    108     12.7090      2.9070     -2.8450      1.7700     78.3900
    109     13.3480      3.5420     -2.0100      1.5900     78.3900
    110     12.0820      3.5100     -3.9030      1.6800     78.3900
    111     12.1860      4.5110     -3.9510      0.0100     78.3900
    112     11.3930      2.8970     -4.9280      1.7700     78.3900
    113     10.9230      3.5700     -5.8450      1.5900     78.3900
    114     11.2940      1.4710     -4.8050      1.7700     78.3900
    115     10.7700      0.9140     -5.5780      0.0100     78.3900
    116     12.3060      0.4250     -0.5840      1.7700     78.3900
    117     11.2960      0.1960     -0.9860      0.0100     78.3900
    118     12.2260      1.4260      0.4120      1.5900     78.3900
    119     13.0880      1.4560      0.8580      0.0100     78.3900
    120     12.9650     -0.8420     -0.0490      1.7700     78.3900
    121     12.1750     -1.4910      0.3980      0.0100     78.3900
    122     14.0590     -0.5840      0.8670      1.5900     78.3900
    123     14.1870     -1.4330      2.1820      2.1000     78.3900
    124     13.9840     -2.8670      1.8740      1.5900     78.3900
    125     15.4430     -1.0520      2.8600      1.5900     78.3900
    126     12.9710     -0.9390      3.0370      1.5900     78.3900
    127     13.0820     -0.9130      4.4760      1.7700     78.3900
    128     13.0580      0.1500      4.8130      0.0100     78.3900
    129     14.0310     -1.3480      4.8740      0.0100     78.3900
    130     11.9220     -1.6480      5.1530      1.7700     78.3900
    131     12.0660     -1.4950      6.2320      0.0100     78.3900
    132     10.6610     -1.0490      4.7570      1.5900     78.3900
    133      9.6710     -2.0480      4.5410      1.7700     78.3900
    134      8.8080     -1.7220      5.1660      0.0100     78.3900
    135      9.1910     -2.1320      3.1480      1.6800     78.3900
    136      9.8140     -1.4020      2.1650      1.7700     78.3900
    137     10.6750     -0.8040      2.4700      0.0100     78.3900
    138      9.3740     -1.4300      0.9050      1.7700     78.3900
    139      9.8390     -0.8510      0.1120      0.0100     78.3900
    140      8.0810     -2.9250      2.8370      1.7700     78.3900
    141      7.5160     -3.5670      3.7360      1.5900     78.3900
    142      7.6350     -2.9710      1.5640      1.6800     78.3900
    143      8.2430     -2.2390      0.6220      1.7700     78.3900
    144      7.7830     -2.2830     -0.6090      1.6800     78.3900
    145      6.9880     -2.8570     -0.8140      0.0100     78.3900
    146      8.3480     -1.9590     -1.3680      0.0100     78.3900
    147     10.2030     -3.3660      5.0370      1.7700     78.3900
    148      9.9190     -4.2270      4.3960      0.0100     78.3900
    149      9.6700     -3.5620      6.3290      1.5900     78.3900
    150     10.2670     -3.1350      6.9640      0.0100     78.3900
    151     11.7370     -3.1580      4.9500      1.7700     78.3900
    152     12.0420     -3.3420      3.8950      0.0100     78.3900
    153     12.6060     -3.9080      5.8210      1.5900     78.3900
    154     12.4330     -4.4220      7.2910      2.1000     78.3900
    155     11.5120     -5.5800      7.2900      1.5900     78.3900
    156     13.7630     -4.6410      7.8960      1.5900     78.3900
    157     11.7560     -3.1900      8.0250      1.5900     78.3900
    158     11.1990     -3.3200      9.3520      1.7700     78.3900
    159     12.0020     -3.6450     10.0630      0.0100     78.3900
    160     10.4080     -4.1040      9.3630      0.0100     78.3900
    161     10.5690     -2.0060      9.8960      1.7700     78.3900
    162     10.1730     -2.1830     10.9210      0.0100     78.3900
    163     11.5760     -0.9610      9.9730      1.5900     78.3900
    164     11.3340      0.0230      8.9740      1.7700     78.3900
    165     10.9540      0.9260      9.5060      0.0100     78.3900
    166     12.5730      0.3440      8.2440      1.6800     78.3900
    167     12.9270      1.5710      7.7520      1.7700     78.3900
    168     12.2310      4.9290      7.2670      1.6800     78.3900
    169     12.6590      5.7250      6.8390      0.0100     78.3900
    170     11.3140      5.0160      7.6550      0.0100     78.3900
    171     12.2000      2.6980      7.8460      1.6800     78.3900
    172     12.8060      3.7410      7.2790      1.7700     78.3900
    173     14.0480      3.6690      6.7060      1.6800     78.3900
    174     14.4470      4.5080      6.3280      0.0100     78.3900
    175     14.8320      2.5250      6.6180      1.7700     78.3900
    176     15.9500      2.5460      6.0930      1.5900     78.3900
    177     14.1810      1.3990      7.1930      1.7700     78.3900
    178     14.6110      0.0810      7.3280      1.6800     78.3900
    179     13.6210     -0.5080      7.9580      1.7700     78.3900
    180     13.5970     -1.5590      8.2580      0.0100     78.3900
    181     10.2310     -0.4980      8.0740      1.7700     78.3900
    182     10.6160     -1.1570      7.2950      0.0100     78.3900
    183      9.4730      0.5330      7.4690      1.5900     78.3900
    184      8.6510      0.1170      7.1470      0.0100     78.3900
    185      9.4380     -1.3980      9.0210      1.7700     78.3900
    186      8.9850     -2.2450      8.4600      0.0100     78.3900
    187      8.4500     -0.7030      9.7980      1.5900     78.3900
    188      6.9500     -0.5690      9.3310      2.1000     78.3900
    189      6.2780     -1.8420      9.6560      1.5900     78.3900
    190      6.3840      0.6540      9.9370      1.5900     78.3900
    191      6.9680     -0.4200      7.7520      1.5900     78.3900
    192      5.9510      0.3810      7.0910      1.7700     78.3900
    193      5.5870      1.2300      7.7160      0.0100     78.3900
    194      5.0690     -0.2620      6.8700      0.0100     78.3900
    195      6.4440      0.9740      5.7610      1.7700     78.3900
    196      7.3270      1.6300      5.9240      0.0100     78.3900
    197      6.8360     -0.0900      4.8540      1.5900     78.3900
    198      6.5010      0.2770      3.5210      1.7700     78.3900
    199      7.4490      0.2580      2.9360      0.0100     78.3900
    200      5.5540     -0.6770      2.9250      1.6800     78.3900
    201      5.1550     -0.7250      1.6160      1.7700     78.3900
    202      5.2450      0.5100     -1.6240      1.6800     78.3900
    203      5.8570      1.2970     -1.5570      0.0100     78.3900
    204      4.7930      0.3110     -2.4990      0.0100     78.3900
    205      5.5500      0.1130      0.6350      1.6800     78.3900
    206      5.0030     -0.2030     -0.5400      1.7700     78.3900
    207      4.1420     -1.2510     -0.7150      1.6800     78.3900
    208      3.8090     -1.4440     -1.6470      0.0100     78.3900
    209      3.7330     -2.1370      0.2700      1.7700     78.3900
    210      2.9630     -3.0700      0.0190      1.5900     78.3900
    211      4.2880     -1.8010      1.5320      1.7700     78.3900
    212      4.1330     -2.4110      2.7700      1.6800     78.3900
    213      4.9100     -1.7140      3.5650      1.7700     78.3900
    214      5.0630     -1.9090      4.6290      0.0100     78.3900
    215      5.9470      1.6860      3.5560      1.7700     78.3900
    216      5.1550      1.8500      2.7980      0.0100     78.3900
    217      6.9810      2.6290      3.3550      1.5900     78.3900
    218      6.5740      3.4970      3.4480      0.0100     78.3900
    219      5.3870      1.7600      4.9700      1.7700     78.3900
    220      4.4540      1.1520      5.0330      0.0100     78.3900
[...]
   9  8  0    -1469.5845370524     0.0000052157   0.000021125   0.000012384      614953534   21014346
  10  9  0    -1469.5845360129     0.0000010394   0.000007707   0.000003251      583895432   21241687
  11 10  0    -1469.5845359691     0.0000000438   0.000003442   0.000001146      536730511   21650633
  12 11  0    -1469.5845361650    -0.0000001958   0.000001126   0.000000399      498894091   21950779
  13 12  0    -1469.5845362042    -0.0000000392   0.000000449   0.000000116      461825073   22240026
  14 13  0    -1469.5845361905     0.0000000137   0.000000245   0.000000049      417536752   22589974
  15 14  0    -1469.5845361864     0.0000000041   0.000000067   0.000000022      382088151   22868683
  16 15  0    -1469.5845361854     0.0000000010   0.000000000   0.000000009      341809770   23170228

          -----------------
          DENSITY CONVERGED
          -----------------
     TIME TO FORM FOCK OPERATORS=      31.9 SECONDS (       2.0 SEC/ITER)
     FOCK TIME ON FIRST ITERATION=       3.2, LAST ITERATION=       1.3
     TIME TO SOLVE SCF EQUATIONS=       0.6 SECONDS (       0.0 SEC/ITER)

 FINAL RHF ENERGY IS    -1469.5845361854 AFTER  16 ITERATIONS
 ...... END OF RHF CALCULATION ......
 CPU     0: STEP CPU TIME=    45.55 TOTAL CPU TIME=        588.8 (      9.8 MIN)
 TOTAL WALL CLOCK TIME=       1243.7 SECONDS, CPU UTILIZATION IS    47.34%
 DONE PCM POT.
 CPU     0: STEP CPU TIME=     0.36 TOTAL CPU TIME=        589.1 (      9.8 MIN)
 TOTAL WALL CLOCK TIME=       1244.6 SECONDS, CPU UTILIZATION IS    47.33%

 Iter=  2 iFrag=      6 EFMO= -1507.480423850, DD= 0.134627706, DE=-0.394651608


 RHF      monomer      5 corr= NONE       , L1=   341, L0=   320 ID=      4


 AO spaces for     5     0     0 n-mer: L1=   341, L0=   320

 DIRECT SCF CALCULATION, SCHWRZ=T   FDIFF=T,  DIRTHR=  0.00E+00 NITDIR=10

                                                                                   NONZERO     BLOCKS
 ITER EX DEM     TOTAL ENERGY        E CHANGE  DENSITY CHANGE     ORB. GRAD      INTEGRALS    SKIPPED
   1  0  0    -1323.0420102201 -1323.0420102201   0.083445882   0.000000000      661740369   10601455
          ---------------START SECOND ORDER SCF---------------
   2  1  0    -1323.0717145510    -0.0297043310   0.023074291   0.003216988      638213844   11198118
   3  2  0    -1323.0738827545    -0.0021682035   0.010783272   0.002581249      617098006   11497400
   4  3  0    -1323.0740845416    -0.0002017871   0.002691725   0.000511072      591605858   11775612
   5  4  0    -1323.0740305299     0.0000540117   0.000716054   0.000221155      568497377   12038344
   6  5  0    -1323.0740307247    -0.0000001948   0.000308750   0.000099513      537714222   12333055
   7  6  0    -1323.0740393326    -0.0000086079   0.000091879   0.000023287      514600236   12548818
   8  7  0    -1323.0740400039    -0.0000006713   0.000028740   0.000016193      486618556   12805783
   9  8  0    -1323.0740386351     0.0000013688   0.000012672   0.000003537      457045090   13079450
  10  9  0    -1323.0740383009     0.0000003342   0.000003067   0.000000808      427138300   13339308
  11 10  0    -1323.0740384008    -0.0000000999   0.000000962   0.000000459      387378173   13696202
  12 11  0    -1323.0740384242    -0.0000000234   0.000000329   0.000000154      353750755   13983612
  13 12  0    -1323.0740384174     0.0000000068   0.000000115   0.000000128      316636154   14309184
  14 13  0    -1323.0740384147     0.0000000027   0.000000050   0.000000044      289359246   14534445

          -----------------
          DENSITY CONVERGED
          -----------------
     TIME TO FORM FOCK OPERATORS=      21.4 SECONDS (       1.5 SEC/ITER)
     FOCK TIME ON FIRST ITERATION=       2.2, LAST ITERATION=       0.9
     TIME TO SOLVE SCF EQUATIONS=       0.4 SECONDS (       0.0 SEC/ITER)

 FINAL RHF ENERGY IS    -1323.0740384147 AFTER  14 ITERATIONS
 ...... END OF RHF CALCULATION ......
 CPU     0: STEP CPU TIME=    41.23 TOTAL CPU TIME=        630.3 (     10.5 MIN)
 TOTAL WALL CLOCK TIME=       1337.2 SECONDS, CPU UTILIZATION IS    47.14%
 DONE PCM POT.
 CPU     0: STEP CPU TIME=     0.26 TOTAL CPU TIME=        630.6 (     10.5 MIN)
 TOTAL WALL CLOCK TIME=       1338.0 SECONDS, CPU UTILIZATION IS    47.13%

 Iter=  2 iFrag=      5 EFMO= -1360.654168155, DD= 0.097457622, DE=-0.427113395


 RHF      monomer      2 corr= NONE       , L1=   341, L0=   320 ID=      5


 AO spaces for     2     0     0 n-mer: L1=   341, L0=   320

 DIRECT SCF CALCULATION, SCHWRZ=T   FDIFF=T,  DIRTHR=  0.00E+00 NITDIR=10

                                                                                   NONZERO     BLOCKS
 ITER EX DEM     TOTAL ENERGY        E CHANGE  DENSITY CHANGE     ORB. GRAD      INTEGRALS    SKIPPED
   1  0  0    -1333.6313701822 -1333.6313701822   0.042780090   0.000000000      650795091   10643027
          ---------------START SECOND ORDER SCF---------------
   2  1  0    -1333.6537533303    -0.0223831481   0.025780096   0.006134145      624399332   11309698
   3  2  0    -1333.6552828384    -0.0015295081   0.008249753   0.002432040      599453732   11654509
   4  3  0    -1333.6556162051    -0.0003333667   0.001533488   0.000341162      573295749   11943707
   5  4  0    -1333.6555612889     0.0000549162   0.000648995   0.000167477      548230391   12198335
   6  5  0    -1333.6555551791     0.0000061099   0.000178367   0.000055666      519178807   12483227
   7  6  0    -1333.6555607877    -0.0000056086   0.000048647   0.000018734      490210266   12742567
   8  7  0    -1333.6555619785    -0.0000011908   0.000018701   0.000010931      459721097   13032884
   9  8  0    -1333.6555612702     0.0000007083   0.000012555   0.000003423      428291777   13324419
  10  9  0    -1333.6555610581     0.0000002121   0.000001897   0.000001335      401085743   13556748
  11 10  0    -1333.6555610867    -0.0000000286   0.000000998   0.000000349      365855112   13861881
  12 11  0    -1333.6555611004    -0.0000000137   0.000000463   0.000000152      344139129   14056011
  13 12  0    -1333.6555611003     0.0000000002   0.000000119   0.000000032      302387516   14415220
  14 13  0    -1333.6555611005    -0.0000000003   0.000000033   0.000000014      273368378   14640068

          -----------------
          DENSITY CONVERGED
          -----------------
     TIME TO FORM FOCK OPERATORS=      21.4 SECONDS (       1.5 SEC/ITER)
     FOCK TIME ON FIRST ITERATION=       2.3, LAST ITERATION=       1.0
     TIME TO SOLVE SCF EQUATIONS=       0.4 SECONDS (       0.0 SEC/ITER)

 FINAL RHF ENERGY IS    -1333.6555611005 AFTER  14 ITERATIONS
 ...... END OF RHF CALCULATION ......
 CPU     0: STEP CPU TIME=    49.65 TOTAL CPU TIME=        680.2 (     11.3 MIN)
 TOTAL WALL CLOCK TIME=       1434.9 SECONDS, CPU UTILIZATION IS    47.41%
 DONE PCM POT.
 CPU     0: STEP CPU TIME=     0.30 TOTAL CPU TIME=        680.5 (     11.3 MIN)
 TOTAL WALL CLOCK TIME=       1435.7 SECONDS, CPU UTILIZATION IS    47.40%

 Iter=  2 iFrag=      2 EFMO= -1360.673774955, DD= 0.048881216, DE=-0.372740137


 RHF      monomer      3 corr= NONE       , L1=   339, L0=   318 ID=      6


 AO spaces for     3     0     0 n-mer: L1=   339, L0=   318

 DIRECT SCF CALCULATION, SCHWRZ=T   FDIFF=T,  DIRTHR=  0.00E+00 NITDIR=10

                                                                                   NONZERO     BLOCKS
 ITER EX DEM     TOTAL ENERGY        E CHANGE  DENSITY CHANGE     ORB. GRAD      INTEGRALS    SKIPPED
   1  0  0    -1349.8946576350 -1349.8946576350   0.083978577   0.000000000      643113025    9585480
          ---------------START SECOND ORDER SCF---------------
   2  1  0    -1349.9190939475    -0.0244363125   0.031844183   0.006073981      617520782   10217549
   3  2  0    -1349.9208700519    -0.0017761045   0.011870994   0.002243967      593999197   10536661
   4  3  0    -1349.9212718780    -0.0004018261   0.003151934   0.000433422      564571993   10860146
   5  4  0    -1349.9212449280     0.0000269501   0.000850201   0.000211664      546708123   11042221
   6  5  0    -1349.9212370144     0.0000079135   0.000188833   0.000089052      518457624   11324224
   7  6  0    -1349.9212445951    -0.0000075807   0.000075263   0.000025393      492214780   11555851
   8  7  0    -1349.9212447453    -0.0000001501   0.000034998   0.000016684      464660278   11805575
   9  8  0    -1349.9212445000     0.0000002453   0.000013642   0.000004831      433838397   12102010
  10  9  0    -1349.9212442322     0.0000002678   0.000004148   0.000001192      406331847   12338179
  11 10  0    -1349.9212443195    -0.0000000873   0.000001737   0.000000405      371369110   12635324
  12 11  0    -1349.9212443541    -0.0000000346   0.000000587   0.000000189      344296056   12877452
  13 12  0    -1349.9212443628    -0.0000000087   0.000000182   0.000000046      308207804   13175907
  14 13  0    -1349.9212443625     0.0000000003   0.000000048   0.000000024      274445591   13454152

          -----------------
          DENSITY CONVERGED
          -----------------
     TIME TO FORM FOCK OPERATORS=      21.5 SECONDS (       1.5 SEC/ITER)
     FOCK TIME ON FIRST ITERATION=       2.2, LAST ITERATION=       0.9
     TIME TO SOLVE SCF EQUATIONS=       0.4 SECONDS (       0.0 SEC/ITER)

 FINAL RHF ENERGY IS    -1349.9212443625 AFTER  14 ITERATIONS
 ...... END OF RHF CALCULATION ......
 CPU     0: STEP CPU TIME=    42.35 TOTAL CPU TIME=        722.9 (     12.0 MIN)
 TOTAL WALL CLOCK TIME=       1526.0 SECONDS, CPU UTILIZATION IS    47.37%
 DONE PCM POT.
 CPU     0: STEP CPU TIME=     0.29 TOTAL CPU TIME=        723.2 (     12.1 MIN)
 TOTAL WALL CLOCK TIME=       1526.8 SECONDS, CPU UTILIZATION IS    47.37%

 Iter=  2 iFrag=      3 EFMO= -1380.500289451, DD= 0.096238626, DE=-0.387624751


 RHF      monomer      4 corr= NONE       , L1=   339, L0=   318 ID=      7


 AO spaces for     4     0     0 n-mer: L1=   339, L0=   318

 DIRECT SCF CALCULATION, SCHWRZ=T   FDIFF=T,  DIRTHR=  0.00E+00 NITDIR=10

                                                                                   NONZERO     BLOCKS
 ITER EX DEM     TOTAL ENERGY        E CHANGE  DENSITY CHANGE     ORB. GRAD      INTEGRALS    SKIPPED
   1  0  0    -1347.9013606122 -1347.9013606122   0.087946466   0.000000000      610422580    9851759
          ---------------START SECOND ORDER SCF---------------
   2  1  0    -1347.9237629046    -0.0224022924   0.027011861   0.005391180      587810107   10439608
   3  2  0    -1347.9251199203    -0.0013570157   0.012145522   0.002124157      564261585   10756196
   4  3  0    -1347.9251787758    -0.0000588555   0.002648290   0.000310573      546035581   10971358
   5  4  0    -1347.9251354292     0.0000433466   0.000573183   0.000201531      522329891   11217470
   6  5  0    -1347.9251301335     0.0000052957   0.000194045   0.000060275      495402702   11488277
   7  6  0    -1347.9251356900    -0.0000055565   0.000064053   0.000016492      470206744   11715066
   8  7  0    -1347.9251346677     0.0000010224   0.000024802   0.000007885      437246771   12020903
   9  8  0    -1347.9251336336     0.0000010340   0.000010915   0.000002820      416981808   12209037
  10  9  0    -1347.9251333933     0.0000002403   0.000002487   0.000001080      379671289   12537458
  11 10  0    -1347.9251334101    -0.0000000168   0.000000931   0.000000412      355012481   12750288
  12 11  0    -1347.9251334238    -0.0000000137   0.000000279   0.000000123      330398930   12965081
  13 12  0    -1347.9251334242    -0.0000000004   0.000000113   0.000000039      292283064   13292319
  14 13  0    -1347.9251334249    -0.0000000007   0.000000038   0.000000013      263630042   13529628

          -----------------
          DENSITY CONVERGED
          -----------------
     TIME TO FORM FOCK OPERATORS=      21.4 SECONDS (       1.5 SEC/ITER)
     FOCK TIME ON FIRST ITERATION=       2.1, LAST ITERATION=       0.9
     TIME TO SOLVE SCF EQUATIONS=       0.3 SECONDS (       0.0 SEC/ITER)

 FINAL RHF ENERGY IS    -1347.9251334249 AFTER  14 ITERATIONS
 ...... END OF RHF CALCULATION ......
 CPU     0: STEP CPU TIME=    38.82 TOTAL CPU TIME=        762.0 (     12.7 MIN)
 TOTAL WALL CLOCK TIME=       1605.4 SECONDS, CPU UTILIZATION IS    47.47%
 DONE PCM POT.
 CPU     0: STEP CPU TIME=     0.25 TOTAL CPU TIME=        762.3 (     12.7 MIN)
 TOTAL WALL CLOCK TIME=       1606.1 SECONDS, CPU UTILIZATION IS    47.46%

 Iter=  2 iFrag=      4 EFMO= -1380.535000671, DD= 0.102550065, DE=-0.394393229


 RHF      monomer      8 corr= NONE       , L1=   262, L0=   246 ID=      8


 AO spaces for     8     0     0 n-mer: L1=   262, L0=   246

 DIRECT SCF CALCULATION, SCHWRZ=T   FDIFF=T,  DIRTHR=  0.00E+00 NITDIR=10

                                                                                   NONZERO     BLOCKS
 ITER EX DEM     TOTAL ENERGY        E CHANGE  DENSITY CHANGE     ORB. GRAD      INTEGRALS    SKIPPED
   1  0  0     -784.5417428972  -784.5417428972   0.052911456   0.000000000      322538725    3464399
          ---------------START SECOND ORDER SCF---------------
   2  1  0     -784.5494999271    -0.0077570299   0.017887860   0.003341924      311201091    3796925
   3  2  0     -784.5503045039    -0.0008045769   0.007931659   0.004359919      303684475    3930063
   4  3  0     -784.5504963729    -0.0001918690   0.001993119   0.001245726      292249676    4096501
   5  4  0     -784.5503690800     0.0001272929   0.001608361   0.000274753      285276992    4183666
   6  5  0     -784.5503388581     0.0000302219   0.000419455   0.000112003      276897272    4291280
   7  6  0     -784.5503554725    -0.0000166144   0.000179991   0.000033826      264972011    4431162
   8  7  0     -784.5503630294    -0.0000075569   0.000033387   0.000016719      254505653    4543022
   9  8  0     -784.5503648189    -0.0000017895   0.000010659   0.000006020      239034795    4728996
  10  9  0     -784.5503645538     0.0000002650   0.000004244   0.000001706      224280739    4896606
  11 10  0     -784.5503644151     0.0000001387   0.000001205   0.000000422      208906507    5068102
  12 11  0     -784.5503644453    -0.0000000302   0.000000421   0.000000198      190857758    5275773
  13 12  0     -784.5503644640    -0.0000000187   0.000000141   0.000000068      175478459    5434262
  14 13  0     -784.5503644622     0.0000000017   0.000000074   0.000000023      160813303    5591442

          -----------------
          DENSITY CONVERGED
          -----------------
     TIME TO FORM FOCK OPERATORS=      12.1 SECONDS (       0.9 SEC/ITER)
     FOCK TIME ON FIRST ITERATION=       1.2, LAST ITERATION=       0.5
     TIME TO SOLVE SCF EQUATIONS=       0.2 SECONDS (       0.0 SEC/ITER)

 FINAL RHF ENERGY IS     -784.5503644622 AFTER  14 ITERATIONS
 ...... END OF RHF CALCULATION ......
 CPU     0: STEP CPU TIME=    22.58 TOTAL CPU TIME=        784.8 (     13.1 MIN)
 TOTAL WALL CLOCK TIME=       1653.6 SECONDS, CPU UTILIZATION IS    47.46%
 DONE PCM POT.
 CPU     0: STEP CPU TIME=     0.22 TOTAL CPU TIME=        785.1 (     13.1 MIN)
 TOTAL WALL CLOCK TIME=       1654.1 SECONDS, CPU UTILIZATION IS    47.46%

 Iter=  2 iFrag=      8 EFMO=  -815.701345802, DD= 0.041656536, DE= 0.003397505

 CPU     0: STEP CPU TIME=     0.00 TOTAL CPU TIME=        785.1 (     13.1 MIN)
 TOTAL WALL CLOCK TIME=       1654.1 SECONDS, CPU UTILIZATION IS    47.46%

  Monomer SCF synchronisation on iteration   2.1 took     0.0 s.
 CPU     0: STEP CPU TIME=     0.00 TOTAL CPU TIME=        785.1 (     13.1 MIN)
 TOTAL WALL CLOCK TIME=       1654.1 SECONDS, CPU UTILIZATION IS    47.46%
 dmexch needs              2958226  words of memory.
 CPU     0: STEP CPU TIME=     0.01 TOTAL CPU TIME=        785.1 (     13.1 MIN)
 TOTAL WALL CLOCK TIME=       1654.1 SECONDS, CPU UTILIZATION IS    47.46%

 Data exchange of    979843 words took     0.0 s.

 Calculating apparent surface charges...
     Using       43700 words of memory.
 ASC ITERATION=   1 CONVERGED TO  0.634356E-02
 ASC ITERATION=   2 CONVERGED TO  0.441530E-01
 ASC ITERATION=   3 CONVERGED TO  0.553020E-01
 ASC ITERATION=   4 CONVERGED TO  0.137516E-01
 ASC ITERATION=   5 CONVERGED TO  0.574331E-02
 ASC ITERATION=   6 CONVERGED TO  0.257661E-02
 ASC ITERATION=   7 CONVERGED TO  0.101412E-02
 ASC ITERATION=   8 CONVERGED TO  0.479399E-03
 ASC ITERATION=   9 CONVERGED TO  0.234827E-03
 ASC ITERATION=  10 CONVERGED TO  0.288190E-03
 ASC ITERATION=  11 CONVERGED TO  0.780156E-04
 ASC ITERATION=  12 CONVERGED TO  0.464916E-04
 ASC ITERATION=  13 CONVERGED TO  0.260324E-04
 ASC ITERATION=  14 CONVERGED TO  0.142591E-04
 ASC ITERATION=  15 CONVERGED TO  0.804396E-05
 ASC ITERATION=  16 CONVERGED TO  0.554145E-05
 ASC ITERATION=  17 CONVERGED TO  0.304677E-05
 ASC ITERATION=  18 CONVERGED TO  0.149287E-05
 ASC ITERATION=  19 CONVERGED TO  0.122398E-05
 ASC ITERATION=  20 CONVERGED TO  0.706225E-06
 ASC ITERATION=  21 CONVERGED TO  0.366214E-06
 ASC ITERATION=  22 CONVERGED TO  0.269395E-06
 ASC ITERATION=  23 CONVERGED TO  0.157484E-06
 ASC ITERATION=  24 CONVERGED TO  0.750389E-07
 ASC ITERATION=  25 CONVERGED TO  0.502391E-07
 ASC ITERATION=  26 CONVERGED TO  0.303377E-07
 ASC ITERATION=  27 CONVERGED TO  0.149960E-07
 ASC ITERATION=  28 CONVERGED TO  0.794396E-08
 ASC ITERATION=  29 CONVERGED TO  0.430486E-08
 ASC ITERATION=  30 CONVERGED TO  0.255181E-08
 ASC ITERATION=  31 CONVERGED TO  0.145860E-08
 ASC ITERATION=  32 CONVERGED TO  0.746038E-09
 ASC ITERATION=  33 CONVERGED TO  0.396954E-09
 ASC ITERATION=  34 CONVERGED TO  0.235458E-09
 ASC ITERATION=  35 CONVERGED TO  0.135897E-09
 ASC ITERATION=  36 CONVERGED TO  0.812279E-10

 THE ASC EQUATIONS FOR PHASE=1 CONVERGED IN  36 ITERATIONS.

 PCM ASC=      6.8566774713 normalised to=      6.9107028958
 Nuclear factor=   1.0031359081, electronic factor=   1.0031616063

 CPU     0: STEP CPU TIME=     0.15 TOTAL CPU TIME=        785.2 (     13.1 MIN)
 TOTAL WALL CLOCK TIME=       1654.5 SECONDS, CPU UTILIZATION IS    47.46%


 ------------------------------------------------------------------------------
 FMO iter  2.1,      0 fragment(s) converged, maxD 0.134627706 maxE 0.434274976
 ------------------------------------------------------------------------------

 RHF      monomer      1 corr= NONE       , L1=   388, L0=   364 ID=      1


 AO spaces for     1     0     0 n-mer: L1=   388, L0=   364

 DIRECT SCF CALCULATION, SCHWRZ=T   FDIFF=T,  DIRTHR=  0.00E+00 NITDIR=10

                                                                                   NONZERO     BLOCKS
 ITER EX DEM     TOTAL ENERGY        E CHANGE  DENSITY CHANGE     ORB. GRAD      INTEGRALS    SKIPPED
   1  0  0    -1486.9498768622 -1486.9498768622   0.005754798   0.000000000      948859027   18717380
          ---------------START SECOND ORDER SCF---------------
   2  1  0    -1486.9491748219     0.0007020403   0.002833148   0.000474566      856276653   20370755
   3  2  0    -1486.9491840389    -0.0000092170   0.000990941   0.000259130      813832663   20820080
   4  3  0    -1486.9491131472     0.0000708917   0.000246423   0.000048555      755364156   21341921
   5  4  0    -1486.9490771914     0.0000359558   0.000077846   0.000023436      717362814   21677339
   6  5  0    -1486.9490734522     0.0000037392   0.000024479   0.000013433      675768333   22049858
   7  6  0    -1486.9490753088    -0.0000018566   0.000009807   0.000004860      620467364   22517608
   8  7  0    -1486.9490755417    -0.0000002329   0.000003785   0.000001524      580952910   22858469
   9  8  0    -1486.9490753285     0.0000002132   0.000002201   0.000000688      531087985   23301460
  10  9  0    -1486.9490752408     0.0000000877   0.000000448   0.000000403      497221011   23582438
  11 10  0    -1486.9490752649    -0.0000000241   0.000000362   0.000000108      452104006   23935335
  12 11  0    -1486.9490752762    -0.0000000113   0.000000092   0.000000036      422651889   24182286
