‘1F7Y_4_fmo_input.inp’ -> ‘/scratch/hazwong/824270/./1F7Y_4_fmo_input.inp’
‘rungms’ -> ‘/scratch/hazwong/824270/./rungms’
‘gms-files.csh’ -> ‘/scratch/hazwong/824270/./gms-files.csh’
----- GAMESS execution script 'rungms' -----
This job is running on host gollum075.lsa.umich.edu
under operating system Linux at Sat Dec 7 00:20:51 EST 2019
Available scratch disk space (Kbyte units) at beginning of the job is
Filesystem     1K-blocks   Used Available Use% Mounted on
/dev/sda4      426933580 221120 426712460   1% /scratch
GAMESS temporary binary files will be written to /scratch/hazwong/824270/1F7Y_4/usrc
GAMESS supplementary output files will be written to /scratch/hazwong/824270/1F7Y_4/src
Copying input file 1F7Y_4_fmo_input.inp to your run's scratch directory...
cp 1F7Y_4_fmo_input.inp /scratch/hazwong/824270/1F7Y_4/usrc/1F7Y_4_fmo_input.F05
unset echo
This is a GDDI run, keeping various output files on local disks
setenv OUTPUT /scratch/hazwong/824270/1F7Y_4/usrc/1F7Y_4_fmo_input.F06
setenv PUNCH /scratch/hazwong/824270/1F7Y_4/usrc/1F7Y_4_fmo_input.F07
unset echo
 
Assuming a single but multicore node.
 
/export/apps/CentOS7/gamess/src/build//ddikick.x /export/apps/CentOS7/gamess/src/build//gamess.R3.x 1F7Y_4_fmo_input -ddi 1 16 gollum075.lsa.umich.edu:cpus=16 -scr /scratch/hazwong/824270/1F7Y_4/usrc

 Distributed Data Interface kickoff program.
 Initiating 16 compute processes on 1 nodes to run the following command:
 /export/apps/CentOS7/gamess/src/build//gamess.R3.x 1F7Y_4_fmo_input 

          ******************************************************
          *         GAMESS VERSION = 30 SEP 2018 (R3)         *
          *             FROM IOWA STATE UNIVERSITY             *
          * M.W.SCHMIDT, K.K.BALDRIDGE, J.A.BOATZ, S.T.ELBERT, *
          *   M.S.GORDON, J.H.JENSEN, S.KOSEKI, N.MATSUNAGA,   *
          *          K.A.NGUYEN, S.J.SU, T.L.WINDUS,           *
          *       TOGETHER WITH M.DUPUIS, J.A.MONTGOMERY       *
          *         J.COMPUT.CHEM.  14, 1347-1363(1993)        *
          **************** 64 BIT LINUX VERSION ****************

  SINCE 1993, STUDENTS AND POSTDOCS WORKING AT IOWA STATE UNIVERSITY
  AND ALSO IN THEIR VARIOUS JOBS AFTER LEAVING ISU HAVE MADE IMPORTANT
  CONTRIBUTIONS TO THE CODE:
     IVANA ADAMOVIC, CHRISTINE AIKENS, YURI ALEXEEV, POOJA ARORA,
     ANDREY ASADCHEV, ROB BELL, PRADIPTA BANDYOPADHYAY, JONATHAN BENTZ,
     BRETT BODE, KURT BRORSEN, CALEB CARLIN, GALINA CHABAN, WEI CHEN,
     CHEOL HO CHOI, PAUL DAY, ALBERT DEFUSCO, NUWAN DESILVA, TIM DUDLEY,
     DMITRI FEDOROV, ALEX FINDLATER, GRAHAM FLETCHER, MARK FREITAG,
     KURT GLAESEMANN, ANASTASIA GUNINA,
     DAN KEMP, GRANT MERRILL, NORIYUKI MINEZAWA, JONATHAN MULLIN,
     TAKESHI NAGATA, SEAN NEDD, HEATHER NETZLOFF, BOSILJKA NJEGIC, RYAN OLSON,
     MIKE PAK, BUU PHAM,
     SPENCER PRUITT, LUKE ROSKOP, JIM SHOEMAKER, LYUDMILA SLIPCHENKO,
     TONY SMITH, SAROM SOK LEANG, JIE SONG, TETSUYA TAKETSUGU, SIMON WEBB,
     PENG XU, SOOHAENG YOO, FEDERICO ZAHARIEV

  ADDITIONAL CODE HAS BEEN PROVIDED BY COLLABORATORS IN OTHER GROUPS:
     IOWA STATE UNIVERSITY:
          JOE IVANIC, AARON WEST, LAIMUTIS BYTAUTAS, KLAUS RUEDENBERG
     UNIVERSITY OF TOKYO: KIMIHIKO HIRAO, TAKAHITO NAKAJIMA,
          TAKAO TSUNEDA, MUNEAKI KAMIYA, SUSUMU YANAGISAWA,
          KIYOSHI YAGI, MAHITO CHIBA, SEIKEN TOKURA, NAOAKI KAWAKAMI
     UNIVERSITY OF AARHUS: FRANK JENSEN
     UNIVERSITY OF IOWA: VISVALDAS KAIRYS, HUI LI
     NATIONAL INST. OF STANDARDS AND TECHNOLOGY: WALT STEVENS, DAVID GARMER
     UNIVERSITY OF PISA: BENEDETTA MENNUCCI, JACOPO TOMASI
     UNIVERSITY OF MEMPHIS: HENRY KURTZ, PRAKASHAN KORAMBATH
     UNIVERSITY OF ALBERTA: TOBY ZENG, MARIUSZ KLOBUKOWSKI
     UNIVERSITY OF NEW ENGLAND: MARK SPACKMAN
     MIE UNIVERSITY: HIROAKI UMEDA
     NAT. INST. OF ADVANCED INDUSTRIAL SCIENCE AND TECHNOLOGY: KAZUO KITAURA
     MICHIGAN STATE UNIVERSITY:
          KAROL KOWALSKI, MARTA WLOCH, JEFFREY GOUR, JESSE LUTZ,
          WEI LI, JUN SHEN, J. EMILIANO DEUSTUA, PIOTR PIECUCH
     UNIVERSITY OF MINNESOTA:
          YINAN SHU
     UNIVERSITY OF SILESIA: MONIKA MUSIAL, STANISLAW KUCHARSKI
     FACULTES UNIVERSITAIRES NOTRE-DAME DE LA PAIX:
          OLIVIER QUINET, BENOIT CHAMPAGNE
     UNIVERSITY OF CALIFORNIA - SANTA BARBARA: BERNARD KIRTMAN
     INSTITUTE FOR MOLECULAR SCIENCE:
          KAZUYA ISHIMURA, MICHIO KATOUDA, AND SHIGERU NAGASE
     UNIVERSITY OF NOTRE DAME: ANNA POMOGAEVA, DAN CHIPMAN
     KYUSHU UNIVERSITY:
          HARUYUKI NAKANO,
          FENG LONG GU, JACEK KORCHOWIEC, MARCIN MAKOWSKI, AND YURIKO AOKI,
          HIROTOSHI MORI AND EISAKU MIYOSHI
     PENNSYLVANIA STATE UNIVERSITY:
          TZVETELIN IORDANOV, CHET SWALINA, JONATHAN SKONE,
          SHARON HAMMES-SCHIFFER
     WASEDA UNIVERSITY:
          MASATO KOBAYASHI, TOMOKO AKAMA, TSUGUKI TOUMA,
          TAKESHI YOSHIKAWA, YASUHIRO IKABATA, JUNJI SEINO,
          YUYA NAKAJIMA, HIROMI NAKAI
     NANJING UNIVERSITY: SHUHUA LI
     UNIVERSITY OF NEBRASKA:
          PEIFENG SU, DEJUN SI, NANDUN THELLAMUREGE, YALI WANG, HUI LI
     UNIVERSITY OF ZURICH: ROBERTO PEVERATI, KIM BALDRIDGE
     N. COPERNICUS UNIVERSITY AND JACKSON STATE UNIVERSITY:
          MARIA BARYSZ
     UNIVERSITY OF COPENHAGEN: Jimmy Kromann, CASPER STEINMANN
     TOKYO INSTITUTE OF TECHNOLOGY: HIROYA NAKATA
     NAGOYA UNIVERSITY: YOSHIO NISHIMOTO, STEPHAN IRLE
     MOSCOW STATE UNIVERSITY: VLADIMIR MIRONOV


 PARALLEL VERSION RUNNING ON       16 PROCESSORS IN        1 NODES.

 EXECUTION OF GAMESS BEGUN Sat Dec  7 00:20:52 2019

            ECHO OF THE FIRST FEW INPUT CARDS -
 INPUT CARD>!*** FMO 5.3 (Gamess) INPUT generated by Facio 22.1.1.32 ***                    
 INPUT CARD> $CONTRL RUNTYP=ENERGY NPRINT=-5 ISPHER=1 MAXIT=200 $END                        
 INPUT CARD> $SYSTEM MWORDS=63 MEMDDI=63 $END                                               
 INPUT CARD> $GDDI NGROUP=1 $END                                                            
 INPUT CARD> $SCF DIRSCF=.TRUE. NPUNCH=0 $END                                               
 INPUT CARD>!*** NumCPU : 2  MemPerNode : 512MB                                             
 INPUT CARD> $PCM SOLVNT=WATER IEF=-10 ICOMP=2 ICAV=1 IDISP=1 IFMO=-1 $END                  
 INPUT CARD> $PCMCAV RADII=SUAHF $END                                                       
 INPUT CARD> $TESCAV NTSALL=60 $END                                                         
 INPUT CARD> $FMOPRP                                                                        
 INPUT CARD>    NAODIR=200                                                                  
 INPUT CARD>    NGRFMO(1)=1, 1, 0, 0, 0,   0, 0, 0, 0, 0                                    
 INPUT CARD>    IPIEDA=1                                                                    
 INPUT CARD>    NPRINT=9                                                                    
 INPUT CARD> $END                                                                           
 INPUT CARD> $FMO                                                                           
 INPUT CARD>      SCFTYP(1)=RHF                                                             
 INPUT CARD>      MODGRD=10                                                                 
 INPUT CARD>      MODMUL=0                                                                  
 INPUT CARD>      MAXCAO=5                                                                  
 INPUT CARD>      MAXBND=10                                                                 
 INPUT CARD>      NLAYER=1                                                                  
 INPUT CARD>      MPLEVL(1)=2                                                               
 INPUT CARD>      NFRAG=8                                                                   
 INPUT CARD>      ICHARG(1)=-1, -1, -1, -1, -1, -1, -1, 0                                   
 INPUT CARD>      FRGNAM(1)=F1, F2, F3, F4, F5, F6, F7, F8                                  
 INPUT CARD>      indat(1)=0                                                                
 INPUT CARD>               1   -35   0                                                      
 INPUT CARD>               36   -66   0                                                     
 INPUT CARD>               67   -96   0                                                     
 INPUT CARD>               97   -126   0                                                    
 INPUT CARD>               127   -157   0                                                   
 INPUT CARD>               158   -191   0                                                   
 INPUT CARD>               192   -225   0                                                   
 INPUT CARD>               226   -252   0                                                   
 INPUT CARD> $END                                                                           
 INPUT CARD>                                                                                
 INPUT CARD> $FMOBND                                                                        
 INPUT CARD>   -36   35       6-31G*    MINI                                                
 INPUT CARD>   -67   66       6-31G*    MINI                                                
 INPUT CARD>   -97   96       6-31G*    MINI                                                
 INPUT CARD>   -127   126       6-31G*    MINI                                              
 INPUT CARD>   -158   157       6-31G*    MINI                                              
 INPUT CARD>   -192   191       6-31G*    MINI                                              
 INPUT CARD>   -226   225       6-31G*    MINI                                              
 INPUT CARD> $END                                                                           
 INPUT CARD> $FMOHYB                                                                        
 INPUT CARD> 6-31G*      15   5                                                             
 INPUT CARD>   1 0  -0.065034   0.288264   0.000000   0.000000   0.604412                   
 INPUT CARD>         0.290129   0.000000   0.000000   0.319045  -0.017106                   


 -------------------------------------------------------------
 GROUP DDI, PROGRAMMED BY: RYAN M. OLSON AND DMITRI G. FEDOROV
        FEDOROV ET AL., J. COMPUT. CHEM., 25 (2004) 872.
 -------------------------------------------------------------

 -------------------------------------------------------
 GDDI: INITIALIZATION COMPLETED FOR GROUP     1 OF     1
 WITH    16 PROCESSES BALTYP=DLB   global rank=        0
 -------------------------------------------------------

   63000000 WORDS OF MEMORY AVAILABLE


     RUN TITLE
     ---------
  FMO calculation                                                                

 THE POINT GROUP OF THE MOLECULE IS C1      
 THE ORDER OF THE PRINCIPAL AXIS IS     0

 ATOM   ATOMIC CHARGE
 H.1-1       1.0
 O.1-1       8.0
 C.1-1       6.0
 N.1-1       7.0
 P.1-1      15.0

     ATOMIC BASIS SET LIBRARY
     ----------------
 THE CONTRACTED PRIMITIVE FUNCTIONS HAVE BEEN UNNORMALIZED
 THE CONTRACTED BASIS FUNCTIONS ARE NOW NORMALIZED TO UNITY

  SHELL TYPE  PRIMITIVE        EXPONENT          CONTRACTION COEFFICIENT(S)

 H.1-1     

      1   S       1            18.7311370    0.033494604338
      1   S       2             2.8253944    0.234726953484
      1   S       3             0.6401217    0.813757326146

      2   S       4             0.1612778    1.000000000000

 O.1-1     

      3   S       5          5484.6716600    0.001831074430
      3   S       6           825.2349460    0.013950172200
      3   S       7           188.0469580    0.068445078098
      3   S       8            52.9645000    0.232714335992
      3   S       9            16.8975704    0.470192897984
      3   S      10             5.7996353    0.358520852987

      4   L      11            15.5396162   -0.110777549525    0.070874268231
      4   L      12             3.5999336   -0.148026262701    0.339752839147
      4   L      13             1.0137618    1.130767015354    0.727158577316

      5   L      14             0.2700058    1.000000000000    1.000000000000

      6   D      15             0.8000000    1.000000000000

 C.1-1     

      7   S      16          3047.5248800    0.001834737132
      7   S      17           457.3695180    0.014037322813
      7   S      18           103.9486850    0.068842622264
      7   S      19            29.2101553    0.232184443216
      7   S      20             9.2866630    0.467941348435
      7   S      21             3.1639270    0.362311985337

      8   L      22             7.8682723   -0.119332419775    0.068999066591
      8   L      23             1.8812885   -0.160854151696    0.316423960957
      8   L      24             0.5442493    1.143456437840    0.744308290898

      9   L      25             0.1687145    1.000000000000    1.000000000000

     10   D      26             0.8000000    1.000000000000

 N.1-1     

     11   S      27          4173.5114600    0.001834772160
     11   S      28           627.4579110    0.013994627002
     11   S      29           142.9020930    0.068586551812
     11   S      30            40.2343293    0.232240873040
     11   S      31            12.8202129    0.469069948082
     11   S      32             4.3904370    0.360455199063

     12   L      33            11.6263619   -0.114961181702    0.067579743878
     12   L      34             2.7162798   -0.169117478561    0.323907295893
     12   L      35             0.7722184    1.145851947027    0.740895139755

     13   L      36             0.2120315    1.000000000000    1.000000000000

     14   D      37             0.8000000    1.000000000000

 P.1-1     

     15   S      38         19413.3000000    0.001851598923
     15   S      39          2909.4200000    0.014206191735
     15   S      40           661.3640000    0.069999459277
     15   S      41           185.7590000    0.240078860331
     15   S      42            59.1943000    0.484761717984
     15   S      43            20.0310000    0.335199804993

     16   L      44           339.4780000   -0.002782170105    0.004564616191
     16   L      45            81.0101000   -0.036049901354    0.033693571881
     16   L      46            25.8780000   -0.116631004382    0.139754883368
     16   L      47             9.4522100    0.096832803638    0.339361716786
     16   L      48             3.6656600    0.614418023082    0.450920623685
     16   L      49             1.4674600    0.403798015170    0.238585800889

     17   L      50             2.1562300   -0.252924113863   -0.017765312733
     17   L      51             0.7489970    0.032851844678    0.274058196433
     17   L      52             0.2831450    1.081254761783    0.785421562957

     18   L      53             0.0998317    1.000000000000    1.000000000000

     19   D      54             0.5500000    1.000000000000

 TOTAL NUMBER OF BASIS SET SHELLS             =   19
 NUMBER OF CARTESIAN GAUSSIAN BASIS FUNCTIONS =   66

     $CONTRL OPTIONS
     ---------------
 SCFTYP=RHF          RUNTYP=ENERGY       EXETYP=RUN     
 MPLEVL=       0     CITYP =NONE         CCTYP =NONE         VBTYP =NONE    
 DFTTYP=NONE         TDDFT =NONE    
 MULT  =       1     ICHARG=       0     NZVAR =       0     COORD =UNIQUE  
 PP    =NONE         RELWFN=NONE         LOCAL =NONE         NUMGRD=       F
 ISPHER=       1     NOSYM =       0     MAXIT =     200     UNITS =ANGS    
 PLTORB=       F     MOLPLT=       F     AIMPAC=       F     FRIEND=        
 NPRINT=      -5     IREST =       0     GEOM  =INPUT   
 NORMF =       0     NORMP =       0     ITOL  =      24     ICUT  =      12
 INTTYP=BEST         GRDTYP=BEST         QMTTOL= 1.0E-06

     $SYSTEM OPTIONS
     ---------------
  REPLICATED MEMORY=    63000000 WORDS (ON EVERY NODE).
 DISTRIBUTED MEMDDI=          63 MILLION WORDS IN AGGREGATE,
 MEMDDI DISTRIBUTED OVER  16 PROCESSORS IS     3937500 WORDS/PROCESSOR.
 TOTAL MEMORY REQUESTED ON EACH PROCESSOR=    66937500 WORDS.
 TIMLIM=      525600.00 MINUTES, OR     365.0 DAYS.
 PARALL= T  BALTYP=  DLB     KDIAG=    0  COREFL= F
 MXSEQ2=     300 MXSEQ3=     150  mem10=         0

 ** LOOKING UP INTERNALLY STORED DATA FOR SOLVENT=WATER    **
 OPTICAL AND PHYSICAL CONSTANTS:
 EPS= 78.390; EPSINF=  1.776; RSOLV=  1.385 A; VMOL=  18.070 ML/MOL;
 TCE= .25700E-03 1/K; STEN= 71.810 DYN/CM;  DSTEN=  0.6500; CMF=  1.2770


     -----------------------------------
     INPUT FOR PCM SOLVATION CALCULATION 
     -----------------------------------
     IEF   =     -10
     ICOMP =       2     IFIELD=       0     ICAV  =       1
     IDISP =       1     IREP  =       0     IDP   =       0

     SOLVNT=WATER        EPS   = 78.3900     EPSINF=  1.7760
     VMOL  = 18.0700     TCE   =  0.00025700 STEN  = 71.8100
     DSTEN =  0.6500     CMF   =  1.2770     RSOLV =  1.3850

     NESFP =       0
     OMEGA = 40.0000     RET   =100.0000     FRO   =  0.7000

     TABS  =298.0000     IPRINT=       0

     --------------------------------
     INPUT FOR ITERATIVE C-PCM METHOD 
     --------------------------------
     IPCMIT  =         1     MXDIIS  =        50
     MXITR1  =       200     MXITR2  =       200
     THRES   = 0.100E-09     IMUL    =         3
     RCUT(1) =   20.0000     RCUT(2) =   50.0000

     IDIRCT  =         1
     IMGABI  =         0     RABI    =    4.0000
     IMGASC  =         0     RASC    =   20.0000
     THRSLS  = 0.500E-03     DENSLS  =    0.0100
     IEFPOL  =         1     REFPOL  =    0.0000

     INPUT FOR ISOTROPIC DIELECTRICS
     -------------------------------
     EPS=    78.39

          ----------------
          PROPERTIES INPUT
          ----------------

     MOMENTS            FIELD           POTENTIAL          DENSITY
 IEMOM =       1   IEFLD =       0   IEPOT =       0   IEDEN =       0
 WHERE =COMASS     WHERE =NUCLEI     WHERE =NUCLEI     WHERE =NUCLEI  
 OUTPUT=BOTH       OUTPUT=BOTH       OUTPUT=NONE       OUTPUT=BOTH    
 IEMINT=       0   IEFINT=       0                     IEDINT=       0
                                                       MORB  =       0
          EXTRAPOLATION IN EFFECT
          SOSCF IN EFFECT
 ORBITAL PRINTING OPTION: NPREO=     1 32767     2     1

     -------------------------------
     INTEGRAL TRANSFORMATION OPTIONS
     -------------------------------
     NWORD  =            0
     CUTOFF = 1.0E-10     MPTRAN =       0
     DIRTRF =       T     AOINTS =DUP     

          ----------------------
          INTEGRAL INPUT OPTIONS
          ----------------------
 NOPK  =       1 NORDER=       0 SCHWRZ=       T

 ..... DONE SETTING UP THE RUN .....
 CPU     0: STEP CPU TIME=     0.03 TOTAL CPU TIME=          0.0 (      0.0 MIN)
 TOTAL WALL CLOCK TIME=          0.1 SECONDS, CPU UTILIZATION IS    42.86%
 CPU     0: STEP CPU TIME=     0.00 TOTAL CPU TIME=          0.0 (      0.0 MIN)
 TOTAL WALL CLOCK TIME=          0.1 SECONDS, CPU UTILIZATION IS    42.86%

                    ----------------------
                    AO INTEGRAL TECHNOLOGY
                    ----------------------
     S,P,L SHELL ROTATED AXIS INTEGRALS, REPROGRAMMED BY
        KAZUYA ISHIMURA (IMS) AND JOSE SIERRA (SYNSTAR).
     S,P,D,L SHELL ROTATED AXIS INTEGRALS PROGRAMMED BY
        KAZUYA ISHIMURA (INSTITUTE FOR MOLECULAR SCIENCE).
     S,P,D,F,G SHELL TO TOTAL QUARTET ANGULAR MOMENTUM SUM 5,
        ERIC PROGRAM BY GRAHAM FLETCHER (ELORET AND NASA ADVANCED
        SUPERCOMPUTING DIVISION, AMES RESEARCH CENTER).
     S,P,D,F,G,L SHELL GENERAL RYS QUADRATURE PROGRAMMED BY
        MICHEL DUPUIS (PACIFIC NORTHWEST NATIONAL LABORATORY).
 Setting modorb=1 flag...
 Setting modorb=1 flag...

          -----------------------
          MP2 CONTROL INFORMATION
          -----------------------
          NACORE =        8  NBCORE =        8
          LMOMP2 =        F  AOINTS = DUP     
          METHOD =        2  NWORD  =               0
          MP2PRP =        F  OSPT   = NONE    
          CUTOFF = 1.00E-12  CPHFBS = BASISAO 
          CODE   = IMS     

          NUMBER OF CORE -A-  ORBITALS =     8
          NUMBER OF CORE -B-  ORBITALS =     8
          NUMBER OF OCC. -A-  ORBITALS =    18
          NUMBER OF OCC. -B-  ORBITALS =    18
          NUMBER OF MOLECULAR ORBITALS =    66
          NUMBER OF   BASIS  FUNCTIONS =    66

 CPU     0: STEP CPU TIME=     0.03 TOTAL CPU TIME=          0.1 (      0.0 MIN)
 TOTAL WALL CLOCK TIME=          0.1 SECONDS, CPU UTILIZATION IS    60.00%
 CPU     0: STEP CPU TIME=     0.00 TOTAL CPU TIME=          0.1 (      0.0 MIN)
 TOTAL WALL CLOCK TIME=          0.1 SECONDS, CPU UTILIZATION IS    60.00%

     INPUT FOR CAVITY DEFINITION 
     ---------------------------
   ATOM               COORDINATES                RADIUS       EPS
      1     -4.8780     -4.2940     -5.8340      0.0100     78.3900
      2     -4.2530     -3.5490     -5.7650      1.5900     78.3900
      3     -4.2960     -2.8600     -7.0220      1.7700     78.3900
      4     -5.3380     -2.5200     -7.2170      0.0100     78.3900
      5     -4.0010     -3.5670     -7.8260      0.0100     78.3900
      6     -3.3600     -1.6500     -7.0660      1.7700     78.3900
      7     -3.3850     -1.1610     -8.0630      0.0100     78.3900
      8     -3.7760     -0.6630     -6.0790      1.5900     78.3900
      9     -2.6280     -0.0650     -5.5040      1.7700     78.3900
     10     -2.7230      1.0320     -5.6760      0.0100     78.3900
     11     -2.5670     -0.3120     -4.0620      1.6800     78.3900
     12     -2.1230     -0.1710     -1.9140      1.7700     78.3900
     13     -2.9940     -1.2420     -2.0590      1.6800     78.3900
     14     -3.2380     -1.2800     -3.3470      1.7700     78.3900
     15     -3.8940     -1.9980     -3.8450      0.0100     78.3900
     16     -0.6580      1.4370     -0.9850      1.6800     78.3900
     17     -0.4540      1.8600     -2.2370      1.7700     78.3900
     18      0.2240      2.7150     -2.3340      0.0100     78.3900
     19     -1.0270      1.4510     -3.3760      1.6800     78.3900
     20     -1.8450      0.4070     -3.1420      1.7700     78.3900
     21     -1.5080      0.3990     -0.7810      1.7700     78.3900
     22     -1.7400     -0.0220      0.4770      1.6800     78.3900
     23     -2.3270     -0.8130      0.6650      0.0100     78.3900
     24     -1.2220      0.3680      1.2420      0.0100     78.3900
     25     -1.4150     -0.5880     -6.2460      1.7700     78.3900
     26     -0.5160     -0.6660     -5.6010      0.0100     78.3900
     27     -1.1350      0.2520     -7.3460      1.5900     78.3900
     28     -0.4120     -0.1610     -7.8370      0.0100     78.3900
     29     -1.9000     -1.9580     -6.7090      1.7700     78.3900
     30     -1.9210     -2.6640     -5.8450      0.0100     78.3900
     31     -1.2240     -2.5030     -7.8680      1.5900     78.3900
     32      0.0450     -3.4140     -7.6340      2.1000     78.3900
     33     -0.2940     -4.4500     -6.6330      1.5900     78.3900
     34      0.5120     -3.9010     -8.9490      1.5900     78.3900
     35      1.1100     -2.4380     -7.0160      1.5900     78.3900
     36      1.8040     -1.4960     -7.8650      1.7700     78.3900
     37      1.0900     -0.8220     -8.3940      0.0100     78.3900
     38      2.4070     -2.0290     -8.6410      0.0100     78.3900
     39      2.7720     -0.6260     -7.0520      1.7700     78.3900
     40      3.2260      0.1600     -7.6970      0.0100     78.3900
     41      2.0640      0.0480     -5.9690      1.5900     78.3900
     42      2.9140      0.1260     -4.8280      1.7700     78.3900
     43      3.0040      1.2180     -4.6110      0.0100     78.3900
     44      2.3520     -0.5610     -3.6310      1.6800     78.3900
     45      1.3940     -1.5390     -3.7750      1.7700     78.3900
     46      1.0890     -1.7580     -4.8000      0.0100     78.3900
     47      0.8540     -2.1470     -2.7100      1.7700     78.3900
     48      0.0730     -2.9000     -2.8020      0.0100     78.3900
     49      2.8070     -0.2200     -2.3580      1.7700     78.3900
     50      3.6730      0.6620     -2.2410      1.5900     78.3900
     51      2.2880     -0.8400     -1.2750      1.6800     78.3900
     52      1.3270     -1.7670     -1.4200      1.7700     78.3900
     53      0.8070     -2.3250     -0.3300      1.6800     78.3900
     54      1.1420     -2.0290      0.5680      0.0100     78.3900
     55      0.1100     -3.0420     -0.3710      0.0100     78.3900
     56      4.2760     -0.4160     -5.2290      1.7700     78.3900
     57      4.7930     -0.9380     -4.3950      0.0100     78.3900
     58      5.0930      0.6350     -5.7140      1.5900     78.3900
     59      5.8420      0.2280     -6.1770      0.0100     78.3900
     60      3.8970     -1.3870     -6.3390      1.7700     78.3900
     61      3.4190     -2.2860     -5.8820      0.0100     78.3900
     62      4.9780     -1.6840     -7.2540      1.5900     78.3900
     63      5.3830     -3.1780     -7.5550      2.1000     78.3900
     64      4.4840     -4.1110     -6.8470      1.5900     78.3900
     65      5.4790     -3.3570     -9.0260      1.5900     78.3900
     66      6.8290     -3.2890     -6.9410      1.5900     78.3900
     67      8.0020     -2.8340     -7.6580      1.7700     78.3900
     68      8.3070     -1.8240     -7.2940      0.0100     78.3900
     69      7.8260     -2.7410     -8.7580      0.0100     78.3900
     70      9.1570     -3.8190     -7.4300      1.7700     78.3900
     71      8.8650     -4.8590     -7.6970      0.0100     78.3900
     72     10.2700     -3.4510     -8.2900      1.5900     78.3900
     73     11.5010     -3.6520     -7.6010      1.7700     78.3900
     74     12.0820     -4.3770     -8.2180      0.0100     78.3900
     75     12.2510     -2.3730     -7.4560      1.6800     78.3900
     76     11.5790     -1.1690     -7.4180      1.7700     78.3900
     77     10.4920     -1.2320     -7.4780      0.0100     78.3900
     78     13.6280     -2.4150     -7.3780      1.7700     78.3900
     79     14.2590     -3.4640     -7.4100      1.5900     78.3900
     80     14.2350     -1.1870     -7.2640      1.6800     78.3900
     81     15.2440     -1.1990     -7.2160      0.0100     78.3900
     82     13.6280      0.0520     -7.2480      1.7700     78.3900
     83     14.3080      1.0760     -7.1750      1.5900     78.3900
     84     12.2020      0.0130     -7.3320      1.7700     78.3900
     85     11.6470      0.9480     -7.3230      0.0100     78.3900
     86     11.1760     -4.2930     -6.2600      1.7700     78.3900
     87     11.8540     -3.9440     -5.4480      0.0100     78.3900
     88     11.2420     -5.7050     -6.3570      1.5900     78.3900
     89     10.8740     -6.0740     -5.5390      0.0100     78.3900
     90      9.7480     -3.8090     -6.0220      1.7700     78.3900
     91      9.7510     -2.7430     -5.7010      0.0100     78.3900
     92      8.9590     -4.6520     -5.1600      1.5900     78.3900
     93      9.0750     -4.4540     -3.6150      2.1000     78.3900
     94      8.7050     -5.7300     -2.9650      1.5900     78.3900
     95     10.4140     -3.9160     -3.3020      1.5900     78.3900
     96      7.9670     -3.3820     -3.2970      1.5900     78.3900
     97      8.1870     -1.9570     -3.3600      1.7700     78.3900
     98      7.3320     -1.5030     -3.9110      0.0100     78.3900
     99      9.1100     -1.6960     -3.9270      0.0100     78.3900
    100      8.2730     -1.2700     -1.9760      1.7700     78.3900
    101      8.5640     -0.2040     -2.1090      0.0100     78.3900
    102      6.9700     -1.2810     -1.3250      1.5900     78.3900
    103      7.0450     -2.0500     -0.1350      1.7700     78.3900
    104      7.2450     -1.3210      0.6850      0.0100     78.3900
    105      5.8160     -2.8420      0.0670      1.6800     78.3900
    106      5.3450     -3.6040     -0.9690      1.7700     78.3900
    107      5.9550     -3.5680     -1.8760      0.0100     78.3900
    108      5.1550     -2.7840      1.2640      1.7700     78.3900
    109      5.5290     -2.0860      2.1940      1.5900     78.3900
    110      4.0310     -3.5610      1.3460      1.6800     78.3900
    111      3.5450     -3.5540      2.2280      0.0100     78.3900
    112      3.4980     -4.3550      0.3570      1.7700     78.3900
    113      2.4670     -4.9920      0.5690      1.5900     78.3900
    114      4.2310     -4.3440     -0.8730      1.7700     78.3900
    115      3.8710     -4.9450     -1.7030      0.0100     78.3900
    116      8.2530     -2.9230     -0.2910      1.7700     78.3900
    117      8.0260     -3.7480     -0.9930      0.0100     78.3900
    118      8.6560     -3.5170      0.9190      1.5900     78.3900
    119      9.6310     -3.5410      0.9830      0.0100     78.3900
    120      9.2210     -1.9310     -0.9490      1.7700     78.3900
    121      9.9970     -2.4820     -1.5180      0.0100     78.3900
    122      9.8260     -0.9330     -0.0940      1.5900     78.3900
    123     10.9970     -1.3360      0.8630      2.1000     78.3900
    124     11.5820     -2.5750      0.3220      1.5900     78.3900
    125     11.9380     -0.2030      1.0140      1.5900     78.3900
    126     10.2510     -1.5750      2.2270      1.5900     78.3900
    127     10.8170     -2.2620      3.3540      1.7700     78.3900
    128     10.4330     -1.7840      4.2840      0.0100     78.3900
    129     11.9240     -2.1720      3.3810      0.0100     78.3900
    130     10.4070     -3.7420      3.4040      1.7700     78.3900
    131      9.2990     -3.8350      3.4420      0.0100     78.3900
    132     10.8700     -4.4400      2.2130      1.5900     78.3900
    133     11.4240     -5.6820      2.5490      1.7700     78.3900
    134     10.8780     -6.4100      1.9070      0.0100     78.3900
    135     12.8770     -5.7510      2.2410      1.6800     78.3900
    136     13.6600     -4.6300      2.3910      1.7700     78.3900
    137     13.1460     -3.7270      2.7220      0.0100     78.3900
    138     14.9680     -4.6470      2.1070      1.7700     78.3900
    139     15.6020     -3.7690      2.2170      0.0100     78.3900
    140     13.4480     -6.9360      1.7790      1.7700     78.3900
    141     12.7280     -7.9390      1.6400      1.5900     78.3900
    142     14.7680     -6.9700      1.4740      1.6800     78.3900
    143     15.5230     -5.8650      1.6220      1.7700     78.3900
    144     16.8150     -5.9190      1.3040      1.6800     78.3900
    145     17.1970     -6.7810      0.9660      0.0100     78.3900
    146     17.4130     -5.1190      1.3620      0.0100     78.3900
    147     11.0800     -5.9500      4.0020      1.7700     78.3900
    148     11.8510     -6.5570      4.5220      0.0100     78.3900
    149      9.8200     -6.5960      4.0730      1.5900     78.3900
    150      9.1580     -6.0090      3.6740      0.0100     78.3900
    151     11.0190     -4.5230      4.5630      1.7700     78.3900
    152     12.0510     -4.1210      4.6840      0.0100     78.3900
    153     10.2040     -4.3400      5.7400      1.5900     78.3900
    154     10.8590     -4.4480      7.1630      2.1000     78.3900
    155     10.1150     -5.4290      7.9850      1.5900     78.3900
    156     12.3160     -4.6840      7.0360      1.5900     78.3900
    157     10.6730     -3.0240      7.7980      1.5900     78.3900
    158      9.3950     -2.4380      8.1210      1.7700     78.3900
    159      8.8730     -3.0340      8.9050      0.0100     78.3900
    160      8.7500     -2.4200      7.2130      0.0100     78.3900
    161      9.5400     -0.9780      8.6180      1.7700     78.3900
    162      9.9720     -0.9500      9.6370      0.0100     78.3900
    163     10.4790     -0.2640      7.7500      1.5900     78.3900
    164     10.0270      1.0500      7.5070      1.7700     78.3900
    165     10.8540      1.7130      7.8410      0.0100     78.3900
    166      9.7690      1.2910      6.0660      1.6800     78.3900
    167      8.9690      0.5760      5.2010      1.7700     78.3900
    168      6.6200     -1.9100      4.7500      1.6800     78.3900
    169      6.0060     -2.2220      4.0280      0.0100     78.3900
    170      6.5560     -2.2840      5.6720      0.0100     78.3900
    171      8.2480     -0.5080      5.5050      1.6800     78.3900
    172      7.4680     -0.9140      4.5360      1.7700     78.3900
    173      7.4510     -0.3280      3.3010      1.6800     78.3900
    174      6.8560     -0.7270      2.5990      0.0100     78.3900
    175      8.2430      0.7510      2.9150      1.7700     78.3900
    176      8.1940      1.2380      1.7830      1.5900     78.3900
    177      9.0490      1.2220      3.9900      1.7700     78.3900
    178      9.9130      2.3100      4.0650      1.6800     78.3900
    179     10.3210      2.3070      5.3160      1.7700     78.3900
    180     11.0190      3.0300      5.7470      0.0100     78.3900
    181      8.8070      1.2940      8.3780      1.7700     78.3900
    182      8.0590      1.9380      7.8740      0.0100     78.3900
    183      9.1940      1.8870      9.6050      1.5900     78.3900
    184      8.4260      1.8310     10.1960      0.0100     78.3900
    185      8.2540     -0.1140      8.5880      1.7700     78.3900
    186      7.6820     -0.4410      7.7060      0.0100     78.3900
    187      7.4540     -0.2820      9.7740      1.5900     78.3900
    188      5.8940      0.0050      9.6960      2.1000     78.3900
    189      5.3390     -0.5780      8.4560      1.5900     78.3900
    190      5.3070     -0.5000     10.9620      1.5900     78.3900
    191      5.7890      1.5870      9.6930      1.5900     78.3900
    192      4.8020      2.2890      8.8960      1.7700     78.3900
    193      4.4000      3.1440      9.4860      0.0100     78.3900
    194      3.9280      1.6470      8.6320      0.0100     78.3900
    195      5.4070      2.8610      7.6080      1.7700     78.3900
    196      6.2950      3.4920      7.8370      0.0100     78.3900
    197      5.8470      1.7710      6.7680      1.5900     78.3900
    198      5.5330      2.0400      5.4220      1.7700     78.3900
    199      6.4720      1.9010      4.8430      0.0100     78.3900
    200      4.5060      1.1150      4.9230      1.6800     78.3900
    201      4.1730      0.9120      3.6120      1.7700     78.3900
    202      4.6250      1.6080      0.2560      1.6800     78.3900
    203      4.3160      1.2180     -0.6140      0.0100     78.3900
    204      5.3790      2.2610      0.2680      0.0100     78.3900
    205      4.7230      1.5320      2.5560      1.6800     78.3900
    206      4.2170      1.1070      1.4020      1.7700     78.3900
    207      3.2420      0.1500      1.3150      1.6800     78.3900
    208      2.9420     -0.1400      0.3960      0.0100     78.3900
    209      2.6610     -0.5120      2.3870      1.7700     78.3900
    210      1.7920     -1.3730      2.2170      1.5900     78.3900
    211      3.1830     -0.0520      3.6250      1.7700     78.3900
    212      2.8870     -0.4410      4.9240      1.6800     78.3900
    213      3.7040      0.2710      5.6670      1.7700     78.3900
    214      3.7900      0.2150      6.7580      0.0100     78.3900
    215      5.1000      3.4810      5.3470      1.7700     78.3900
    216      4.3820      3.6680      4.5220      0.0100     78.3900
    217      6.2360      4.3120      5.1840      1.5900     78.3900
    218      5.9210      5.2200      5.2500      0.0100     78.3900
    219      4.4530      3.6650      6.7140      1.7700     78.3900
    220      3.4770      3.1270      6.7510      0.0100     78.3900
    221      4.3750      5.0360      7.1710      1.5900     78.3900
    222      3.0100      5.8040      7.0060      2.1000     78.3900
    223      1.8940      4.8910      7.3420      1.5900     78.3900
    224      3.0520      7.0780      7.7570      1.5900     78.3900
    225      2.9420      6.1120      5.4670      1.5900     78.3900
    226      3.9450      6.9420      4.8390      1.7700     78.3900
    227      4.9760      6.5760      5.0430      0.0100     78.3900
    228      3.8830      7.9850      5.2310      0.0100     78.3900
    229      3.7450      6.9900      3.3180      1.7700     78.3900
    230      4.4720      7.6900      2.8530      0.0100     78.3900
    231      3.9900      5.6760      2.7310      1.5900     78.3900
    232      3.0660      5.4470      1.6730      1.7700     78.3900
    233      3.6810      5.2240      0.7700      0.0100     78.3900
    234      2.1600      4.2980      1.9710      1.6800     78.3900
    235      1.9740      3.8600      3.2630      1.7700     78.3900
    236      2.5420      4.3920      4.0230      0.0100     78.3900
    237      1.5160      3.6810      0.9190      1.7700     78.3900
    238      1.6450      4.0450     -0.2410      1.5900     78.3900
    239      0.7170      2.6230      1.2750      1.6800     78.3900
    240      0.2470      2.1620      0.5040      0.0100     78.3900
    241      0.5000      2.1200      2.5400      1.7700     78.3900
    242     -0.2290      1.1420      2.6960      1.5900     78.3900
    243      1.1950      2.8170      3.5780      1.7700     78.3900
    244      1.1030      2.4650      4.6030      0.0100     78.3900
    245      2.3030      6.7480      1.4510      1.7700     78.3900
    246      1.2550      6.5600      1.1350      0.0100     78.3900
    247      2.9620      7.5460      0.4760      1.5900     78.3900
    248      2.5620      8.4320      0.4750      0.0100     78.3900
    249      2.3400      7.3700      2.8450      1.7700     78.3900
    250      1.6000      6.8710      3.5100      0.0100     78.3900
    251      2.1680      8.7980      2.8670      1.5900     78.3900
    252      1.2660      9.0200      2.5850      0.0100     78.3900

     ----------------------------
     INPUT FOR TESSERA DEFINITION
     ----------------------------
     NTSALL  =        60     MTHALL  =         4
     MTHAUT  =         0     AUTFRE  =    2.0000
     NTSFRZ  =        60     KEEPSM  =         0
     AREAKP  =   10.0000     BONDRY  =    1.0000
     AREATL  =    0.0100

     SPHERE     INITS       METHOD
          1        60       FIXPVA
          2        60       FIXPVA
          3        60       FIXPVA
          4        60       FIXPVA
          5        60       FIXPVA
          6        60       FIXPVA
          7        60       FIXPVA
          8        60       FIXPVA
          9        60       FIXPVA
         10        60       FIXPVA
         11        60       FIXPVA
         12        60       FIXPVA
         13        60       FIXPVA
         14        60       FIXPVA
         15        60       FIXPVA
         16        60       FIXPVA
         17        60       FIXPVA
         18        60       FIXPVA
         19        60       FIXPVA
         20        60       FIXPVA
         21        60       FIXPVA
         22        60       FIXPVA
         23        60       FIXPVA
         24        60       FIXPVA
         25        60       FIXPVA
         26        60       FIXPVA
         27        60       FIXPVA
         28        60       FIXPVA
         29        60       FIXPVA
         30        60       FIXPVA
         31        60       FIXPVA
         32        60       FIXPVA
         33        60       FIXPVA
         34        60       FIXPVA
         35        60       FIXPVA
         36        60       FIXPVA
         37        60       FIXPVA
         38        60       FIXPVA
         39        60       FIXPVA
         40        60       FIXPVA
         41        60       FIXPVA
         42        60       FIXPVA
         43        60       FIXPVA
         44        60       FIXPVA
         45        60       FIXPVA
         46        60       FIXPVA
         47        60       FIXPVA
         48        60       FIXPVA
         49        60       FIXPVA
         50        60       FIXPVA
         51        60       FIXPVA
         52        60       FIXPVA
         53        60       FIXPVA
         54        60       FIXPVA
         55        60       FIXPVA
         56        60       FIXPVA
         57        60       FIXPVA
         58        60       FIXPVA
         59        60       FIXPVA
         60        60       FIXPVA
         61        60       FIXPVA
         62        60       FIXPVA
         63        60       FIXPVA
         64        60       FIXPVA
         65        60       FIXPVA
         66        60       FIXPVA
         67        60       FIXPVA
         68        60       FIXPVA
         69        60       FIXPVA
         70        60       FIXPVA
         71        60       FIXPVA
         72        60       FIXPVA
         73        60       FIXPVA
         74        60       FIXPVA
         75        60       FIXPVA
         76        60       FIXPVA
         77        60       FIXPVA
         78        60       FIXPVA
         79        60       FIXPVA
         80        60       FIXPVA
         81        60       FIXPVA
         82        60       FIXPVA
         83        60       FIXPVA
         84        60       FIXPVA
         85        60       FIXPVA
         86        60       FIXPVA
         87        60       FIXPVA
         88        60       FIXPVA
         89        60       FIXPVA
         90        60       FIXPVA
         91        60       FIXPVA
         92        60       FIXPVA
         93        60       FIXPVA
         94        60       FIXPVA
         95        60       FIXPVA
         96        60       FIXPVA
         97        60       FIXPVA
         98        60       FIXPVA
         99        60       FIXPVA
        100        60       FIXPVA
        101        60       FIXPVA
        102        60       FIXPVA
        103        60       FIXPVA
        104        60       FIXPVA
        105        60       FIXPVA
        106        60       FIXPVA
        107        60       FIXPVA
        108        60       FIXPVA
        109        60       FIXPVA
        110        60       FIXPVA
        111        60       FIXPVA
        112        60       FIXPVA
        113        60       FIXPVA
        114        60       FIXPVA
        115        60       FIXPVA
        116        60       FIXPVA
        117        60       FIXPVA
        118        60       FIXPVA
        119        60       FIXPVA
        120        60       FIXPVA
        121        60       FIXPVA
        122        60       FIXPVA
        123        60       FIXPVA
        124        60       FIXPVA
        125        60       FIXPVA
        126        60       FIXPVA
        127        60       FIXPVA
        128        60       FIXPVA
        129        60       FIXPVA
        130        60       FIXPVA
        131        60       FIXPVA
        132        60       FIXPVA
        133        60       FIXPVA
        134        60       FIXPVA
        135        60       FIXPVA
        136        60       FIXPVA
        137        60       FIXPVA
        138        60       FIXPVA
        139        60       FIXPVA
        140        60       FIXPVA
        141        60       FIXPVA
        142        60       FIXPVA
        143        60       FIXPVA
        144        60       FIXPVA
        145        60       FIXPVA
        146        60       FIXPVA
        147        60       FIXPVA
        148        60       FIXPVA
        149        60       FIXPVA
        150        60       FIXPVA
        151        60       FIXPVA
        152        60       FIXPVA
        153        60       FIXPVA
        154        60       FIXPVA
        155        60       FIXPVA
        156        60       FIXPVA
        157        60       FIXPVA
        158        60       FIXPVA
        159        60       FIXPVA
        160        60       FIXPVA
        161        60       FIXPVA
        162        60       FIXPVA
        163        60       FIXPVA
        164        60       FIXPVA
        165        60       FIXPVA
        166        60       FIXPVA
        167        60       FIXPVA
        168        60       FIXPVA
        169        60       FIXPVA
        170        60       FIXPVA
        171        60       FIXPVA
        172        60       FIXPVA
        173        60       FIXPVA
        174        60       FIXPVA
        175        60       FIXPVA
        176        60       FIXPVA
        177        60       FIXPVA
        178        60       FIXPVA
        179        60       FIXPVA
        180        60       FIXPVA
        181        60       FIXPVA
        182        60       FIXPVA
        183        60       FIXPVA
        184        60       FIXPVA
        185        60       FIXPVA
        186        60       FIXPVA
        187        60       FIXPVA
        188        60       FIXPVA
        189        60       FIXPVA
        190        60       FIXPVA
        191        60       FIXPVA
        192        60       FIXPVA
        193        60       FIXPVA
        194        60       FIXPVA
        195        60       FIXPVA
        196        60       FIXPVA
        197        60       FIXPVA
        198        60       FIXPVA
        199        60       FIXPVA
        200        60       FIXPVA
        201        60       FIXPVA
        202        60       FIXPVA
        203        60       FIXPVA
        204        60       FIXPVA
        205        60       FIXPVA
        206        60       FIXPVA
        207        60       FIXPVA
        208        60       FIXPVA
        209        60       FIXPVA
        210        60       FIXPVA
        211        60       FIXPVA
        212        60       FIXPVA
        213        60       FIXPVA
        214        60       FIXPVA
        215        60       FIXPVA
        216        60       FIXPVA
        217        60       FIXPVA
        218        60       FIXPVA
        219        60       FIXPVA
        220        60       FIXPVA
        221        60       FIXPVA
        222        60       FIXPVA
        223        60       FIXPVA
        224        60       FIXPVA
        225        60       FIXPVA
        226        60       FIXPVA
        227        60       FIXPVA
        228        60       FIXPVA
        229        60       FIXPVA
        230        60       FIXPVA
        231        60       FIXPVA
        232        60       FIXPVA
        233        60       FIXPVA
        234        60       FIXPVA
        235        60       FIXPVA
        236        60       FIXPVA
        237        60       FIXPVA
        238        60       FIXPVA
        239        60       FIXPVA
        240        60       FIXPVA
        241        60       FIXPVA
        242        60       FIXPVA
        243        60       FIXPVA
        244        60       FIXPVA
        245        60       FIXPVA
        246        60       FIXPVA
        247        60       FIXPVA
        248        60       FIXPVA
        249        60       FIXPVA
        250        60       FIXPVA
        251        60       FIXPVA
        252        60       FIXPVA

     ------------------------------
      FIXPVA TESSELLATION FOR PCM
         PEIFENG SU AND HUI LI
     UNIVERSITY OF NEBRASKA-LINCOLN
     ------------------------------


 PCM DIMENSIONS: MXSP=   252, MXTS=     10080, MEMORY=        103575

     INPUT FOR CAVITY DEFINITION 
     ---------------------------
   ATOM               COORDINATES                RADIUS       EPS
      1     -4.8780     -4.2940     -5.8340      0.0100     78.3900
      2     -4.2530     -3.5490     -5.7650      1.5900     78.3900
      3     -4.2960     -2.8600     -7.0220      1.7700     78.3900
      4     -5.3380     -2.5200     -7.2170      0.0100     78.3900
      5     -4.0010     -3.5670     -7.8260      0.0100     78.3900
      6     -3.3600     -1.6500     -7.0660      1.7700     78.3900
      7     -3.3850     -1.1610     -8.0630      0.0100     78.3900
      8     -3.7760     -0.6630     -6.0790      1.5900     78.3900
      9     -2.6280     -0.0650     -5.5040      1.7700     78.3900
     10     -2.7230      1.0320     -5.6760      0.0100     78.3900
     11     -2.5670     -0.3120     -4.0620      1.6800     78.3900
     12     -2.1230     -0.1710     -1.9140      1.7700     78.3900
     13     -2.9940     -1.2420     -2.0590      1.6800     78.3900
     14     -3.2380     -1.2800     -3.3470      1.7700     78.3900
     15     -3.8940     -1.9980     -3.8450      0.0100     78.3900
     16     -0.6580      1.4370     -0.9850      1.6800     78.3900
     17     -0.4540      1.8600     -2.2370      1.7700     78.3900
     18      0.2240      2.7150     -2.3340      0.0100     78.3900
     19     -1.0270      1.4510     -3.3760      1.6800     78.3900
     20     -1.8450      0.4070     -3.1420      1.7700     78.3900
     21     -1.5080      0.3990     -0.7810      1.7700     78.3900
     22     -1.7400     -0.0220      0.4770      1.6800     78.3900
     23     -2.3270     -0.8130      0.6650      0.0100     78.3900
     24     -1.2220      0.3680      1.2420      0.0100     78.3900
     25     -1.4150     -0.5880     -6.2460      1.7700     78.3900
     26     -0.5160     -0.6660     -5.6010      0.0100     78.3900
     27     -1.1350      0.2520     -7.3460      1.5900     78.3900
     28     -0.4120     -0.1610     -7.8370      0.0100     78.3900
     29     -1.9000     -1.9580     -6.7090      1.7700     78.3900
     30     -1.9210     -2.6640     -5.8450      0.0100     78.3900
     31     -1.2240     -2.5030     -7.8680      1.5900     78.3900
     32      0.0450     -3.4140     -7.6340      2.1000     78.3900
     33     -0.2940     -4.4500     -6.6330      1.5900     78.3900
     34      0.5120     -3.9010     -8.9490      1.5900     78.3900
     35      1.1100     -2.4380     -7.0160      1.5900     78.3900
     36      1.8040     -1.4960     -7.8650      1.7700     78.3900
     37      1.0900     -0.8220     -8.3940      0.0100     78.3900
     38      2.4070     -2.0290     -8.6410      0.0100     78.3900
     39      2.7720     -0.6260     -7.0520      1.7700     78.3900
     40      3.2260      0.1600     -7.6970      0.0100     78.3900
     41      2.0640      0.0480     -5.9690      1.5900     78.3900
     42      2.9140      0.1260     -4.8280      1.7700     78.3900
     43      3.0040      1.2180     -4.6110      0.0100     78.3900
     44      2.3520     -0.5610     -3.6310      1.6800     78.3900
     45      1.3940     -1.5390     -3.7750      1.7700     78.3900
     46      1.0890     -1.7580     -4.8000      0.0100     78.3900
     47      0.8540     -2.1470     -2.7100      1.7700     78.3900
     48      0.0730     -2.9000     -2.8020      0.0100     78.3900
     49      2.8070     -0.2200     -2.3580      1.7700     78.3900
     50      3.6730      0.6620     -2.2410      1.5900     78.3900
     51      2.2880     -0.8400     -1.2750      1.6800     78.3900
     52      1.3270     -1.7670     -1.4200      1.7700     78.3900
     53      0.8070     -2.3250     -0.3300      1.6800     78.3900
     54      1.1420     -2.0290      0.5680      0.0100     78.3900
     55      0.1100     -3.0420     -0.3710      0.0100     78.3900
     56      4.2760     -0.4160     -5.2290      1.7700     78.3900
     57      4.7930     -0.9380     -4.3950      0.0100     78.3900
     58      5.0930      0.6350     -5.7140      1.5900     78.3900
     59      5.8420      0.2280     -6.1770      0.0100     78.3900
     60      3.8970     -1.3870     -6.3390      1.7700     78.3900
     61      3.4190     -2.2860     -5.8820      0.0100     78.3900
     62      4.9780     -1.6840     -7.2540      1.5900     78.3900
     63      5.3830     -3.1780     -7.5550      2.1000     78.3900
     64      4.4840     -4.1110     -6.8470      1.5900     78.3900
     65      5.4790     -3.3570     -9.0260      1.5900     78.3900
     66      6.8290     -3.2890     -6.9410      1.5900     78.3900
     67      8.0020     -2.8340     -7.6580      1.7700     78.3900
     68      8.3070     -1.8240     -7.2940      0.0100     78.3900
     69      7.8260     -2.7410     -8.7580      0.0100     78.3900
     70      9.1570     -3.8190     -7.4300      1.7700     78.3900
     71      8.8650     -4.8590     -7.6970      0.0100     78.3900
     72     10.2700     -3.4510     -8.2900      1.5900     78.3900
     73     11.5010     -3.6520     -7.6010      1.7700     78.3900
     74     12.0820     -4.3770     -8.2180      0.0100     78.3900
     75     12.2510     -2.3730     -7.4560      1.6800     78.3900
     76     11.5790     -1.1690     -7.4180      1.7700     78.3900
     77     10.4920     -1.2320     -7.4780      0.0100     78.3900
     78     13.6280     -2.4150     -7.3780      1.7700     78.3900
     79     14.2590     -3.4640     -7.4100      1.5900     78.3900
     80     14.2350     -1.1870     -7.2640      1.6800     78.3900
     81     15.2440     -1.1990     -7.2160      0.0100     78.3900
     82     13.6280      0.0520     -7.2480      1.7700     78.3900
     83     14.3080      1.0760     -7.1750      1.5900     78.3900
     84     12.2020      0.0130     -7.3320      1.7700     78.3900
     85     11.6470      0.9480     -7.3230      0.0100     78.3900
     86     11.1760     -4.2930     -6.2600      1.7700     78.3900
     87     11.8540     -3.9440     -5.4480      0.0100     78.3900
     88     11.2420     -5.7050     -6.3570      1.5900     78.3900
     89     10.8740     -6.0740     -5.5390      0.0100     78.3900
     90      9.7480     -3.8090     -6.0220      1.7700     78.3900
     91      9.7510     -2.7430     -5.7010      0.0100     78.3900
     92      8.9590     -4.6520     -5.1600      1.5900     78.3900
     93      9.0750     -4.4540     -3.6150      2.1000     78.3900
     94      8.7050     -5.7300     -2.9650      1.5900     78.3900
     95     10.4140     -3.9160     -3.3020      1.5900     78.3900
     96      7.9670     -3.3820     -3.2970      1.5900     78.3900
     97      8.1870     -1.9570     -3.3600      1.7700     78.3900
     98      7.3320     -1.5030     -3.9110      0.0100     78.3900
     99      9.1100     -1.6960     -3.9270      0.0100     78.3900
    100      8.2730     -1.2700     -1.9760      1.7700     78.3900
    101      8.5640     -0.2040     -2.1090      0.0100     78.3900
    102      6.9700     -1.2810     -1.3250      1.5900     78.3900
    103      7.0450     -2.0500     -0.1350      1.7700     78.3900
    104      7.2450     -1.3210      0.6850      0.0100     78.3900
    105      5.8160     -2.8420      0.0670      1.6800     78.3900
    106      5.3450     -3.6040     -0.9690      1.7700     78.3900
    107      5.9550     -3.5680     -1.8760      0.0100     78.3900
    108      5.1550     -2.7840      1.2640      1.7700     78.3900
    109      5.5290     -2.0860      2.1940      1.5900     78.3900
    110      4.0310     -3.5610      1.3460      1.6800     78.3900
    111      3.5450     -3.5540      2.2280      0.0100     78.3900
    112      3.4980     -4.3550      0.3570      1.7700     78.3900
    113      2.4670     -4.9920      0.5690      1.5900     78.3900
    114      4.2310     -4.3440     -0.8730      1.7700     78.3900
    115      3.8710     -4.9450     -1.7030      0.0100     78.3900
    116      8.2530     -2.9230     -0.2910      1.7700     78.3900
    117      8.0260     -3.7480     -0.9930      0.0100     78.3900
    118      8.6560     -3.5170      0.9190      1.5900     78.3900
    119      9.6310     -3.5410      0.9830      0.0100     78.3900
    120      9.2210     -1.9310     -0.9490      1.7700     78.3900
    121      9.9970     -2.4820     -1.5180      0.0100     78.3900
    122      9.8260     -0.9330     -0.0940      1.5900     78.3900
    123     10.9970     -1.3360      0.8630      2.1000     78.3900
    124     11.5820     -2.5750      0.3220      1.5900     78.3900
    125     11.9380     -0.2030      1.0140      1.5900     78.3900
    126     10.2510     -1.5750      2.2270      1.5900     78.3900
    127     10.8170     -2.2620      3.3540      1.7700     78.3900
    128     10.4330     -1.7840      4.2840      0.0100     78.3900
    129     11.9240     -2.1720      3.3810      0.0100     78.3900
    130     10.4070     -3.7420      3.4040      1.7700     78.3900
    131      9.2990     -3.8350      3.4420      0.0100     78.3900
    132     10.8700     -4.4400      2.2130      1.5900     78.3900
    133     11.4240     -5.6820      2.5490      1.7700     78.3900
    134     10.8780     -6.4100      1.9070      0.0100     78.3900
    135     12.8770     -5.7510      2.2410      1.6800     78.3900
    136     13.6600     -4.6300      2.3910      1.7700     78.3900
    137     13.1460     -3.7270      2.7220      0.0100     78.3900
    138     14.9680     -4.6470      2.1070      1.7700     78.3900
    139     15.6020     -3.7690      2.2170      0.0100     78.3900
    140     13.4480     -6.9360      1.7790      1.7700     78.3900
    141     12.7280     -7.9390      1.6400      1.5900     78.3900
    142     14.7680     -6.9700      1.4740      1.6800     78.3900
    143     15.5230     -5.8650      1.6220      1.7700     78.3900
    144     16.8150     -5.9190      1.3040      1.6800     78.3900
    145     17.1970     -6.7810      0.9660      0.0100     78.3900
    146     17.4130     -5.1190      1.3620      0.0100     78.3900
    147     11.0800     -5.9500      4.0020      1.7700     78.3900
    148     11.8510     -6.5570      4.5220      0.0100     78.3900
    149      9.8200     -6.5960      4.0730      1.5900     78.3900
    150      9.1580     -6.0090      3.6740      0.0100     78.3900
    151     11.0190     -4.5230      4.5630      1.7700     78.3900
    152     12.0510     -4.1210      4.6840      0.0100     78.3900
    153     10.2040     -4.3400      5.7400      1.5900     78.3900
    154     10.8590     -4.4480      7.1630      2.1000     78.3900
    155     10.1150     -5.4290      7.9850      1.5900     78.3900
    156     12.3160     -4.6840      7.0360      1.5900     78.3900
    157     10.6730     -3.0240      7.7980      1.5900     78.3900
    158      9.3950     -2.4380      8.1210      1.7700     78.3900
    159      8.8730     -3.0340      8.9050      0.0100     78.3900
    160      8.7500     -2.4200      7.2130      0.0100     78.3900
    161      9.5400     -0.9780      8.6180      1.7700     78.3900
    162      9.9720     -0.9500      9.6370      0.0100     78.3900
    163     10.4790     -0.2640      7.7500      1.5900     78.3900
    164     10.0270      1.0500      7.5070      1.7700     78.3900
    165     10.8540      1.7130      7.8410      0.0100     78.3900
    166      9.7690      1.2910      6.0660      1.6800     78.3900
    167      8.9690      0.5760      5.2010      1.7700     78.3900
    168      6.6200     -1.9100      4.7500      1.6800     78.3900
    169      6.0060     -2.2220      4.0280      0.0100     78.3900
    170      6.5560     -2.2840      5.6720      0.0100     78.3900
    171      8.2480     -0.5080      5.5050      1.6800     78.3900
    172      7.4680     -0.9140      4.5360      1.7700     78.3900
    173      7.4510     -0.3280      3.3010      1.6800     78.3900
    174      6.8560     -0.7270      2.5990      0.0100     78.3900
    175      8.2430      0.7510      2.9150      1.7700     78.3900
    176      8.1940      1.2380      1.7830      1.5900     78.3900
    177      9.0490      1.2220      3.9900      1.7700     78.3900
    178      9.9130      2.3100      4.0650      1.6800     78.3900
    179     10.3210      2.3070      5.3160      1.7700     78.3900
    180     11.0190      3.0300      5.7470      0.0100     78.3900
    181      8.8070      1.2940      8.3780      1.7700     78.3900
    182      8.0590      1.9380      7.8740      0.0100     78.3900
    183      9.1940      1.8870      9.6050      1.5900     78.3900
    184      8.4260      1.8310     10.1960      0.0100     78.3900
    185      8.2540     -0.1140      8.5880      1.7700     78.3900
    186      7.6820     -0.4410      7.7060      0.0100     78.3900
    187      7.4540     -0.2820      9.7740      1.5900     78.3900
    188      5.8940      0.0050      9.6960      2.1000     78.3900
    189      5.3390     -0.5780      8.4560      1.5900     78.3900
    190      5.3070     -0.5000     10.9620      1.5900     78.3900
    191      5.7890      1.5870      9.6930      1.5900     78.3900
    192      4.8020      2.2890      8.8960      1.7700     78.3900
    193      4.4000      3.1440      9.4860      0.0100     78.3900
    194      3.9280      1.6470      8.6320      0.0100     78.3900
    195      5.4070      2.8610      7.6080      1.7700     78.3900
    196      6.2950      3.4920      7.8370      0.0100     78.3900
    197      5.8470      1.7710      6.7680      1.5900     78.3900
    198      5.5330      2.0400      5.4220      1.7700     78.3900
    199      6.4720      1.9010      4.8430      0.0100     78.3900
    200      4.5060      1.1150      4.9230      1.6800     78.3900
    201      4.1730      0.9120      3.6120      1.7700     78.3900
    202      4.6250      1.6080      0.2560      1.6800     78.3900
    203      4.3160      1.2180     -0.6140      0.0100     78.3900
    204      5.3790      2.2610      0.2680      0.0100     78.3900
    205      4.7230      1.5320      2.5560      1.6800     78.3900
    206      4.2170      1.1070      1.4020      1.7700     78.3900
    207      3.2420      0.1500      1.3150      1.6800     78.3900
    208      2.9420     -0.1400      0.3960      0.0100     78.3900
    209      2.6610     -0.5120      2.3870      1.7700     78.3900
    210      1.7920     -1.3730      2.2170      1.5900     78.3900
    211      3.1830     -0.0520      3.6250      1.7700     78.3900
    212      2.8870     -0.4410      4.9240      1.6800     78.3900
    213      3.7040      0.2710      5.6670      1.7700     78.3900
    214      3.7900      0.2150      6.7580      0.0100     78.3900
    215      5.1000      3.4810      5.3470      1.7700     78.3900
    216      4.3820      3.6680      4.5220      0.0100     78.3900
    217      6.2360      4.3120      5.1840      1.5900     78.3900
    218      5.9210      5.2200      5.2500      0.0100     78.3900
    219      4.4530      3.6650      6.7140      1.7700     78.3900
    220      3.4770      3.1270      6.7510      0.0100     78.3900
    221      4.3750      5.0360      7.1710      1.5900     78.3900
    222      3.0100      5.8040      7.0060      2.1000     78.3900
    223      1.8940      4.8910      7.3420      1.5900     78.3900
    224      3.0520      7.0780      7.7570      1.5900     78.3900
    225      2.9420      6.1120      5.4670      1.5900     78.3900
    226      3.9450      6.9420      4.8390      1.7700     78.3900
    227      4.9760      6.5760      5.0430      0.0100     78.3900
    228      3.8830      7.9850      5.2310      0.0100     78.3900
    229      3.7450      6.9900      3.3180      1.7700     78.3900
    230      4.4720      7.6900      2.8530      0.0100     78.3900
    231      3.9900      5.6760      2.7310      1.5900     78.3900
    232      3.0660      5.4470      1.6730      1.7700     78.3900
    233      3.6810      5.2240      0.7700      0.0100     78.3900
    234      2.1600      4.2980      1.9710      1.6800     78.3900
    235      1.9740      3.8600      3.2630      1.7700     78.3900
    236      2.5420      4.3920      4.0230      0.0100     78.3900
    237      1.5160      3.6810      0.9190      1.7700     78.3900
    238      1.6450      4.0450     -0.2410      1.5900     78.3900
    239      0.7170      2.6230      1.2750      1.6800     78.3900
    240      0.2470      2.1620      0.5040      0.0100     78.3900
    241      0.5000      2.1200      2.5400      1.7700     78.3900
    242     -0.2290      1.1420      2.6960      1.5900     78.3900
    243      1.1950      2.8170      3.5780      1.7700     78.3900
    244      1.1030      2.4650      4.6030      0.0100     78.3900
    245      2.3030      6.7480      1.4510      1.7700     78.3900
    246      1.2550      6.5600      1.1350      0.0100     78.3900
    247      2.9620      7.5460      0.4760      1.5900     78.3900
    248      2.5620      8.4320      0.4750      0.0100     78.3900
    249      2.3400      7.3700      2.8450      1.7700     78.3900
    250      1.6000      6.8710      3.5100      0.0100     78.3900
    251      2.1680      8.7980      2.8670      1.5900     78.3900
    252      1.2660      9.0200      2.5850      0.0100     78.3900

 CREATION OF A NEW CAVITY WITH THE ORIGINAL SPHERE
 SIZES FOR THE COMPUTATION OF THE CAVITATION ENERGY.

     INPUT FOR CAVITY DEFINITION 
     ---------------------------
   ATOM               COORDINATES                RADIUS       EPS
      1     -4.8780     -4.2940     -5.8340      0.0100     78.3900
      2     -4.2530     -3.5490     -5.7650      1.5900     78.3900
      3     -4.2960     -2.8600     -7.0220      1.7700     78.3900
      4     -5.3380     -2.5200     -7.2170      0.0100     78.3900
      5     -4.0010     -3.5670     -7.8260      0.0100     78.3900
      6     -3.3600     -1.6500     -7.0660      1.7700     78.3900
      7     -3.3850     -1.1610     -8.0630      0.0100     78.3900
      8     -3.7760     -0.6630     -6.0790      1.5900     78.3900
      9     -2.6280     -0.0650     -5.5040      1.7700     78.3900
     10     -2.7230      1.0320     -5.6760      0.0100     78.3900
     11     -2.5670     -0.3120     -4.0620      1.6800     78.3900
     12     -2.1230     -0.1710     -1.9140      1.7700     78.3900
     13     -2.9940     -1.2420     -2.0590      1.6800     78.3900
     14     -3.2380     -1.2800     -3.3470      1.7700     78.3900
     15     -3.8940     -1.9980     -3.8450      0.0100     78.3900
     16     -0.6580      1.4370     -0.9850      1.6800     78.3900
     17     -0.4540      1.8600     -2.2370      1.7700     78.3900
     18      0.2240      2.7150     -2.3340      0.0100     78.3900
     19     -1.0270      1.4510     -3.3760      1.6800     78.3900
     20     -1.8450      0.4070     -3.1420      1.7700     78.3900
     21     -1.5080      0.3990     -0.7810      1.7700     78.3900
     22     -1.7400     -0.0220      0.4770      1.6800     78.3900
     23     -2.3270     -0.8130      0.6650      0.0100     78.3900
     24     -1.2220      0.3680      1.2420      0.0100     78.3900
     25     -1.4150     -0.5880     -6.2460      1.7700     78.3900
     26     -0.5160     -0.6660     -5.6010      0.0100     78.3900
     27     -1.1350      0.2520     -7.3460      1.5900     78.3900
     28     -0.4120     -0.1610     -7.8370      0.0100     78.3900
     29     -1.9000     -1.9580     -6.7090      1.7700     78.3900
     30     -1.9210     -2.6640     -5.8450      0.0100     78.3900
     31     -1.2240     -2.5030     -7.8680      1.5900     78.3900
     32      0.0450     -3.4140     -7.6340      2.1000     78.3900
     33     -0.2940     -4.4500     -6.6330      1.5900     78.3900
     34      0.5120     -3.9010     -8.9490      1.5900     78.3900
     35      1.1100     -2.4380     -7.0160      1.5900     78.3900
     36      1.8040     -1.4960     -7.8650      1.7700     78.3900
     37      1.0900     -0.8220     -8.3940      0.0100     78.3900
     38      2.4070     -2.0290     -8.6410      0.0100     78.3900
     39      2.7720     -0.6260     -7.0520      1.7700     78.3900
     40      3.2260      0.1600     -7.6970      0.0100     78.3900
     41      2.0640      0.0480     -5.9690      1.5900     78.3900
     42      2.9140      0.1260     -4.8280      1.7700     78.3900
     43      3.0040      1.2180     -4.6110      0.0100     78.3900
     44      2.3520     -0.5610     -3.6310      1.6800     78.3900
     45      1.3940     -1.5390     -3.7750      1.7700     78.3900
     46      1.0890     -1.7580     -4.8000      0.0100     78.3900
     47      0.8540     -2.1470     -2.7100      1.7700     78.3900
     48      0.0730     -2.9000     -2.8020      0.0100     78.3900
     49      2.8070     -0.2200     -2.3580      1.7700     78.3900
     50      3.6730      0.6620     -2.2410      1.5900     78.3900
     51      2.2880     -0.8400     -1.2750      1.6800     78.3900
     52      1.3270     -1.7670     -1.4200      1.7700     78.3900
     53      0.8070     -2.3250     -0.3300      1.6800     78.3900
     54      1.1420     -2.0290      0.5680      0.0100     78.3900
     55      0.1100     -3.0420     -0.3710      0.0100     78.3900
     56      4.2760     -0.4160     -5.2290      1.7700     78.3900
     57      4.7930     -0.9380     -4.3950      0.0100     78.3900
     58      5.0930      0.6350     -5.7140      1.5900     78.3900
     59      5.8420      0.2280     -6.1770      0.0100     78.3900
     60      3.8970     -1.3870     -6.3390      1.7700     78.3900
     61      3.4190     -2.2860     -5.8820      0.0100     78.3900
     62      4.9780     -1.6840     -7.2540      1.5900     78.3900
     63      5.3830     -3.1780     -7.5550      2.1000     78.3900
     64      4.4840     -4.1110     -6.8470      1.5900     78.3900
     65      5.4790     -3.3570     -9.0260      1.5900     78.3900
     66      6.8290     -3.2890     -6.9410      1.5900     78.3900
     67      8.0020     -2.8340     -7.6580      1.7700     78.3900
     68      8.3070     -1.8240     -7.2940      0.0100     78.3900
     69      7.8260     -2.7410     -8.7580      0.0100     78.3900
     70      9.1570     -3.8190     -7.4300      1.7700     78.3900
     71      8.8650     -4.8590     -7.6970      0.0100     78.3900
     72     10.2700     -3.4510     -8.2900      1.5900     78.3900
     73     11.5010     -3.6520     -7.6010      1.7700     78.3900
     74     12.0820     -4.3770     -8.2180      0.0100     78.3900
     75     12.2510     -2.3730     -7.4560      1.6800     78.3900
     76     11.5790     -1.1690     -7.4180      1.7700     78.3900
     77     10.4920     -1.2320     -7.4780      0.0100     78.3900
     78     13.6280     -2.4150     -7.3780      1.7700     78.3900
     79     14.2590     -3.4640     -7.4100      1.5900     78.3900
     80     14.2350     -1.1870     -7.2640      1.6800     78.3900
     81     15.2440     -1.1990     -7.2160      0.0100     78.3900
     82     13.6280      0.0520     -7.2480      1.7700     78.3900
     83     14.3080      1.0760     -7.1750      1.5900     78.3900
     84     12.2020      0.0130     -7.3320      1.7700     78.3900
     85     11.6470      0.9480     -7.3230      0.0100     78.3900
     86     11.1760     -4.2930     -6.2600      1.7700     78.3900
     87     11.8540     -3.9440     -5.4480      0.0100     78.3900
     88     11.2420     -5.7050     -6.3570      1.5900     78.3900
     89     10.8740     -6.0740     -5.5390      0.0100     78.3900
     90      9.7480     -3.8090     -6.0220      1.7700     78.3900
     91      9.7510     -2.7430     -5.7010      0.0100     78.3900
     92      8.9590     -4.6520     -5.1600      1.5900     78.3900
     93      9.0750     -4.4540     -3.6150      2.1000     78.3900
     94      8.7050     -5.7300     -2.9650      1.5900     78.3900
     95     10.4140     -3.9160     -3.3020      1.5900     78.3900
     96      7.9670     -3.3820     -3.2970      1.5900     78.3900
     97      8.1870     -1.9570     -3.3600      1.7700     78.3900
     98      7.3320     -1.5030     -3.9110      0.0100     78.3900
     99      9.1100     -1.6960     -3.9270      0.0100     78.3900
    100      8.2730     -1.2700     -1.9760      1.7700     78.3900
    101      8.5640     -0.2040     -2.1090      0.0100     78.3900
    102      6.9700     -1.2810     -1.3250      1.5900     78.3900
    103      7.0450     -2.0500     -0.1350      1.7700     78.3900
    104      7.2450     -1.3210      0.6850      0.0100     78.3900
    105      5.8160     -2.8420      0.0670      1.6800     78.3900
    106      5.3450     -3.6040     -0.9690      1.7700     78.3900
    107      5.9550     -3.5680     -1.8760      0.0100     78.3900
    108      5.1550     -2.7840      1.2640      1.7700     78.3900
    109      5.5290     -2.0860      2.1940      1.5900     78.3900
    110      4.0310     -3.5610      1.3460      1.6800     78.3900
    111      3.5450     -3.5540      2.2280      0.0100     78.3900
    112      3.4980     -4.3550      0.3570      1.7700     78.3900
    113      2.4670     -4.9920      0.5690      1.5900     78.3900
    114      4.2310     -4.3440     -0.8730      1.7700     78.3900
    115      3.8710     -4.9450     -1.7030      0.0100     78.3900
    116      8.2530     -2.9230     -0.2910      1.7700     78.3900
    117      8.0260     -3.7480     -0.9930      0.0100     78.3900
    118      8.6560     -3.5170      0.9190      1.5900     78.3900
    119      9.6310     -3.5410      0.9830      0.0100     78.3900
    120      9.2210     -1.9310     -0.9490      1.7700     78.3900
    121      9.9970     -2.4820     -1.5180      0.0100     78.3900
    122      9.8260     -0.9330     -0.0940      1.5900     78.3900
    123     10.9970     -1.3360      0.8630      2.1000     78.3900
    124     11.5820     -2.5750      0.3220      1.5900     78.3900
    125     11.9380     -0.2030      1.0140      1.5900     78.3900
    126     10.2510     -1.5750      2.2270      1.5900     78.3900
    127     10.8170     -2.2620      3.3540      1.7700     78.3900
    128     10.4330     -1.7840      4.2840      0.0100     78.3900
    129     11.9240     -2.1720      3.3810      0.0100     78.3900
    130     10.4070     -3.7420      3.4040      1.7700     78.3900
    131      9.2990     -3.8350      3.4420      0.0100     78.3900
    132     10.8700     -4.4400      2.2130      1.5900     78.3900
    133     11.4240     -5.6820      2.5490      1.7700     78.3900
    134     10.8780     -6.4100      1.9070      0.0100     78.3900
    135     12.8770     -5.7510      2.2410      1.6800     78.3900
    136     13.6600     -4.6300      2.3910      1.7700     78.3900
    137     13.1460     -3.7270      2.7220      0.0100     78.3900
    138     14.9680     -4.6470      2.1070      1.7700     78.3900
    139     15.6020     -3.7690      2.2170      0.0100     78.3900
    140     13.4480     -6.9360      1.7790      1.7700     78.3900
    141     12.7280     -7.9390      1.6400      1.5900     78.3900
    142     14.7680     -6.9700      1.4740      1.6800     78.3900
    143     15.5230     -5.8650      1.6220      1.7700     78.3900
    144     16.8150     -5.9190      1.3040      1.6800     78.3900
    145     17.1970     -6.7810      0.9660      0.0100     78.3900
    146     17.4130     -5.1190      1.3620      0.0100     78.3900
    147     11.0800     -5.9500      4.0020      1.7700     78.3900
    148     11.8510     -6.5570      4.5220      0.0100     78.3900
    149      9.8200     -6.5960      4.0730      1.5900     78.3900
    150      9.1580     -6.0090      3.6740      0.0100     78.3900
    151     11.0190     -4.5230      4.5630      1.7700     78.3900
    152     12.0510     -4.1210      4.6840      0.0100     78.3900
    153     10.2040     -4.3400      5.7400      1.5900     78.3900
    154     10.8590     -4.4480      7.1630      2.1000     78.3900
    155     10.1150     -5.4290      7.9850      1.5900     78.3900
    156     12.3160     -4.6840      7.0360      1.5900     78.3900
    157     10.6730     -3.0240      7.7980      1.5900     78.3900
    158      9.3950     -2.4380      8.1210      1.7700     78.3900
    159      8.8730     -3.0340      8.9050      0.0100     78.3900
    160      8.7500     -2.4200      7.2130      0.0100     78.3900
    161      9.5400     -0.9780      8.6180      1.7700     78.3900
    162      9.9720     -0.9500      9.6370      0.0100     78.3900
    163     10.4790     -0.2640      7.7500      1.5900     78.3900
    164     10.0270      1.0500      7.5070      1.7700     78.3900
    165     10.8540      1.7130      7.8410      0.0100     78.3900
    166      9.7690      1.2910      6.0660      1.6800     78.3900
    167      8.9690      0.5760      5.2010      1.7700     78.3900
    168      6.6200     -1.9100      4.7500      1.6800     78.3900
    169      6.0060     -2.2220      4.0280      0.0100     78.3900
    170      6.5560     -2.2840      5.6720      0.0100     78.3900
    171      8.2480     -0.5080      5.5050      1.6800     78.3900
    172      7.4680     -0.9140      4.5360      1.7700     78.3900
    173      7.4510     -0.3280      3.3010      1.6800     78.3900
    174      6.8560     -0.7270      2.5990      0.0100     78.3900
    175      8.2430      0.7510      2.9150      1.7700     78.3900
    176      8.1940      1.2380      1.7830      1.5900     78.3900
    177      9.0490      1.2220      3.9900      1.7700     78.3900
    178      9.9130      2.3100      4.0650      1.6800     78.3900
    179     10.3210      2.3070      5.3160      1.7700     78.3900
    180     11.0190      3.0300      5.7470      0.0100     78.3900
    181      8.8070      1.2940      8.3780      1.7700     78.3900
    182      8.0590      1.9380      7.8740      0.0100     78.3900
    183      9.1940      1.8870      9.6050      1.5900     78.3900
    184      8.4260      1.8310     10.1960      0.0100     78.3900
    185      8.2540     -0.1140      8.5880      1.7700     78.3900
    186      7.6820     -0.4410      7.7060      0.0100     78.3900
    187      7.4540     -0.2820      9.7740      1.5900     78.3900
    188      5.8940      0.0050      9.6960      2.1000     78.3900
    189      5.3390     -0.5780      8.4560      1.5900     78.3900
    190      5.3070     -0.5000     10.9620      1.5900     78.3900
    191      5.7890      1.5870      9.6930      1.5900     78.3900
    192      4.8020      2.2890      8.8960      1.7700     78.3900
    193      4.4000      3.1440      9.4860      0.0100     78.3900
    194      3.9280      1.6470      8.6320      0.0100     78.3900
    195      5.4070      2.8610      7.6080      1.7700     78.3900
    196      6.2950      3.4920      7.8370      0.0100     78.3900
    197      5.8470      1.7710      6.7680      1.5900     78.3900
    198      5.5330      2.0400      5.4220      1.7700     78.3900
    199      6.4720      1.9010      4.8430      0.0100     78.3900
    200      4.5060      1.1150      4.9230      1.6800     78.3900
    201      4.1730      0.9120      3.6120      1.7700     78.3900
    202      4.6250      1.6080      0.2560      1.6800     78.3900
    203      4.3160      1.2180     -0.6140      0.0100     78.3900
    204      5.3790      2.2610      0.2680      0.0100     78.3900
    205      4.7230      1.5320      2.5560      1.6800     78.3900
    206      4.2170      1.1070      1.4020      1.7700     78.3900
    207      3.2420      0.1500      1.3150      1.6800     78.3900
    208      2.9420     -0.1400      0.3960      0.0100     78.3900
    209      2.6610     -0.5120      2.3870      1.7700     78.3900
    210      1.7920     -1.3730      2.2170      1.5900     78.3900
    211      3.1830     -0.0520      3.6250      1.7700     78.3900
    212      2.8870     -0.4410      4.9240      1.6800     78.3900
    213      3.7040      0.2710      5.6670      1.7700     78.3900
    214      3.7900      0.2150      6.7580      0.0100     78.3900
    215      5.1000      3.4810      5.3470      1.7700     78.3900
    216      4.3820      3.6680      4.5220      0.0100     78.3900
    217      6.2360      4.3120      5.1840      1.5900     78.3900
    218      5.9210      5.2200      5.2500      0.0100     78.3900
    219      4.4530      3.6650      6.7140      1.7700     78.3900
    220      3.4770      3.1270      6.7510      0.0100     78.3900
[...]
 ...... END OF RHF CALCULATION ......
 CPU     0: STEP CPU TIME=    59.74 TOTAL CPU TIME=        539.3 (      9.0 MIN)
 TOTAL WALL CLOCK TIME=       1114.9 SECONDS, CPU UTILIZATION IS    48.38%
 DONE PCM POT.
 CPU     0: STEP CPU TIME=     0.37 TOTAL CPU TIME=        539.7 (      9.0 MIN)
 TOTAL WALL CLOCK TIME=       1115.9 SECONDS, CPU UTILIZATION IS    48.37%

 Iter=  2 iFrag=      7 EFMO= -1507.391358485, DD= 0.061063189, DE=-0.394318331


 RHF      monomer      6 corr= NONE       , L1=   386, L0=   362 ID=      3


 AO spaces for     6     0     0 n-mer: L1=   386, L0=   362

 DIRECT SCF CALCULATION, SCHWRZ=T   FDIFF=T,  DIRTHR=  0.00E+00 NITDIR=10

                                                                                   NONZERO     BLOCKS
 ITER EX DEM     TOTAL ENERGY        E CHANGE  DENSITY CHANGE     ORB. GRAD      INTEGRALS    SKIPPED
   1  0  0    -1464.2985634766 -1464.2985634766   0.043827645   0.000000000     1022045248   16539309
          ---------------START SECOND ORDER SCF---------------
   2  1  0    -1464.3183130614    -0.0197495848   0.027057225   0.004009158      978982592   17592487
   3  2  0    -1464.3205117787    -0.0021987172   0.009248229   0.002333205      940355251   18097358
   4  3  0    -1464.3206418614    -0.0001300828   0.001852019   0.000384091      892827764   18614198
   5  4  0    -1464.3205606931     0.0000811683   0.000884695   0.000374318      859081636   18931582
   6  5  0    -1464.3205190809     0.0000416123   0.000230950   0.000131241      813327688   19356644
   7  6  0    -1464.3205398383    -0.0000207574   0.000119700   0.000040720      768722306   19730418
   8  7  0    -1464.3205403742    -0.0000005359   0.000056525   0.000018929      726549370   20073593
   9  8  0    -1464.3205375168     0.0000028574   0.000017593   0.000004948      679543012   20499894
  10  9  0    -1464.3205365764     0.0000009405   0.000006201   0.000001888      635150357   20836139
  11 10  0    -1464.3205365458     0.0000000306   0.000002421   0.000000634      574636942   21319531
  12 11  0    -1464.3205366373    -0.0000000915   0.000000604   0.000000348      527961391   21716403
  13 12  0    -1464.3205366296     0.0000000077   0.000000219   0.000000116      469236820   22156912
  14 13  0    -1464.3205366300    -0.0000000004   0.000000098   0.000000056      429539374   22479967

          -----------------
          DENSITY CONVERGED
          -----------------
     TIME TO FORM FOCK OPERATORS=      34.0 SECONDS (       2.4 SEC/ITER)
     FOCK TIME ON FIRST ITERATION=       3.5, LAST ITERATION=       1.4
     TIME TO SOLVE SCF EQUATIONS=       0.6 SECONDS (       0.0 SEC/ITER)

 FINAL RHF ENERGY IS    -1464.3205366300 AFTER  14 ITERATIONS
 ...... END OF RHF CALCULATION ......
 CPU     0: STEP CPU TIME=    50.51 TOTAL CPU TIME=        590.2 (      9.8 MIN)
 TOTAL WALL CLOCK TIME=       1219.3 SECONDS, CPU UTILIZATION IS    48.41%
 DONE PCM POT.
 CPU     0: STEP CPU TIME=     0.38 TOTAL CPU TIME=        590.6 (      9.8 MIN)
 TOTAL WALL CLOCK TIME=       1220.3 SECONDS, CPU UTILIZATION IS    48.40%

 Iter=  2 iFrag=      6 EFMO= -1507.470585685, DD= 0.051754539, DE=-0.378159741


 RHF      monomer      5 corr= NONE       , L1=   341, L0=   320 ID=      4


 AO spaces for     5     0     0 n-mer: L1=   341, L0=   320

 DIRECT SCF CALCULATION, SCHWRZ=T   FDIFF=T,  DIRTHR=  0.00E+00 NITDIR=10

                                                                                   NONZERO     BLOCKS
 ITER EX DEM     TOTAL ENERGY        E CHANGE  DENSITY CHANGE     ORB. GRAD      INTEGRALS    SKIPPED
   1  0  0    -1327.4884679066 -1327.4884679066   0.072776859   0.000000000      631993402   10609521
          ---------------START SECOND ORDER SCF---------------
   2  1  0    -1327.5082353234    -0.0197674169   0.030732335   0.004433203      609766128   11257635
   3  2  0    -1327.5099954183    -0.0017600949   0.011794530   0.003573928      589811090   11568177
   4  3  0    -1327.5097948441     0.0002005743   0.003174693   0.000675972      566036372   11866306
   5  4  0    -1327.5095552016     0.0002396425   0.000828669   0.000396408      547612012   12064115
   6  5  0    -1327.5095106632     0.0000445384   0.000318620   0.000130546      524322012   12322831
   7  6  0    -1327.5095287701    -0.0000181069   0.000131859   0.000052970      499665425   12550153
   8  7  0    -1327.5095318430    -0.0000030729   0.000031657   0.000020453      474798014   12802624
   9  8  0    -1327.5095297264     0.0000021166   0.000015002   0.000006604      442453275   13111335
  10  9  0    -1327.5095287588     0.0000009677   0.000003551   0.000001928      420459298   13312094
  11 10  0    -1327.5095287638    -0.0000000050   0.000001988   0.000001122      378571475   13709072
  12 11  0    -1327.5095288684    -0.0000001047   0.000000798   0.000000389      359952258   13868689
  13 12  0    -1327.5095288790    -0.0000000105   0.000000267   0.000000111      319045824   14225449
  14 13  0    -1327.5095288770     0.0000000019   0.000000116   0.000000027      294112571   14438422
  15 14  0    -1327.5095288764     0.0000000006   0.000000000   0.000000008      266275185   14675200

          -----------------
          DENSITY CONVERGED
          -----------------
     TIME TO FORM FOCK OPERATORS=      22.5 SECONDS (       1.5 SEC/ITER)
     FOCK TIME ON FIRST ITERATION=       2.4, LAST ITERATION=       0.9
     TIME TO SOLVE SCF EQUATIONS=       0.4 SECONDS (       0.0 SEC/ITER)

 FINAL RHF ENERGY IS    -1327.5095288764 AFTER  15 ITERATIONS
 ...... END OF RHF CALCULATION ......
 CPU     0: STEP CPU TIME=    41.58 TOTAL CPU TIME=        632.2 (     10.5 MIN)
 TOTAL WALL CLOCK TIME=       1307.1 SECONDS, CPU UTILIZATION IS    48.37%
 DONE PCM POT.
 CPU     0: STEP CPU TIME=     0.29 TOTAL CPU TIME=        632.5 (     10.5 MIN)
 TOTAL WALL CLOCK TIME=       1308.0 SECONDS, CPU UTILIZATION IS    48.36%

 Iter=  2 iFrag=      5 EFMO= -1360.670140189, DD= 0.083526896, DE=-0.394108671


 RHF      monomer      2 corr= NONE       , L1=   341, L0=   320 ID=      5


 AO spaces for     2     0     0 n-mer: L1=   341, L0=   320

 DIRECT SCF CALCULATION, SCHWRZ=T   FDIFF=T,  DIRTHR=  0.00E+00 NITDIR=10

                                                                                   NONZERO     BLOCKS
 ITER EX DEM     TOTAL ENERGY        E CHANGE  DENSITY CHANGE     ORB. GRAD      INTEGRALS    SKIPPED
   1  0  0    -1330.0715529466 -1330.0715529466   0.066646483   0.000000000      629690662   10828519
          ---------------START SECOND ORDER SCF---------------
   2  1  0    -1330.0976185724    -0.0260656258   0.030549707   0.007058480      602541769   11468347
   3  2  0    -1330.0997960559    -0.0021774835   0.009961993   0.002293072      579099692   11786381
   4  3  0    -1330.0998892638    -0.0000932079   0.002075179   0.000345925      551681958   12076225
   5  4  0    -1330.0997708143     0.0001184495   0.000499468   0.000178331      530901762   12297083
   6  5  0    -1330.0997760643    -0.0000052500   0.000216688   0.000060137      501356990   12595647
   7  6  0    -1330.0997921688    -0.0000161045   0.000087398   0.000030140      474901187   12838039
   8  7  0    -1330.0997929485    -0.0000007796   0.000024957   0.000013718      449351106   13085499
   9  8  0    -1330.0997915461     0.0000014023   0.000011651   0.000004295      419197098   13359751
  10  9  0    -1330.0997913398     0.0000002063   0.000003156   0.000000894      395380509   13571867
  11 10  0    -1330.0997913918    -0.0000000519   0.000001547   0.000000283      360475329   13887123
  12 11  0    -1330.0997914406    -0.0000000488   0.000000396   0.000000139      334464605   14111784
  13 12  0    -1330.0997914340     0.0000000066   0.000000104   0.000000033      293977512   14469683
  14 13  0    -1330.0997914325     0.0000000015   0.000000034   0.000000010      263524792   14726694

          -----------------
          DENSITY CONVERGED
          -----------------
     TIME TO FORM FOCK OPERATORS=      21.3 SECONDS (       1.5 SEC/ITER)
     FOCK TIME ON FIRST ITERATION=       2.3, LAST ITERATION=       0.9
     TIME TO SOLVE SCF EQUATIONS=       0.4 SECONDS (       0.0 SEC/ITER)

 FINAL RHF ENERGY IS    -1330.0997914325 AFTER  14 ITERATIONS
 ...... END OF RHF CALCULATION ......
 CPU     0: STEP CPU TIME=    40.04 TOTAL CPU TIME=        672.5 (     11.2 MIN)
 TOTAL WALL CLOCK TIME=       1395.2 SECONDS, CPU UTILIZATION IS    48.20%
 DONE PCM POT.
 CPU     0: STEP CPU TIME=     0.28 TOTAL CPU TIME=        672.8 (     11.2 MIN)
 TOTAL WALL CLOCK TIME=       1396.0 SECONDS, CPU UTILIZATION IS    48.19%

 Iter=  2 iFrag=      2 EFMO= -1360.667733879, DD= 0.076693544, DE=-0.453177320


 RHF      monomer      3 corr= NONE       , L1=   339, L0=   318 ID=      6


 AO spaces for     3     0     0 n-mer: L1=   339, L0=   318

 DIRECT SCF CALCULATION, SCHWRZ=T   FDIFF=T,  DIRTHR=  0.00E+00 NITDIR=10

                                                                                   NONZERO     BLOCKS
 ITER EX DEM     TOTAL ENERGY        E CHANGE  DENSITY CHANGE     ORB. GRAD      INTEGRALS    SKIPPED
   1  0  0    -1351.5275700177 -1351.5275700177   0.094476874   0.000000000      646594778    9480709
          ---------------START SECOND ORDER SCF---------------
   2  1  0    -1351.5479768737    -0.0204068560   0.026592908   0.003974296      623722532   10115494
   3  2  0    -1351.5494209814    -0.0014441078   0.012144223   0.002487269      597639419   10477774
   4  3  0    -1351.5492594251     0.0001615563   0.002278669   0.000390600      577232231   10712130
   5  4  0    -1351.5491312030     0.0001282221   0.000607553   0.000168693      551542065   10989633
   6  5  0    -1351.5491313113    -0.0000001083   0.000154191   0.000093159      525949626   11240343
   7  6  0    -1351.5491482511    -0.0000169398   0.000079827   0.000035619      500921930   11484724
   8  7  0    -1351.5491454344     0.0000028167   0.000037945   0.000018753      468592865   11794044
   9  8  0    -1351.5491433884     0.0000020459   0.000013681   0.000003971      445984903   12000409
  10  9  0    -1351.5491431063     0.0000002822   0.000003077   0.000001655      414351337   12274523
  11 10  0    -1351.5491432741    -0.0000001678   0.000001829   0.000000390      385366604   12523192
  12 11  0    -1351.5491433374    -0.0000000633   0.000000394   0.000000135      352961578   12810502
  13 12  0    -1351.5491433315     0.0000000059   0.000000175   0.000000041      311968527   13146024
  14 13  0    -1351.5491433323    -0.0000000009   0.000000062   0.000000016      282947315   13389707

          -----------------
          DENSITY CONVERGED
          -----------------
     TIME TO FORM FOCK OPERATORS=      21.9 SECONDS (       1.6 SEC/ITER)
     FOCK TIME ON FIRST ITERATION=       2.3, LAST ITERATION=       1.0
     TIME TO SOLVE SCF EQUATIONS=       0.4 SECONDS (       0.0 SEC/ITER)

 FINAL RHF ENERGY IS    -1351.5491433323 AFTER  14 ITERATIONS
 ...... END OF RHF CALCULATION ......
 CPU     0: STEP CPU TIME=    36.55 TOTAL CPU TIME=        709.3 (     11.8 MIN)
 TOTAL WALL CLOCK TIME=       1469.4 SECONDS, CPU UTILIZATION IS    48.28%
 DONE PCM POT.
 CPU     0: STEP CPU TIME=     0.34 TOTAL CPU TIME=        709.7 (     11.8 MIN)
 TOTAL WALL CLOCK TIME=       1470.1 SECONDS, CPU UTILIZATION IS    48.27%

 Iter=  2 iFrag=      3 EFMO= -1380.546261828, DD= 0.108799905, DE=-0.413211288


 RHF      monomer      4 corr= NONE       , L1=   339, L0=   318 ID=      7


 AO spaces for     4     0     0 n-mer: L1=   339, L0=   318

 DIRECT SCF CALCULATION, SCHWRZ=T   FDIFF=T,  DIRTHR=  0.00E+00 NITDIR=10

                                                                                   NONZERO     BLOCKS
 ITER EX DEM     TOTAL ENERGY        E CHANGE  DENSITY CHANGE     ORB. GRAD      INTEGRALS    SKIPPED
   1  0  0    -1341.7402041539 -1341.7402041539   0.055443037   0.000000000      645659288    9723175
          ---------------START SECOND ORDER SCF---------------
   2  1  0    -1341.7623017606    -0.0220976066   0.029054330   0.005013683      619914762   10358775
   3  2  0    -1341.7637105974    -0.0014088368   0.008985917   0.002351683      595534785   10678366
   4  3  0    -1341.7640274940    -0.0003168966   0.001569857   0.000301001      567841686   10959329
   5  4  0    -1341.7639472119     0.0000802821   0.000492563   0.000174458      546555493   11165144
   6  5  0    -1341.7639415781     0.0000056338   0.000153431   0.000049970      519005698   11424808
   7  6  0    -1341.7639477524    -0.0000061743   0.000060890   0.000017657      487212182   11704586
   8  7  0    -1341.7639474813     0.0000002711   0.000018753   0.000009180      456446968   11975329
   9  8  0    -1341.7639469942     0.0000004871   0.000013365   0.000003356      422367155   12271850
  10  9  0    -1341.7639467280     0.0000002662   0.000002226   0.000001166      400740296   12454912
  11 10  0    -1341.7639467513    -0.0000000233   0.000001105   0.000000363      360616186   12784644
  12 11  0    -1341.7639467734    -0.0000000222   0.000000440   0.000000118      339399601   12961410
  13 12  0    -1341.7639467698     0.0000000036   0.000000111   0.000000031      296223156   13328780
  14 13  0    -1341.7639467698    -0.0000000001   0.000000044   0.000000015      266354356   13556667

          -----------------
          DENSITY CONVERGED
          -----------------
     TIME TO FORM FOCK OPERATORS=      22.0 SECONDS (       1.6 SEC/ITER)
     FOCK TIME ON FIRST ITERATION=       2.2, LAST ITERATION=       0.9
     TIME TO SOLVE SCF EQUATIONS=       0.4 SECONDS (       0.0 SEC/ITER)

 FINAL RHF ENERGY IS    -1341.7639467698 AFTER  14 ITERATIONS
 ...... END OF RHF CALCULATION ......
 CPU     0: STEP CPU TIME=    42.54 TOTAL CPU TIME=        752.2 (     12.5 MIN)
 TOTAL WALL CLOCK TIME=       1561.2 SECONDS, CPU UTILIZATION IS    48.18%
 DONE PCM POT.
 CPU     0: STEP CPU TIME=     0.25 TOTAL CPU TIME=        752.5 (     12.5 MIN)
 TOTAL WALL CLOCK TIME=       1562.0 SECONDS, CPU UTILIZATION IS    48.17%

 Iter=  2 iFrag=      4 EFMO= -1380.513142120, DD= 0.062759856, DE=-0.396043538


 RHF      monomer      8 corr= NONE       , L1=   262, L0=   246 ID=      8


 AO spaces for     8     0     0 n-mer: L1=   262, L0=   246

 DIRECT SCF CALCULATION, SCHWRZ=T   FDIFF=T,  DIRTHR=  0.00E+00 NITDIR=10

                                                                                   NONZERO     BLOCKS
 ITER EX DEM     TOTAL ENERGY        E CHANGE  DENSITY CHANGE     ORB. GRAD      INTEGRALS    SKIPPED
   1  0  0     -784.9277834847  -784.9277834847   0.048467149   0.000000000      323721704    3476086
          ---------------START SECOND ORDER SCF---------------
   2  1  0     -784.9351310471    -0.0073475624   0.016286033   0.003131052      311853048    3800909
   3  2  0     -784.9359879311    -0.0008568840   0.006781633   0.003689858      303438023    3945156
   4  3  0     -784.9360531412    -0.0000652101   0.001693806   0.001015002      291784345    4104671
   5  4  0     -784.9358892464     0.0001638948   0.001346403   0.000265910      284441055    4195732
   6  5  0     -784.9358706398     0.0000186066   0.000407350   0.000109454      275259834    4312212
   7  6  0     -784.9358862678    -0.0000156279   0.000146398   0.000030473      263828429    4443877
   8  7  0     -784.9358930458    -0.0000067781   0.000033402   0.000017236      252975111    4558859
   9  8  0     -784.9358941334    -0.0000010875   0.000012278   0.000004656      237268088    4745581
  10  9  0     -784.9358937982     0.0000003351   0.000003162   0.000001515      223577686    4896669
  11 10  0     -784.9358936895     0.0000001087   0.000001414   0.000000404      206503574    5093116
  12 11  0     -784.9358937231    -0.0000000336   0.000000401   0.000000178      191012953    5265440
  13 12  0     -784.9358937427    -0.0000000196   0.000000170   0.000000064      173285494    5454618
  14 13  0     -784.9358937410     0.0000000017   0.000000063   0.000000022      160470046    5590945

          -----------------
          DENSITY CONVERGED
          -----------------
     TIME TO FORM FOCK OPERATORS=      11.9 SECONDS (       0.8 SEC/ITER)
     FOCK TIME ON FIRST ITERATION=       1.2, LAST ITERATION=       0.5
     TIME TO SOLVE SCF EQUATIONS=       0.2 SECONDS (       0.0 SEC/ITER)

 FINAL RHF ENERGY IS     -784.9358937410 AFTER  14 ITERATIONS
 ...... END OF RHF CALCULATION ......
 CPU     0: STEP CPU TIME=    22.20 TOTAL CPU TIME=        774.7 (     12.9 MIN)
 TOTAL WALL CLOCK TIME=       1608.8 SECONDS, CPU UTILIZATION IS    48.15%
 DONE PCM POT.
 CPU     0: STEP CPU TIME=     0.19 TOTAL CPU TIME=        774.9 (     12.9 MIN)
 TOTAL WALL CLOCK TIME=       1609.4 SECONDS, CPU UTILIZATION IS    48.15%

 Iter=  2 iFrag=      8 EFMO=  -815.702362814, DD= 0.043570970, DE= 0.001513122

 CPU     0: STEP CPU TIME=     0.00 TOTAL CPU TIME=        774.9 (     12.9 MIN)
 TOTAL WALL CLOCK TIME=       1609.4 SECONDS, CPU UTILIZATION IS    48.15%

  Monomer SCF synchronisation on iteration   2.1 took     0.0 s.
 CPU     0: STEP CPU TIME=     0.00 TOTAL CPU TIME=        774.9 (     12.9 MIN)
 TOTAL WALL CLOCK TIME=       1609.4 SECONDS, CPU UTILIZATION IS    48.15%
 dmexch needs              2958226  words of memory.
 CPU     0: STEP CPU TIME=     0.01 TOTAL CPU TIME=        774.9 (     12.9 MIN)
 TOTAL WALL CLOCK TIME=       1609.4 SECONDS, CPU UTILIZATION IS    48.15%

 Data exchange of    979843 words took     0.0 s.

 Calculating apparent surface charges...
     Using       44075 words of memory.
 ASC ITERATION=   1 CONVERGED TO  0.537017E-02
 ASC ITERATION=   2 CONVERGED TO  0.555794E-01
 ASC ITERATION=   3 CONVERGED TO  0.680737E-01
 ASC ITERATION=   4 CONVERGED TO  0.100895E-01
 ASC ITERATION=   5 CONVERGED TO  0.500522E-02
 ASC ITERATION=   6 CONVERGED TO  0.195864E-02
 ASC ITERATION=   7 CONVERGED TO  0.101677E-02
 ASC ITERATION=   8 CONVERGED TO  0.310764E-03
 ASC ITERATION=   9 CONVERGED TO  0.185927E-03
 ASC ITERATION=  10 CONVERGED TO  0.153340E-03
 ASC ITERATION=  11 CONVERGED TO  0.157364E-03
 ASC ITERATION=  12 CONVERGED TO  0.433841E-04
 ASC ITERATION=  13 CONVERGED TO  0.230101E-04
 ASC ITERATION=  14 CONVERGED TO  0.130842E-04
 ASC ITERATION=  15 CONVERGED TO  0.715167E-05
 ASC ITERATION=  16 CONVERGED TO  0.517735E-05
 ASC ITERATION=  17 CONVERGED TO  0.325577E-05
 ASC ITERATION=  18 CONVERGED TO  0.159986E-05
 ASC ITERATION=  19 CONVERGED TO  0.121064E-05
 ASC ITERATION=  20 CONVERGED TO  0.663819E-06
 ASC ITERATION=  21 CONVERGED TO  0.491002E-06
 ASC ITERATION=  22 CONVERGED TO  0.285382E-06
 ASC ITERATION=  23 CONVERGED TO  0.122184E-06
 ASC ITERATION=  24 CONVERGED TO  0.780845E-07
 ASC ITERATION=  25 CONVERGED TO  0.477798E-07
 ASC ITERATION=  26 CONVERGED TO  0.261628E-07
 ASC ITERATION=  27 CONVERGED TO  0.137553E-07
 ASC ITERATION=  28 CONVERGED TO  0.856219E-08
 ASC ITERATION=  29 CONVERGED TO  0.429075E-08
 ASC ITERATION=  30 CONVERGED TO  0.220591E-08
 ASC ITERATION=  31 CONVERGED TO  0.130637E-08
 ASC ITERATION=  32 CONVERGED TO  0.777578E-09
 ASC ITERATION=  33 CONVERGED TO  0.462746E-09
 ASC ITERATION=  34 CONVERGED TO  0.279324E-09
 ASC ITERATION=  35 CONVERGED TO  0.159008E-09
 ASC ITERATION=  36 CONVERGED TO  0.672542E-10

 THE ASC EQUATIONS FOR PHASE=1 CONVERGED IN  36 ITERATIONS.

 PCM ASC=      6.8584276754 normalised to=      6.9107028958
 Nuclear factor=   1.0032052601, electronic factor=   1.0032291968

 CPU     0: STEP CPU TIME=     0.17 TOTAL CPU TIME=        775.0 (     12.9 MIN)
 TOTAL WALL CLOCK TIME=       1609.8 SECONDS, CPU UTILIZATION IS    48.15%


 ------------------------------------------------------------------------------
 FMO iter  2.1,      0 fragment(s) converged, maxD 0.108799905 maxE 0.453177320
 ------------------------------------------------------------------------------

 RHF      monomer      1 corr= NONE       , L1=   388, L0=   364 ID=      1

