‘1SZY_5_fmo_input.inp’ -> ‘/scratch/hazwong/820829/./1SZY_5_fmo_input.inp’
‘rungms’ -> ‘/scratch/hazwong/820829/./rungms’
‘gms-files.csh’ -> ‘/scratch/hazwong/820829/./gms-files.csh’
----- GAMESS execution script 'rungms' -----
This job is running on host gollum088.lsa.umich.edu
under operating system Linux at Fri Dec 6 00:37:13 EST 2019
Available scratch disk space (Kbyte units) at beginning of the job is
Filesystem     1K-blocks  Used Available Use% Mounted on
/dev/sda4      426933580 33432 426900148   1% /scratch
GAMESS temporary binary files will be written to /scratch/hazwong/820829/1SZY_5/usrc
GAMESS supplementary output files will be written to /scratch/hazwong/820829/1SZY_5/src
Copying input file 1SZY_5_fmo_input.inp to your run's scratch directory...
cp 1SZY_5_fmo_input.inp /scratch/hazwong/820829/1SZY_5/usrc/1SZY_5_fmo_input.F05
unset echo
This is a GDDI run, keeping various output files on local disks
setenv OUTPUT /scratch/hazwong/820829/1SZY_5/usrc/1SZY_5_fmo_input.F06
setenv PUNCH /scratch/hazwong/820829/1SZY_5/usrc/1SZY_5_fmo_input.F07
unset echo
 
Assuming a single but multicore node.
 
/export/apps/CentOS7/gamess/src/build//ddikick.x /export/apps/CentOS7/gamess/src/build//gamess.R3.x 1SZY_5_fmo_input -ddi 1 16 gollum088.lsa.umich.edu:cpus=16 -scr /scratch/hazwong/820829/1SZY_5/usrc

 Distributed Data Interface kickoff program.
 Initiating 16 compute processes on 1 nodes to run the following command:
 /export/apps/CentOS7/gamess/src/build//gamess.R3.x 1SZY_5_fmo_input 

          ******************************************************
          *         GAMESS VERSION = 30 SEP 2018 (R3)         *
          *             FROM IOWA STATE UNIVERSITY             *
          * M.W.SCHMIDT, K.K.BALDRIDGE, J.A.BOATZ, S.T.ELBERT, *
          *   M.S.GORDON, J.H.JENSEN, S.KOSEKI, N.MATSUNAGA,   *
          *          K.A.NGUYEN, S.J.SU, T.L.WINDUS,           *
          *       TOGETHER WITH M.DUPUIS, J.A.MONTGOMERY       *
          *         J.COMPUT.CHEM.  14, 1347-1363(1993)        *
          **************** 64 BIT LINUX VERSION ****************

  SINCE 1993, STUDENTS AND POSTDOCS WORKING AT IOWA STATE UNIVERSITY
  AND ALSO IN THEIR VARIOUS JOBS AFTER LEAVING ISU HAVE MADE IMPORTANT
  CONTRIBUTIONS TO THE CODE:
     IVANA ADAMOVIC, CHRISTINE AIKENS, YURI ALEXEEV, POOJA ARORA,
     ANDREY ASADCHEV, ROB BELL, PRADIPTA BANDYOPADHYAY, JONATHAN BENTZ,
     BRETT BODE, KURT BRORSEN, CALEB CARLIN, GALINA CHABAN, WEI CHEN,
     CHEOL HO CHOI, PAUL DAY, ALBERT DEFUSCO, NUWAN DESILVA, TIM DUDLEY,
     DMITRI FEDOROV, ALEX FINDLATER, GRAHAM FLETCHER, MARK FREITAG,
     KURT GLAESEMANN, ANASTASIA GUNINA,
     DAN KEMP, GRANT MERRILL, NORIYUKI MINEZAWA, JONATHAN MULLIN,
     TAKESHI NAGATA, SEAN NEDD, HEATHER NETZLOFF, BOSILJKA NJEGIC, RYAN OLSON,
     MIKE PAK, BUU PHAM,
     SPENCER PRUITT, LUKE ROSKOP, JIM SHOEMAKER, LYUDMILA SLIPCHENKO,
     TONY SMITH, SAROM SOK LEANG, JIE SONG, TETSUYA TAKETSUGU, SIMON WEBB,
     PENG XU, SOOHAENG YOO, FEDERICO ZAHARIEV

  ADDITIONAL CODE HAS BEEN PROVIDED BY COLLABORATORS IN OTHER GROUPS:
     IOWA STATE UNIVERSITY:
          JOE IVANIC, AARON WEST, LAIMUTIS BYTAUTAS, KLAUS RUEDENBERG
     UNIVERSITY OF TOKYO: KIMIHIKO HIRAO, TAKAHITO NAKAJIMA,
          TAKAO TSUNEDA, MUNEAKI KAMIYA, SUSUMU YANAGISAWA,
          KIYOSHI YAGI, MAHITO CHIBA, SEIKEN TOKURA, NAOAKI KAWAKAMI
     UNIVERSITY OF AARHUS: FRANK JENSEN
     UNIVERSITY OF IOWA: VISVALDAS KAIRYS, HUI LI
     NATIONAL INST. OF STANDARDS AND TECHNOLOGY: WALT STEVENS, DAVID GARMER
     UNIVERSITY OF PISA: BENEDETTA MENNUCCI, JACOPO TOMASI
     UNIVERSITY OF MEMPHIS: HENRY KURTZ, PRAKASHAN KORAMBATH
     UNIVERSITY OF ALBERTA: TOBY ZENG, MARIUSZ KLOBUKOWSKI
     UNIVERSITY OF NEW ENGLAND: MARK SPACKMAN
     MIE UNIVERSITY: HIROAKI UMEDA
     NAT. INST. OF ADVANCED INDUSTRIAL SCIENCE AND TECHNOLOGY: KAZUO KITAURA
     MICHIGAN STATE UNIVERSITY:
          KAROL KOWALSKI, MARTA WLOCH, JEFFREY GOUR, JESSE LUTZ,
          WEI LI, JUN SHEN, J. EMILIANO DEUSTUA, PIOTR PIECUCH
     UNIVERSITY OF MINNESOTA:
          YINAN SHU
     UNIVERSITY OF SILESIA: MONIKA MUSIAL, STANISLAW KUCHARSKI
     FACULTES UNIVERSITAIRES NOTRE-DAME DE LA PAIX:
          OLIVIER QUINET, BENOIT CHAMPAGNE
     UNIVERSITY OF CALIFORNIA - SANTA BARBARA: BERNARD KIRTMAN
     INSTITUTE FOR MOLECULAR SCIENCE:
          KAZUYA ISHIMURA, MICHIO KATOUDA, AND SHIGERU NAGASE
     UNIVERSITY OF NOTRE DAME: ANNA POMOGAEVA, DAN CHIPMAN
     KYUSHU UNIVERSITY:
          HARUYUKI NAKANO,
          FENG LONG GU, JACEK KORCHOWIEC, MARCIN MAKOWSKI, AND YURIKO AOKI,
          HIROTOSHI MORI AND EISAKU MIYOSHI
     PENNSYLVANIA STATE UNIVERSITY:
          TZVETELIN IORDANOV, CHET SWALINA, JONATHAN SKONE,
          SHARON HAMMES-SCHIFFER
     WASEDA UNIVERSITY:
          MASATO KOBAYASHI, TOMOKO AKAMA, TSUGUKI TOUMA,
          TAKESHI YOSHIKAWA, YASUHIRO IKABATA, JUNJI SEINO,
          YUYA NAKAJIMA, HIROMI NAKAI
     NANJING UNIVERSITY: SHUHUA LI
     UNIVERSITY OF NEBRASKA:
          PEIFENG SU, DEJUN SI, NANDUN THELLAMUREGE, YALI WANG, HUI LI
     UNIVERSITY OF ZURICH: ROBERTO PEVERATI, KIM BALDRIDGE
     N. COPERNICUS UNIVERSITY AND JACKSON STATE UNIVERSITY:
          MARIA BARYSZ
     UNIVERSITY OF COPENHAGEN: Jimmy Kromann, CASPER STEINMANN
     TOKYO INSTITUTE OF TECHNOLOGY: HIROYA NAKATA
     NAGOYA UNIVERSITY: YOSHIO NISHIMOTO, STEPHAN IRLE
     MOSCOW STATE UNIVERSITY: VLADIMIR MIRONOV


 PARALLEL VERSION RUNNING ON       16 PROCESSORS IN        1 NODES.

 EXECUTION OF GAMESS BEGUN Fri Dec  6 00:37:14 2019

            ECHO OF THE FIRST FEW INPUT CARDS -
 INPUT CARD>!*** FMO 5.3 (Gamess) INPUT generated by Facio 22.1.1.32 ***                    
 INPUT CARD> $CONTRL RUNTYP=ENERGY NPRINT=-5 ISPHER=1 MAXIT=200 $END                        
 INPUT CARD> $SYSTEM MWORDS=63 MEMDDI=63 $END                                               
 INPUT CARD> $GDDI NGROUP=1 $END                                                            
 INPUT CARD> $SCF DIRSCF=.TRUE. NPUNCH=0 $END                                               
 INPUT CARD>!*** NumCPU : 2  MemPerNode : 512MB                                             
 INPUT CARD> $PCM SOLVNT=WATER IEF=-10 ICOMP=2 ICAV=1 IDISP=1 IFMO=-1 $END                  
 INPUT CARD> $PCMCAV RADII=SUAHF $END                                                       
 INPUT CARD> $TESCAV NTSALL=60 $END                                                         
 INPUT CARD> $FMOPRP                                                                        
 INPUT CARD>    NAODIR=200                                                                  
 INPUT CARD>    NGRFMO(1)=1, 1, 0, 0, 0,   0, 0, 0, 0, 0                                    
 INPUT CARD>    IPIEDA=1                                                                    
 INPUT CARD>    NPRINT=9                                                                    
 INPUT CARD> $END                                                                           
 INPUT CARD> $FMO                                                                           
 INPUT CARD>      SCFTYP(1)=RHF                                                             
 INPUT CARD>      MODGRD=10                                                                 
 INPUT CARD>      MODMUL=0                                                                  
 INPUT CARD>      MAXCAO=5                                                                  
 INPUT CARD>      MAXBND=13                                                                 
 INPUT CARD>      NLAYER=1                                                                  
 INPUT CARD>      MPLEVL(1)=2                                                               
 INPUT CARD>      NFRAG=11                                                                  
 INPUT CARD>      ICHARG(1)=-1, -1, -1, -1, -1, -1, -1, -1, -1, -1, 0                       
 INPUT CARD>      FRGNAM(1)=F1, F2, F3, F4, F5, F6, F7, F8, F9, F10, F11                    
 INPUT CARD>      indat(1)=0                                                                
 INPUT CARD>               1   -36   0                                                      
 INPUT CARD>               37   -70   0                                                     
 INPUT CARD>               71   -101   0                                                    
 INPUT CARD>               102   -131   0                                                   
 INPUT CARD>               132   -162   0                                                   
 INPUT CARD>               163   -195   0                                                   
 INPUT CARD>               196   -225   0                                                   
 INPUT CARD>               226   -258   0                                                   
 INPUT CARD>               259   -291   0                                                   
 INPUT CARD>               292   -322   0                                                   
 INPUT CARD>               323   -350   0                                                   
 INPUT CARD> $END                                                                           
 INPUT CARD>                                                                                
 INPUT CARD> $FMOBND                                                                        
 INPUT CARD>   -37   36       6-31G*    MINI                                                
 INPUT CARD>   -71   70       6-31G*    MINI                                                
 INPUT CARD>   -102   101       6-31G*    MINI                                              
 INPUT CARD>   -132   131       6-31G*    MINI                                              
 INPUT CARD>   -163   162       6-31G*    MINI                                              
 INPUT CARD>   -196   195       6-31G*    MINI                                              
 INPUT CARD>   -226   225       6-31G*    MINI                                              
 INPUT CARD>   -259   258       6-31G*    MINI                                              
 INPUT CARD>   -292   291       6-31G*    MINI                                              


 -------------------------------------------------------------
 GROUP DDI, PROGRAMMED BY: RYAN M. OLSON AND DMITRI G. FEDOROV
        FEDOROV ET AL., J. COMPUT. CHEM., 25 (2004) 872.
 -------------------------------------------------------------

 -------------------------------------------------------
 GDDI: INITIALIZATION COMPLETED FOR GROUP     1 OF     1
 WITH    16 PROCESSES BALTYP=DLB   global rank=        0
 -------------------------------------------------------

   63000000 WORDS OF MEMORY AVAILABLE


     RUN TITLE
     ---------
  FMO calculation                                                                

 THE POINT GROUP OF THE MOLECULE IS C1      
 THE ORDER OF THE PRINCIPAL AXIS IS     0

 ATOM   ATOMIC CHARGE
 H.1-1       1.0
 O.1-1       8.0
 C.1-1       6.0
 N.1-1       7.0
 P.1-1      15.0

     ATOMIC BASIS SET LIBRARY
     ----------------
 THE CONTRACTED PRIMITIVE FUNCTIONS HAVE BEEN UNNORMALIZED
 THE CONTRACTED BASIS FUNCTIONS ARE NOW NORMALIZED TO UNITY

  SHELL TYPE  PRIMITIVE        EXPONENT          CONTRACTION COEFFICIENT(S)

 H.1-1     

      1   S       1            18.7311370    0.033494604338
      1   S       2             2.8253944    0.234726953484
      1   S       3             0.6401217    0.813757326146

      2   S       4             0.1612778    1.000000000000

 O.1-1     

      3   S       5          5484.6716600    0.001831074430
      3   S       6           825.2349460    0.013950172200
      3   S       7           188.0469580    0.068445078098
      3   S       8            52.9645000    0.232714335992
      3   S       9            16.8975704    0.470192897984
      3   S      10             5.7996353    0.358520852987

      4   L      11            15.5396162   -0.110777549525    0.070874268231
      4   L      12             3.5999336   -0.148026262701    0.339752839147
      4   L      13             1.0137618    1.130767015354    0.727158577316

      5   L      14             0.2700058    1.000000000000    1.000000000000

      6   D      15             0.8000000    1.000000000000

 C.1-1     

      7   S      16          3047.5248800    0.001834737132
      7   S      17           457.3695180    0.014037322813
      7   S      18           103.9486850    0.068842622264
      7   S      19            29.2101553    0.232184443216
      7   S      20             9.2866630    0.467941348435
      7   S      21             3.1639270    0.362311985337

      8   L      22             7.8682723   -0.119332419775    0.068999066591
      8   L      23             1.8812885   -0.160854151696    0.316423960957
      8   L      24             0.5442493    1.143456437840    0.744308290898

      9   L      25             0.1687145    1.000000000000    1.000000000000

     10   D      26             0.8000000    1.000000000000

 N.1-1     

     11   S      27          4173.5114600    0.001834772160
     11   S      28           627.4579110    0.013994627002
     11   S      29           142.9020930    0.068586551812
     11   S      30            40.2343293    0.232240873040
     11   S      31            12.8202129    0.469069948082
     11   S      32             4.3904370    0.360455199063

     12   L      33            11.6263619   -0.114961181702    0.067579743878
     12   L      34             2.7162798   -0.169117478561    0.323907295893
     12   L      35             0.7722184    1.145851947027    0.740895139755

     13   L      36             0.2120315    1.000000000000    1.000000000000

     14   D      37             0.8000000    1.000000000000

 P.1-1     

     15   S      38         19413.3000000    0.001851598923
     15   S      39          2909.4200000    0.014206191735
     15   S      40           661.3640000    0.069999459277
     15   S      41           185.7590000    0.240078860331
     15   S      42            59.1943000    0.484761717984
     15   S      43            20.0310000    0.335199804993

     16   L      44           339.4780000   -0.002782170105    0.004564616191
     16   L      45            81.0101000   -0.036049901354    0.033693571881
     16   L      46            25.8780000   -0.116631004382    0.139754883368
     16   L      47             9.4522100    0.096832803638    0.339361716786
     16   L      48             3.6656600    0.614418023082    0.450920623685
     16   L      49             1.4674600    0.403798015170    0.238585800889

     17   L      50             2.1562300   -0.252924113863   -0.017765312733
     17   L      51             0.7489970    0.032851844678    0.274058196433
     17   L      52             0.2831450    1.081254761783    0.785421562957

     18   L      53             0.0998317    1.000000000000    1.000000000000

     19   D      54             0.5500000    1.000000000000

 TOTAL NUMBER OF BASIS SET SHELLS             =   19
 NUMBER OF CARTESIAN GAUSSIAN BASIS FUNCTIONS =   66

     $CONTRL OPTIONS
     ---------------
 SCFTYP=RHF          RUNTYP=ENERGY       EXETYP=RUN     
 MPLEVL=       0     CITYP =NONE         CCTYP =NONE         VBTYP =NONE    
 DFTTYP=NONE         TDDFT =NONE    
 MULT  =       1     ICHARG=       0     NZVAR =       0     COORD =UNIQUE  
 PP    =NONE         RELWFN=NONE         LOCAL =NONE         NUMGRD=       F
 ISPHER=       1     NOSYM =       0     MAXIT =     200     UNITS =ANGS    
 PLTORB=       F     MOLPLT=       F     AIMPAC=       F     FRIEND=        
 NPRINT=      -5     IREST =       0     GEOM  =INPUT   
 NORMF =       0     NORMP =       0     ITOL  =      24     ICUT  =      12
 INTTYP=BEST         GRDTYP=BEST         QMTTOL= 1.0E-06

     $SYSTEM OPTIONS
     ---------------
  REPLICATED MEMORY=    63000000 WORDS (ON EVERY NODE).
 DISTRIBUTED MEMDDI=          63 MILLION WORDS IN AGGREGATE,
 MEMDDI DISTRIBUTED OVER  16 PROCESSORS IS     3937500 WORDS/PROCESSOR.
 TOTAL MEMORY REQUESTED ON EACH PROCESSOR=    66937500 WORDS.
 TIMLIM=      525600.00 MINUTES, OR     365.0 DAYS.
 PARALL= T  BALTYP=  DLB     KDIAG=    0  COREFL= F
 MXSEQ2=     300 MXSEQ3=     150  mem10=         0

 ** LOOKING UP INTERNALLY STORED DATA FOR SOLVENT=WATER    **
 OPTICAL AND PHYSICAL CONSTANTS:
 EPS= 78.390; EPSINF=  1.776; RSOLV=  1.385 A; VMOL=  18.070 ML/MOL;
 TCE= .25700E-03 1/K; STEN= 71.810 DYN/CM;  DSTEN=  0.6500; CMF=  1.2770


     -----------------------------------
     INPUT FOR PCM SOLVATION CALCULATION 
     -----------------------------------
     IEF   =     -10
     ICOMP =       2     IFIELD=       0     ICAV  =       1
     IDISP =       1     IREP  =       0     IDP   =       0

     SOLVNT=WATER        EPS   = 78.3900     EPSINF=  1.7760
     VMOL  = 18.0700     TCE   =  0.00025700 STEN  = 71.8100
     DSTEN =  0.6500     CMF   =  1.2770     RSOLV =  1.3850

     NESFP =       0
     OMEGA = 40.0000     RET   =100.0000     FRO   =  0.7000

     TABS  =298.0000     IPRINT=       0

     --------------------------------
     INPUT FOR ITERATIVE C-PCM METHOD 
     --------------------------------
     IPCMIT  =         1     MXDIIS  =        50
     MXITR1  =       200     MXITR2  =       200
     THRES   = 0.100E-09     IMUL    =         3
     RCUT(1) =   20.0000     RCUT(2) =   50.0000

     IDIRCT  =         1
     IMGABI  =         0     RABI    =    4.0000
     IMGASC  =         0     RASC    =   20.0000
     THRSLS  = 0.500E-03     DENSLS  =    0.0100
     IEFPOL  =         1     REFPOL  =    0.0000

     INPUT FOR ISOTROPIC DIELECTRICS
     -------------------------------
     EPS=    78.39

          ----------------
          PROPERTIES INPUT
          ----------------

     MOMENTS            FIELD           POTENTIAL          DENSITY
 IEMOM =       1   IEFLD =       0   IEPOT =       0   IEDEN =       0
 WHERE =COMASS     WHERE =NUCLEI     WHERE =NUCLEI     WHERE =NUCLEI  
 OUTPUT=BOTH       OUTPUT=BOTH       OUTPUT=NONE       OUTPUT=BOTH    
 IEMINT=       0   IEFINT=       0                     IEDINT=       0
                                                       MORB  =       0
          EXTRAPOLATION IN EFFECT
          SOSCF IN EFFECT
 ORBITAL PRINTING OPTION: NPREO=     1 32767     2     1

     -------------------------------
     INTEGRAL TRANSFORMATION OPTIONS
     -------------------------------
     NWORD  =            0
     CUTOFF = 1.0E-10     MPTRAN =       0
     DIRTRF =       T     AOINTS =DUP     

          ----------------------
          INTEGRAL INPUT OPTIONS
          ----------------------
 NOPK  =       1 NORDER=       0 SCHWRZ=       T

 ..... DONE SETTING UP THE RUN .....
 CPU     0: STEP CPU TIME=     0.05 TOTAL CPU TIME=          0.1 (      0.0 MIN)
 TOTAL WALL CLOCK TIME=          0.1 SECONDS, CPU UTILIZATION IS    55.56%
 CPU     0: STEP CPU TIME=     0.00 TOTAL CPU TIME=          0.1 (      0.0 MIN)
 TOTAL WALL CLOCK TIME=          0.1 SECONDS, CPU UTILIZATION IS    55.56%

                    ----------------------
                    AO INTEGRAL TECHNOLOGY
                    ----------------------
     S,P,L SHELL ROTATED AXIS INTEGRALS, REPROGRAMMED BY
        KAZUYA ISHIMURA (IMS) AND JOSE SIERRA (SYNSTAR).
     S,P,D,L SHELL ROTATED AXIS INTEGRALS PROGRAMMED BY
        KAZUYA ISHIMURA (INSTITUTE FOR MOLECULAR SCIENCE).
     S,P,D,F,G SHELL TO TOTAL QUARTET ANGULAR MOMENTUM SUM 5,
        ERIC PROGRAM BY GRAHAM FLETCHER (ELORET AND NASA ADVANCED
        SUPERCOMPUTING DIVISION, AMES RESEARCH CENTER).
     S,P,D,F,G,L SHELL GENERAL RYS QUADRATURE PROGRAMMED BY
        MICHEL DUPUIS (PACIFIC NORTHWEST NATIONAL LABORATORY).
 Setting modorb=1 flag...
 Setting modorb=1 flag...

          -----------------------
          MP2 CONTROL INFORMATION
          -----------------------
          NACORE =        8  NBCORE =        8
          LMOMP2 =        F  AOINTS = DUP     
          METHOD =        2  NWORD  =               0
          MP2PRP =        F  OSPT   = NONE    
          CUTOFF = 1.00E-12  CPHFBS = BASISAO 
          CODE   = IMS     

          NUMBER OF CORE -A-  ORBITALS =     8
          NUMBER OF CORE -B-  ORBITALS =     8
          NUMBER OF OCC. -A-  ORBITALS =    18
          NUMBER OF OCC. -B-  ORBITALS =    18
          NUMBER OF MOLECULAR ORBITALS =    66
          NUMBER OF   BASIS  FUNCTIONS =    66

 CPU     0: STEP CPU TIME=     0.02 TOTAL CPU TIME=          0.1 (      0.0 MIN)
 TOTAL WALL CLOCK TIME=          0.1 SECONDS, CPU UTILIZATION IS    53.85%
 CPU     0: STEP CPU TIME=     0.00 TOTAL CPU TIME=          0.1 (      0.0 MIN)
 TOTAL WALL CLOCK TIME=          0.1 SECONDS, CPU UTILIZATION IS    53.85%

     INPUT FOR CAVITY DEFINITION 
     ---------------------------
   ATOM               COORDINATES                RADIUS       EPS
      1     -1.5550     -9.3030      0.2310      0.0100     78.3900
      2     -1.6670     -8.7430      1.0190      1.5900     78.3900
      3     -1.4020     -9.5710      2.1610      1.7700     78.3900
      4     -0.3850    -10.0140      2.0660      0.0100     78.3900
      5     -2.1340    -10.4070      2.1840      0.0100     78.3900
      6     -1.4960     -8.8100      3.4860      1.7700     78.3900
      7     -1.3140     -9.4910      4.3490      0.0100     78.3900
      8     -0.4820     -7.7620      3.5410      1.5900     78.3900
      9     -1.0360     -6.6210      4.1860      1.7700     78.3900
     10     -0.3700     -6.3750      5.0440      0.0100     78.3900
     11     -1.0950     -5.4650      3.2800      1.6800     78.3900
     12     -1.2410     -4.1580      3.6570      1.7700     78.3900
     13     -1.6180     -1.7790      6.1420      1.6800     78.3900
     14     -1.6240     -2.3290      6.9770      0.0100     78.3900
     15     -1.6890     -0.7810      6.2170      0.0100     78.3900
     16     -1.3690     -3.7130      4.9190      1.6800     78.3900
     17     -1.4600     -2.3890      4.9820      1.7700     78.3900
     18     -1.3940     -1.5790      3.8760      1.6800     78.3900
     19     -1.4550     -0.5820      4.0130      0.0100     78.3900
     20     -1.2580     -2.0090      2.5610      1.7700     78.3900
     21     -1.1980     -1.2060      1.6230      1.5900     78.3900
     22     -1.1900     -3.4260      2.4850      1.7700     78.3900
     23     -1.0460     -4.2620      1.3830      1.6800     78.3900
     24     -1.0020     -5.4670      1.9040      1.7700     78.3900
     25     -0.8900     -6.4000      1.3440      0.0100     78.3900
     26     -2.3990     -7.0090      4.7050      1.7700     78.3900
     27     -3.1090     -6.1590      4.7160      0.0100     78.3900
     28     -2.2830     -7.5500      6.0070      1.5900     78.3900
     29     -3.1660     -7.8400      6.2660      0.0100     78.3900
     30     -2.8230     -8.0670      3.6970      1.7700     78.3900
     31     -3.0920     -7.5920      2.7240      0.0100     78.3900
     32     -3.8280     -8.9860      4.1660      1.5900     78.3900
     33     -5.3520     -8.6540      3.9590      2.1000     78.3900
     34     -5.5680     -8.3110      2.5400      1.5900     78.3900
     35     -6.1230     -9.7900      4.5110      1.5900     78.3900
     36     -5.5890     -7.3750      4.8450      1.5900     78.3900
     37     -5.6100     -7.4820      6.2880      1.7700     78.3900
     38     -4.6990     -7.9830      6.6810      0.0100     78.3900
     39     -6.4840     -8.0820      6.6240      0.0100     78.3900
     40     -5.7230     -6.0970      6.9370      1.7700     78.3900
     41     -5.6680     -6.1680      8.0450      0.0100     78.3900
     42     -4.6350     -5.2380      6.4990      1.5900     78.3900
     43     -5.1070     -3.9060      6.3720      1.7700     78.3900
     44     -4.4850     -3.2830      7.0520      0.0100     78.3900
     45     -4.9520     -3.4000      5.0060      1.6800     78.3900
     46     -5.0140     -2.0880      4.6240      1.7700     78.3900
     47     -5.5350      1.2510      5.3820      1.6800     78.3900
     48     -5.7410      1.2250      6.3580      0.0100     78.3900
     49     -5.5760      2.1310      4.8980      0.0100     78.3900
     50     -5.2490     -1.0370      5.4330      1.6800     78.3900
     51     -5.2510      0.1180      4.7670      1.7700     78.3900
     52     -4.9830      0.2130      3.4280      1.6800     78.3900
     53     -5.0110      1.1280      3.0020      0.0100     78.3900
     54     -4.7110     -0.8490      2.5790      1.7700     78.3900
     55     -4.4750     -0.6600      1.3840      1.5900     78.3900
     56     -4.7650     -2.0910      3.2640      1.7700     78.3900
     57     -4.5840     -3.3870      2.7960      1.6800     78.3900
     58     -4.7120     -4.1330      3.8670      1.7700     78.3900
     59     -4.6610     -5.2220      3.8960      0.0100     78.3900
     60     -6.5490     -3.8840      6.8300      1.7700     78.3900
     61     -7.1680     -3.1600      6.2580      0.0100     78.3900
     62     -6.6060     -3.5730      8.2080      1.5900     78.3900
     63     -7.4900     -3.8080      8.5280      0.0100     78.3900
     64     -6.9860     -5.3160      6.5590      1.7700     78.3900
     65     -7.1420     -5.4800      5.4680      0.0100     78.3900
     66     -8.0980     -5.7530      7.3600      1.5900     78.3900
     67     -9.5490     -5.8640      6.7590      2.1000     78.3900
     68     -9.5640     -6.9510      5.7610      1.5900     78.3900
     69    -10.5160     -5.9690      7.8770      1.5900     78.3900
     70     -9.7680     -4.4980      6.0150      1.5900     78.3900
     71    -10.0600     -3.2710      6.7180      1.7700     78.3900
     72     -9.2420     -3.0090      7.4260      0.0100     78.3900
     73    -10.9980     -3.3720      7.3070      0.0100     78.3900
     74    -10.2440     -2.1070      5.7360      1.7700     78.3900
     75    -10.5420     -1.1750      6.2700      0.0100     78.3900
     76     -8.9820     -1.8470      5.0510      1.5900     78.3900
     77     -9.2380     -1.5690      3.6870      1.7700     78.3900
     78     -8.7620     -0.5840      3.4980      0.0100     78.3900
     79     -8.6400     -2.5810      2.7570      1.6800     78.3900
     80     -8.2200     -3.8050      3.2260      1.7700     78.3900
     81     -8.3840     -3.9880      4.2870      0.0100     78.3900
     82     -7.6350     -4.7060      2.4230      1.7700     78.3900
     83     -7.2890     -5.6750      2.7830      0.0100     78.3900
     84     -8.4770     -2.2940      1.4040      1.7700     78.3900
     85     -8.8300     -1.1960      0.9710      1.5900     78.3900
     86     -7.8740     -3.1720      0.5770      1.6800     78.3900
     87     -7.4450     -4.3470      1.0560      1.7700     78.3900
     88     -6.8430     -5.1810      0.2100      1.6800     78.3900
     89     -6.7020     -4.8690     -0.7340      0.0100     78.3900
     90     -6.4470     -6.0520      0.4940      0.0100     78.3900
     91    -10.7380     -1.4160      3.5340      1.7700     78.3900
     92    -11.0720     -1.7470      2.5380      0.0100     78.3900
     93    -11.1510     -0.0740      3.7700      1.5900     78.3900
     94    -10.6280      0.5310      3.2250      0.0100     78.3900
     95    -11.2540     -2.3650      4.6060      1.7700     78.3900
     96    -11.1270     -3.4220      4.2810      0.0100     78.3900
     97    -12.5910     -2.0860      5.0620      1.5900     78.3900
     98    -13.8420     -2.7640      4.3950      2.1000     78.3900
     99    -13.9620     -4.1230      4.9670      1.5900     78.3900
    100    -15.0140     -1.8800      4.5680      1.5900     78.3900
    101    -13.5220     -2.8970      2.8600      1.5900     78.3900
    102    -13.7140     -1.8050      1.9300      1.7700     78.3900
    103    -13.1600     -0.8990      2.2580      0.0100     78.3900
    104    -14.7910     -1.5240      1.8690      0.0100     78.3900
    105    -13.2390     -2.1870      0.5130      1.7700     78.3900
    106    -13.2940     -1.3360     -0.1900      0.0100     78.3900
    107    -11.8430     -2.5670      0.5190      1.5900     78.3900
    108    -11.6280     -3.6520     -0.3570      1.7700     78.3900
    109    -10.8840     -3.2830     -1.1010      0.0100     78.3900
    110    -11.0860     -4.8260      0.3640      1.6800     78.3900
    111    -11.2590     -4.9630      1.7230      1.7700     78.3900
    112    -11.7770     -4.1420      2.2120      0.0100     78.3900
    113    -10.4020     -5.7730     -0.3640      1.7700     78.3900
    114    -10.2350     -5.6850     -1.5760      1.5900     78.3900
    115     -9.9200     -6.8230      0.3750      1.6800     78.3900
    116     -9.4140     -7.5250     -0.1420      0.0100     78.3900
    117    -10.0360     -7.0100      1.7380      1.7700     78.3900
    118     -9.5330     -7.9940      2.2700      1.5900     78.3900
    119    -10.7620     -5.9880      2.4220      1.7700     78.3900
    120    -10.8690     -6.0550      3.5030      0.0100     78.3900
    121    -12.9440     -3.9500     -1.0570      1.7700     78.3900
    122    -13.1060     -5.0400     -1.2050      0.0100     78.3900
    123    -12.9620     -3.2980     -2.3070      1.5900     78.3900
    124    -13.8510     -2.9340     -2.4870      0.0100     78.3900
    125    -13.9730     -3.3830     -0.0860      1.7700     78.3900
    126    -14.1240     -4.0930      0.7570      0.0100     78.3900
    127    -15.2270     -2.9630     -0.6760      1.5900     78.3900
    128    -16.2420     -4.1050     -1.0970      2.1000     78.3900
    129    -15.7540     -5.4130     -0.6060      1.5900     78.3900
    130    -17.5930     -3.7010     -0.6530      1.5900     78.3900
    131    -16.1920     -4.0860     -2.6740      1.5900     78.3900
    132    -16.8980     -5.0990     -3.4370      1.7700     78.3900
    133    -17.7320     -5.5720     -2.8610      0.0100     78.3900
    134    -16.1840     -5.9070     -3.7070      0.0100     78.3900
    135    -17.5010     -4.5470     -4.7400      1.7700     78.3900
    136    -17.9270     -5.3680     -5.3550      0.0100     78.3900
    137    -18.6050     -3.6590     -4.4160      1.5900     78.3900
    138    -18.5590     -2.5100     -5.2500      1.7700     78.3900
    139    -19.5630     -2.4720     -5.7380      0.0100     78.3900
    140    -18.3700     -1.2440     -4.4870      1.6800     78.3900
    141    -18.0290     -1.2880     -3.1540      1.7700     78.3900
    142    -17.8560     -2.2790     -2.7310      0.0100     78.3900
    143    -17.9140     -0.1710     -2.4290      1.7700     78.3900
    144    -17.6700     -0.1920     -1.3680      0.0100     78.3900
    145    -18.5790     -0.0110     -5.1080      1.7700     78.3900
    146    -18.8920      0.0140     -6.3090      1.5900     78.3900
    147    -18.4590      1.1320     -4.3870      1.6800     78.3900
    148    -18.1380      1.0720     -3.0830      1.7700     78.3900
    149    -18.0560      2.2010     -2.3880      1.6800     78.3900
    150    -17.6830      2.2110     -1.4570      0.0100     78.3900
    151    -18.1650      3.0750     -2.8610      0.0100     78.3900
    152    -17.4970     -2.7460     -6.3110      1.7700     78.3900
    153    -16.9590     -1.8110     -6.5870      0.0100     78.3900
    154    -18.0920     -3.3240     -7.4600      1.5900     78.3900
    155    -17.3820     -3.7050     -7.9970      0.0100     78.3900
    156    -16.5490     -3.7250     -5.6230      1.7700     78.3900
    157    -15.8620     -3.1870     -4.9370      0.0100     78.3900
    158    -15.8530     -4.6150     -6.5110      1.5900     78.3900
    159    -14.4820     -4.3720     -7.2140      2.1000     78.3900
    160    -13.4060     -4.7120     -6.2600      1.5900     78.3900
    161    -14.4850     -5.0980     -8.5040      1.5900     78.3900
    162    -14.4060     -2.8420     -7.4920      1.5900     78.3900
    163    -14.9320     -2.1550     -8.6450      1.7700     78.3900
    164    -16.0420     -2.2100     -8.6470      0.0100     78.3900
    165    -14.5760     -2.6310     -9.5890      0.0100     78.3900
    166    -14.5580     -0.6520     -8.6940      1.7700     78.3900
    167    -15.0520     -0.1740     -9.5660      0.0100     78.3900
    168    -14.9630      0.0480     -7.4770      1.5900     78.3900
    169    -13.8120      0.3330     -6.6880      1.7700     78.3900
    170    -13.6300      1.4270     -6.7840      0.0100     78.3900
    171    -14.0600     -0.0270     -5.2960      1.6800     78.3900
    172    -14.5850      0.0310     -3.1640      1.7700     78.3900
    173    -14.4840     -1.2980     -3.5080      1.6800     78.3900
    174    -14.1530     -1.2860     -4.7690      1.7700     78.3900
    175    -13.9520     -2.1810     -5.3530      0.0100     78.3900
    176    -14.8730      2.0250     -1.9350      1.6800     78.3900
    177    -14.5960      2.6680     -3.0710      1.7700     78.3900
    178    -14.6030      3.7630     -3.0030      0.0100     78.3900
    179    -14.3350      2.1780     -4.2890      1.6800     78.3900
    180    -14.3370      0.8340     -4.2620      1.7700     78.3900
    181    -14.8800      0.6730     -1.9450      1.7700     78.3900
    182    -15.2130      0.0310     -0.8100      1.6800     78.3900
    183    -15.2110     -0.9750     -0.7650      0.0100     78.3900
    184    -15.3890      0.5590      0.0200      0.0100     78.3900
    185    -12.6550     -0.4220     -7.3100      1.7700     78.3900
    186    -12.6190     -1.4650     -6.9410      0.0100     78.3900
    187    -11.3960      0.1480     -7.0890      1.5900     78.3900
    188    -11.3600      1.0270     -7.4870      0.0100     78.3900
    189    -13.0420     -0.3990     -8.7780      1.7700     78.3900
    190    -12.5740     -1.2890     -9.2620      0.0100     78.3900
    191    -12.7260      0.8490     -9.4510      1.5900     78.3900
    192    -12.1840      0.8100    -10.9310      2.1000     78.3900
    193    -12.4790     -0.5150    -11.5220      1.5900     78.3900
    194    -12.7120      1.9930    -11.6430      1.5900     78.3900
    195    -10.6270      0.9650    -10.7740      1.5900     78.3900
    196     -9.7350      0.4060    -11.7730      1.7700     78.3900
    197    -10.2180      0.2780    -12.7710      0.0100     78.3900
    198     -9.4010     -0.5980    -11.4270      0.0100     78.3900
    199     -8.4800      1.2700    -11.9590      1.7700     78.3900
    200     -7.7050      0.7180    -12.5320      0.0100     78.3900
    201     -8.7990      2.4590    -12.7330      1.5900     78.3900
    202     -8.0910      3.5740    -12.2030      1.7700     78.3900
    203     -7.5070      3.9870    -13.0620      0.0100     78.3900
    204     -9.0160      4.6120    -11.6680      1.6800     78.3900
    205    -10.3290      4.3100    -11.3640      1.7700     78.3900
    206    -10.6270      3.2740    -11.5300      0.0100     78.3900
    207     -8.5270      5.8880    -11.4880      1.7700     78.3900
    208     -7.3620      6.1940    -11.7300      1.5900     78.3900
    209     -9.4430      6.7960    -11.0200      1.6800     78.3900
    210     -9.1060      7.7410    -10.9000      0.0100     78.3900
    211    -10.7770      6.5780    -10.7430      1.7700     78.3900
    212    -11.4920      7.5110    -10.3750      1.5900     78.3900
    213    -11.2070      5.2240    -10.9300      1.7700     78.3900
    214    -12.2490      4.9680    -10.7430      0.0100     78.3900
    215     -7.1230      3.0420    -11.1500      1.7700     78.3900
    216     -6.9690      3.7640    -10.3170      0.0100     78.3900
    217     -5.8730      2.7140    -11.7330      1.5900     78.3900
    218     -5.3570      2.2630    -11.0470      0.0100     78.3900
    219     -7.8580      1.8000    -10.6630      1.7700     78.3900
    220     -8.6900      2.1010     -9.9900      0.0100     78.3900
    221     -7.0390      0.7710    -10.0810      1.5900     78.3900
    222     -6.4000      0.9330     -8.6610      2.1000     78.3900
    223     -6.4870     -0.3700     -7.9660      1.5900     78.3900
    224     -5.0500      1.5030     -8.8490      1.5900     78.3900
    225     -7.2870      2.0050     -7.9150      1.5900     78.3900
    226     -8.3060      1.5740     -6.9940      1.7700     78.3900
    227     -7.8640      0.9970     -6.1470      0.0100     78.3900
    228     -9.0320      0.9090     -7.5200      0.0100     78.3900
    229     -9.0590      2.7840     -6.4260      1.7700     78.3900
    230     -9.3640      3.4860     -7.2310      0.0100     78.3900
    231    -10.2700      2.2970     -5.7930      1.5900     78.3900
    232    -10.5220      2.9960     -4.5930      1.7700     78.3900
    233    -11.5550      3.4040     -4.6730      0.0100     78.3900
    234    -10.4560      2.1110     -3.4250      1.6800     78.3900
    235    -10.7350      1.2640     -1.4140      1.7700     78.3900
    236    -10.0410      0.3090     -2.1420      1.6800     78.3900
    237     -9.9040      0.8550     -3.3280      1.7700     78.3900
    238     -9.4170      0.3860     -4.1860      0.0100     78.3900
    239    -11.8560      2.4180      0.3140      1.6800     78.3900
    240    -12.0260      3.4150     -0.5490      1.7700     78.3900
    241    -12.5580      4.2860     -0.1490      0.0100     78.3900
    242    -11.6050      3.5110     -1.8110      1.6800     78.3900
    243    -10.9870      2.3800     -2.1930      1.7700     78.3900
    244    -11.2160      1.3000     -0.0890      1.7700     78.3900
    245    -11.1020      0.3060      0.7970      1.6800     78.3900
    246    -10.5940     -0.5320      0.5600      0.0100     78.3900
    247    -11.6880      0.2890      1.6000      0.0100     78.3900
    248     -9.5310      4.1240     -4.5230      1.7700     78.3900
    249     -9.2420      4.3750     -3.4830      0.0100     78.3900
    250    -10.0650      5.2670     -5.1560      1.5900     78.3900
    251     -9.3310      5.8850     -5.2490      0.0100     78.3900
    252     -8.3500      3.5580     -5.3070      1.7700     78.3900
    253     -7.8060      2.7970     -4.7030      0.0100     78.3900
    254     -7.4740      4.5570     -5.8690      1.5900     78.3900
    255     -6.2430      5.0610     -5.0280      2.1000     78.3900
    256     -5.4910      3.8960     -4.5170      1.5900     78.3900
    257     -5.4970      6.0400     -5.8460      1.5900     78.3900
    258     -6.8820      5.7980     -3.7940      1.5900     78.3900
    259     -7.5450      7.0750     -3.9090      1.7700     78.3900
    260     -8.3630      7.0420     -4.6610      0.0100     78.3900
    261     -6.8210      7.8570     -4.2330      0.0100     78.3900
    262     -8.1470      7.5130     -2.5640      1.7700     78.3900
    263     -8.7090      8.4670     -2.6680      0.0100     78.3900
    264     -9.0900      6.5120     -2.0780      1.5900     78.3900
    265     -8.9310      6.3470     -0.6770      1.7700     78.3900
    266     -9.9340      6.5150     -0.2210      0.0100     78.3900
    267     -8.4870      4.9940     -0.3510      1.6800     78.3900
    268     -8.0700      3.1160      0.6970      1.7700     78.3900
    269     -7.6560      2.9280     -0.6130      1.6800     78.3900
    270     -7.9190      4.0690     -1.1910      1.7700     78.3900
    271     -7.7070      4.2990     -2.2340      0.0100     78.3900
    272     -8.5440      2.7600      2.9910      1.6800     78.3900
    273     -8.9840      4.0230      3.0130      1.7700     78.3900
    274     -9.3600      4.3700      3.9850      0.0100     78.3900
    275     -9.0500      4.9140      2.0130      1.6800     78.3900
    276     -8.5790      4.3860      0.8720      1.7700     78.3900
    277     -8.0500      2.2780      1.8260      1.7700     78.3900
    278     -7.5400      1.0440      1.8030      1.6800     78.3900
    279     -7.4570      0.5520      0.9320      0.0100     78.3900
    280     -7.6690      0.4990      2.6190      0.0100     78.3900
    281     -7.9630      7.4050     -0.1890      1.7700     78.3900
    282     -7.3240      7.0570      0.6520      0.0100     78.3900
    283     -8.6810      8.5580      0.2010      1.5900     78.3900
    284     -8.0340      9.2640      0.3570      0.0100     78.3900
    285     -7.1210      7.6600     -1.4330      1.7700     78.3900
    286     -6.3930      6.8270     -1.5720      0.0100     78.3900
    287     -6.5100      8.9680     -1.4920      1.5900     78.3900
    288     -5.0750      9.1760     -0.8920      2.1000     78.3900
    289     -4.3130      7.9210     -1.0560      1.5900     78.3900
    290     -4.4940     10.3970     -1.4880      1.5900     78.3900
    291     -5.3140      9.4300      0.6430      1.5900     78.3900
    292     -4.2220      9.2280      1.5870      1.7700     78.3900
    293     -3.7500     10.2080      1.8280      0.0100     78.3900
    294     -3.4070      8.5830      1.1740      0.0100     78.3900
    295     -4.6850      8.5670      2.9040      1.7700     78.3900
    296     -5.0970      9.3230      3.6030      0.0100     78.3900
    297     -5.7540      7.6020      2.6470      1.5900     78.3900
    298     -5.5140      6.4180      3.3920      1.7700     78.3900
    299     -6.4700      6.1980      3.9250      0.0100     78.3900
    300     -5.1590      5.2550      2.5330      1.6800     78.3900
    301     -4.7320      5.4410      1.2330      1.7700     78.3900
    302     -4.6720      6.4740      0.8780      0.0100     78.3900
    303     -4.4320      4.3980      0.4470      1.7700     78.3900
    304     -4.1030      4.5210     -0.5840      0.0100     78.3900
    305     -5.2500      3.9660      3.0530      1.7700     78.3900
    306     -5.6320      3.8110      4.2240      1.5900     78.3900
    307     -4.9220      2.9090      2.2800      1.6800     78.3900
    308     -4.5530      3.0910      1.0000      1.7700     78.3900
    309     -4.2980      2.0280      0.2430      1.6800     78.3900
    310     -4.4000      1.1080      0.6260      0.0100     78.3900
    311     -4.0080      2.1170     -0.7120      0.0100     78.3900
    312     -4.4370      6.7420      4.4070      1.7700     78.3900
    313     -3.8470      5.8520      4.7060      0.0100     78.3900
    314     -5.0100      7.3410      5.5550      1.5900     78.3900
    315     -4.2840      7.6510      6.1100      0.0100     78.3900
    316     -3.5990      7.7400      3.6230      1.7700     78.3900
    317     -3.0380      7.2080      2.8210      0.0100     78.3900
    318     -2.7640      8.5970      4.4340      1.5900     78.3900
    319     -1.2240      8.2930      4.5690      2.1000     78.3900
    320     -0.6970      7.8570      3.2590      1.5900     78.3900
    321     -0.5700      9.4590      5.1990      1.5900     78.3900
    322     -1.1890      7.0720      5.5610      1.5900     78.3900
    323     -1.6240      7.2210      6.9310      1.7700     78.3900
    324     -2.6640      7.6140      6.9880      0.0100     78.3900
    325     -0.9580      7.9320      7.4710      0.0100     78.3900
    326     -1.5830      5.8800      7.6770      1.7700     78.3900
    327     -1.8330      6.0140      8.7510      0.0100     78.3900
    328     -2.5870      4.9790      7.1170      1.5900     78.3900
    329     -2.0490      3.6600      7.0640      1.7700     78.3900
    330     -2.7730      3.0210      7.6210      0.0100     78.3900
    331     -1.9180      3.1380      5.6750      1.6800     78.3900
    332     -1.8540      4.0060      4.6110      1.7700     78.3900
    333     -1.9400      5.0630      4.8540      0.0100     78.3900
    334     -1.7350      3.5660      3.3520      1.7700     78.3900
    335     -1.7020      4.2420      2.5000      0.0100     78.3900
    336     -1.8000      1.7700      5.4510      1.7700     78.3900
    337     -1.7880      0.9960      6.4200      1.5900     78.3900
    338     -1.6980      1.3010      4.1860      1.6800     78.3900
    339     -1.6560      2.1580      3.1510      1.7700     78.3900
    340     -1.5320      1.6700      1.9190      1.6800     78.3900
    341     -1.4660      0.6790      1.7820      0.0100     78.3900
    342     -1.4510      2.2630      1.1160      0.0100     78.3900
    343     -0.7270      3.6700      7.8180      1.7700     78.3900
    344      0.0060      2.9430      7.3970      0.0100     78.3900
    345     -0.9510      3.3970      9.1940      1.5900     78.3900
    346     -0.1260      3.5590      9.6840      0.0100     78.3900
    347     -0.2600      5.1040      7.5850      1.7700     78.3900
    348      0.1430      5.2180      6.5560      0.0100     78.3900
    349      0.6770      5.5890      8.5630      1.5900     78.3900
    350      1.5140      5.0950      8.4920      0.0100     78.3900

     ----------------------------
     INPUT FOR TESSERA DEFINITION
     ----------------------------
     NTSALL  =        60     MTHALL  =         4
     MTHAUT  =         0     AUTFRE  =    2.0000
     NTSFRZ  =        60     KEEPSM  =         0
     AREAKP  =   10.0000     BONDRY  =    1.0000
     AREATL  =    0.0100

     SPHERE     INITS       METHOD
          1        60       FIXPVA
          2        60       FIXPVA
          3        60       FIXPVA
          4        60       FIXPVA
          5        60       FIXPVA
          6        60       FIXPVA
          7        60       FIXPVA
          8        60       FIXPVA
          9        60       FIXPVA
         10        60       FIXPVA
         11        60       FIXPVA
         12        60       FIXPVA
         13        60       FIXPVA
         14        60       FIXPVA
         15        60       FIXPVA
         16        60       FIXPVA
         17        60       FIXPVA
         18        60       FIXPVA
         19        60       FIXPVA
         20        60       FIXPVA
         21        60       FIXPVA
         22        60       FIXPVA
         23        60       FIXPVA
         24        60       FIXPVA
         25        60       FIXPVA
         26        60       FIXPVA
         27        60       FIXPVA
         28        60       FIXPVA
         29        60       FIXPVA
         30        60       FIXPVA
         31        60       FIXPVA
         32        60       FIXPVA
         33        60       FIXPVA
         34        60       FIXPVA
         35        60       FIXPVA
         36        60       FIXPVA
         37        60       FIXPVA
         38        60       FIXPVA
         39        60       FIXPVA
         40        60       FIXPVA
         41        60       FIXPVA
         42        60       FIXPVA
         43        60       FIXPVA
         44        60       FIXPVA
         45        60       FIXPVA
         46        60       FIXPVA
         47        60       FIXPVA
         48        60       FIXPVA
         49        60       FIXPVA
         50        60       FIXPVA
         51        60       FIXPVA
         52        60       FIXPVA
         53        60       FIXPVA
         54        60       FIXPVA
         55        60       FIXPVA
         56        60       FIXPVA
         57        60       FIXPVA
         58        60       FIXPVA
         59        60       FIXPVA
         60        60       FIXPVA
         61        60       FIXPVA
         62        60       FIXPVA
         63        60       FIXPVA
         64        60       FIXPVA
         65        60       FIXPVA
         66        60       FIXPVA
         67        60       FIXPVA
         68        60       FIXPVA
         69        60       FIXPVA
         70        60       FIXPVA
         71        60       FIXPVA
         72        60       FIXPVA
         73        60       FIXPVA
         74        60       FIXPVA
         75        60       FIXPVA
         76        60       FIXPVA
         77        60       FIXPVA
         78        60       FIXPVA
         79        60       FIXPVA
         80        60       FIXPVA
         81        60       FIXPVA
         82        60       FIXPVA
         83        60       FIXPVA
         84        60       FIXPVA
         85        60       FIXPVA
         86        60       FIXPVA
         87        60       FIXPVA
         88        60       FIXPVA
         89        60       FIXPVA
         90        60       FIXPVA
         91        60       FIXPVA
         92        60       FIXPVA
         93        60       FIXPVA
         94        60       FIXPVA
         95        60       FIXPVA
         96        60       FIXPVA
         97        60       FIXPVA
         98        60       FIXPVA
         99        60       FIXPVA
        100        60       FIXPVA
        101        60       FIXPVA
        102        60       FIXPVA
        103        60       FIXPVA
        104        60       FIXPVA
        105        60       FIXPVA
        106        60       FIXPVA
        107        60       FIXPVA
        108        60       FIXPVA
        109        60       FIXPVA
        110        60       FIXPVA
        111        60       FIXPVA
        112        60       FIXPVA
        113        60       FIXPVA
        114        60       FIXPVA
        115        60       FIXPVA
        116        60       FIXPVA
        117        60       FIXPVA
        118        60       FIXPVA
        119        60       FIXPVA
        120        60       FIXPVA
        121        60       FIXPVA
        122        60       FIXPVA
        123        60       FIXPVA
        124        60       FIXPVA
        125        60       FIXPVA
        126        60       FIXPVA
        127        60       FIXPVA
        128        60       FIXPVA
        129        60       FIXPVA
        130        60       FIXPVA
        131        60       FIXPVA
        132        60       FIXPVA
        133        60       FIXPVA
        134        60       FIXPVA
        135        60       FIXPVA
        136        60       FIXPVA
        137        60       FIXPVA
        138        60       FIXPVA
        139        60       FIXPVA
        140        60       FIXPVA
        141        60       FIXPVA
        142        60       FIXPVA
        143        60       FIXPVA
        144        60       FIXPVA
        145        60       FIXPVA
        146        60       FIXPVA
        147        60       FIXPVA
        148        60       FIXPVA
        149        60       FIXPVA
        150        60       FIXPVA
        151        60       FIXPVA
        152        60       FIXPVA
        153        60       FIXPVA
        154        60       FIXPVA
        155        60       FIXPVA
        156        60       FIXPVA
        157        60       FIXPVA
        158        60       FIXPVA
        159        60       FIXPVA
        160        60       FIXPVA
        161        60       FIXPVA
        162        60       FIXPVA
        163        60       FIXPVA
        164        60       FIXPVA
        165        60       FIXPVA
        166        60       FIXPVA
        167        60       FIXPVA
        168        60       FIXPVA
        169        60       FIXPVA
        170        60       FIXPVA
        171        60       FIXPVA
        172        60       FIXPVA
        173        60       FIXPVA
        174        60       FIXPVA
        175        60       FIXPVA
        176        60       FIXPVA
        177        60       FIXPVA
        178        60       FIXPVA
        179        60       FIXPVA
        180        60       FIXPVA
        181        60       FIXPVA
        182        60       FIXPVA
        183        60       FIXPVA
        184        60       FIXPVA
        185        60       FIXPVA
        186        60       FIXPVA
        187        60       FIXPVA
        188        60       FIXPVA
        189        60       FIXPVA
        190        60       FIXPVA
        191        60       FIXPVA
        192        60       FIXPVA
        193        60       FIXPVA
        194        60       FIXPVA
        195        60       FIXPVA
        196        60       FIXPVA
        197        60       FIXPVA
        198        60       FIXPVA
        199        60       FIXPVA
        200        60       FIXPVA
        201        60       FIXPVA
        202        60       FIXPVA
        203        60       FIXPVA
        204        60       FIXPVA
        205        60       FIXPVA
        206        60       FIXPVA
        207        60       FIXPVA
        208        60       FIXPVA
        209        60       FIXPVA
        210        60       FIXPVA
        211        60       FIXPVA
        212        60       FIXPVA
        213        60       FIXPVA
        214        60       FIXPVA
        215        60       FIXPVA
        216        60       FIXPVA
        217        60       FIXPVA
        218        60       FIXPVA
        219        60       FIXPVA
        220        60       FIXPVA
        221        60       FIXPVA
        222        60       FIXPVA
        223        60       FIXPVA
        224        60       FIXPVA
        225        60       FIXPVA
        226        60       FIXPVA
        227        60       FIXPVA
        228        60       FIXPVA
        229        60       FIXPVA
        230        60       FIXPVA
        231        60       FIXPVA
        232        60       FIXPVA
        233        60       FIXPVA
        234        60       FIXPVA
        235        60       FIXPVA
        236        60       FIXPVA
        237        60       FIXPVA
        238        60       FIXPVA
        239        60       FIXPVA
        240        60       FIXPVA
        241        60       FIXPVA
        242        60       FIXPVA
        243        60       FIXPVA
        244        60       FIXPVA
        245        60       FIXPVA
        246        60       FIXPVA
        247        60       FIXPVA
        248        60       FIXPVA
        249        60       FIXPVA
        250        60       FIXPVA
        251        60       FIXPVA
        252        60       FIXPVA
        253        60       FIXPVA
        254        60       FIXPVA
        255        60       FIXPVA
        256        60       FIXPVA
        257        60       FIXPVA
        258        60       FIXPVA
        259        60       FIXPVA
        260        60       FIXPVA
        261        60       FIXPVA
        262        60       FIXPVA
        263        60       FIXPVA
        264        60       FIXPVA
        265        60       FIXPVA
        266        60       FIXPVA
        267        60       FIXPVA
        268        60       FIXPVA
        269        60       FIXPVA
        270        60       FIXPVA
        271        60       FIXPVA
        272        60       FIXPVA
        273        60       FIXPVA
        274        60       FIXPVA
        275        60       FIXPVA
        276        60       FIXPVA
        277        60       FIXPVA
        278        60       FIXPVA
        279        60       FIXPVA
        280        60       FIXPVA
        281        60       FIXPVA
        282        60       FIXPVA
        283        60       FIXPVA
        284        60       FIXPVA
        285        60       FIXPVA
        286        60       FIXPVA
        287        60       FIXPVA
        288        60       FIXPVA
        289        60       FIXPVA
        290        60       FIXPVA
        291        60       FIXPVA
        292        60       FIXPVA
        293        60       FIXPVA
        294        60       FIXPVA
        295        60       FIXPVA
        296        60       FIXPVA
        297        60       FIXPVA
        298        60       FIXPVA
        299        60       FIXPVA
        300        60       FIXPVA
        301        60       FIXPVA
        302        60       FIXPVA
        303        60       FIXPVA
        304        60       FIXPVA
        305        60       FIXPVA
        306        60       FIXPVA
        307        60       FIXPVA
        308        60       FIXPVA
        309        60       FIXPVA
        310        60       FIXPVA
        311        60       FIXPVA
        312        60       FIXPVA
        313        60       FIXPVA
        314        60       FIXPVA
        315        60       FIXPVA
        316        60       FIXPVA
        317        60       FIXPVA
        318        60       FIXPVA
        319        60       FIXPVA
        320        60       FIXPVA
        321        60       FIXPVA
        322        60       FIXPVA
        323        60       FIXPVA
        324        60       FIXPVA
        325        60       FIXPVA
        326        60       FIXPVA
        327        60       FIXPVA
        328        60       FIXPVA
        329        60       FIXPVA
        330        60       FIXPVA
        331        60       FIXPVA
        332        60       FIXPVA
        333        60       FIXPVA
        334        60       FIXPVA
        335        60       FIXPVA
        336        60       FIXPVA
        337        60       FIXPVA
        338        60       FIXPVA
        339        60       FIXPVA
        340        60       FIXPVA
        341        60       FIXPVA
        342        60       FIXPVA
        343        60       FIXPVA
        344        60       FIXPVA
        345        60       FIXPVA
        346        60       FIXPVA
        347        60       FIXPVA
        348        60       FIXPVA
        349        60       FIXPVA
        350        60       FIXPVA

     ------------------------------
      FIXPVA TESSELLATION FOR PCM
         PEIFENG SU AND HUI LI
     UNIVERSITY OF NEBRASKA-LINCOLN
     ------------------------------


 PCM DIMENSIONS: MXSP=   350, MXTS=     14000, MEMORY=        143853

     INPUT FOR CAVITY DEFINITION 
     ---------------------------
   ATOM               COORDINATES                RADIUS       EPS
      1     -1.5550     -9.3030      0.2310      0.0100     78.3900
      2     -1.6670     -8.7430      1.0190      1.5900     78.3900
      3     -1.4020     -9.5710      2.1610      1.7700     78.3900
      4     -0.3850    -10.0140      2.0660      0.0100     78.3900
      5     -2.1340    -10.4070      2.1840      0.0100     78.3900
      6     -1.4960     -8.8100      3.4860      1.7700     78.3900
      7     -1.3140     -9.4910      4.3490      0.0100     78.3900
      8     -0.4820     -7.7620      3.5410      1.5900     78.3900
      9     -1.0360     -6.6210      4.1860      1.7700     78.3900
     10     -0.3700     -6.3750      5.0440      0.0100     78.3900
     11     -1.0950     -5.4650      3.2800      1.6800     78.3900
     12     -1.2410     -4.1580      3.6570      1.7700     78.3900
     13     -1.6180     -1.7790      6.1420      1.6800     78.3900
     14     -1.6240     -2.3290      6.9770      0.0100     78.3900
     15     -1.6890     -0.7810      6.2170      0.0100     78.3900
     16     -1.3690     -3.7130      4.9190      1.6800     78.3900
     17     -1.4600     -2.3890      4.9820      1.7700     78.3900
     18     -1.3940     -1.5790      3.8760      1.6800     78.3900
     19     -1.4550     -0.5820      4.0130      0.0100     78.3900
     20     -1.2580     -2.0090      2.5610      1.7700     78.3900
     21     -1.1980     -1.2060      1.6230      1.5900     78.3900
     22     -1.1900     -3.4260      2.4850      1.7700     78.3900
     23     -1.0460     -4.2620      1.3830      1.6800     78.3900
     24     -1.0020     -5.4670      1.9040      1.7700     78.3900
     25     -0.8900     -6.4000      1.3440      0.0100     78.3900
     26     -2.3990     -7.0090      4.7050      1.7700     78.3900
     27     -3.1090     -6.1590      4.7160      0.0100     78.3900
     28     -2.2830     -7.5500      6.0070      1.5900     78.3900
     29     -3.1660     -7.8400      6.2660      0.0100     78.3900
     30     -2.8230     -8.0670      3.6970      1.7700     78.3900
     31     -3.0920     -7.5920      2.7240      0.0100     78.3900
     32     -3.8280     -8.9860      4.1660      1.5900     78.3900
     33     -5.3520     -8.6540      3.9590      2.1000     78.3900
     34     -5.5680     -8.3110      2.5400      1.5900     78.3900
     35     -6.1230     -9.7900      4.5110      1.5900     78.3900
     36     -5.5890     -7.3750      4.8450      1.5900     78.3900
     37     -5.6100     -7.4820      6.2880      1.7700     78.3900
     38     -4.6990     -7.9830      6.6810      0.0100     78.3900
     39     -6.4840     -8.0820      6.6240      0.0100     78.3900
     40     -5.7230     -6.0970      6.9370      1.7700     78.3900
     41     -5.6680     -6.1680      8.0450      0.0100     78.3900
     42     -4.6350     -5.2380      6.4990      1.5900     78.3900
     43     -5.1070     -3.9060      6.3720      1.7700     78.3900
     44     -4.4850     -3.2830      7.0520      0.0100     78.3900
     45     -4.9520     -3.4000      5.0060      1.6800     78.3900
     46     -5.0140     -2.0880      4.6240      1.7700     78.3900
     47     -5.5350      1.2510      5.3820      1.6800     78.3900
     48     -5.7410      1.2250      6.3580      0.0100     78.3900
     49     -5.5760      2.1310      4.8980      0.0100     78.3900
     50     -5.2490     -1.0370      5.4330      1.6800     78.3900
     51     -5.2510      0.1180      4.7670      1.7700     78.3900
     52     -4.9830      0.2130      3.4280      1.6800     78.3900
     53     -5.0110      1.1280      3.0020      0.0100     78.3900
     54     -4.7110     -0.8490      2.5790      1.7700     78.3900
     55     -4.4750     -0.6600      1.3840      1.5900     78.3900
     56     -4.7650     -2.0910      3.2640      1.7700     78.3900
     57     -4.5840     -3.3870      2.7960      1.6800     78.3900
     58     -4.7120     -4.1330      3.8670      1.7700     78.3900
     59     -4.6610     -5.2220      3.8960      0.0100     78.3900
     60     -6.5490     -3.8840      6.8300      1.7700     78.3900
     61     -7.1680     -3.1600      6.2580      0.0100     78.3900
     62     -6.6060     -3.5730      8.2080      1.5900     78.3900
     63     -7.4900     -3.8080      8.5280      0.0100     78.3900
     64     -6.9860     -5.3160      6.5590      1.7700     78.3900
     65     -7.1420     -5.4800      5.4680      0.0100     78.3900
     66     -8.0980     -5.7530      7.3600      1.5900     78.3900
     67     -9.5490     -5.8640      6.7590      2.1000     78.3900
     68     -9.5640     -6.9510      5.7610      1.5900     78.3900
     69    -10.5160     -5.9690      7.8770      1.5900     78.3900
     70     -9.7680     -4.4980      6.0150      1.5900     78.3900
     71    -10.0600     -3.2710      6.7180      1.7700     78.3900
     72     -9.2420     -3.0090      7.4260      0.0100     78.3900
     73    -10.9980     -3.3720      7.3070      0.0100     78.3900
     74    -10.2440     -2.1070      5.7360      1.7700     78.3900
     75    -10.5420     -1.1750      6.2700      0.0100     78.3900
     76     -8.9820     -1.8470      5.0510      1.5900     78.3900
     77     -9.2380     -1.5690      3.6870      1.7700     78.3900
     78     -8.7620     -0.5840      3.4980      0.0100     78.3900
     79     -8.6400     -2.5810      2.7570      1.6800     78.3900
     80     -8.2200     -3.8050      3.2260      1.7700     78.3900
     81     -8.3840     -3.9880      4.2870      0.0100     78.3900
     82     -7.6350     -4.7060      2.4230      1.7700     78.3900
     83     -7.2890     -5.6750      2.7830      0.0100     78.3900
     84     -8.4770     -2.2940      1.4040      1.7700     78.3900
     85     -8.8300     -1.1960      0.9710      1.5900     78.3900
     86     -7.8740     -3.1720      0.5770      1.6800     78.3900
     87     -7.4450     -4.3470      1.0560      1.7700     78.3900
     88     -6.8430     -5.1810      0.2100      1.6800     78.3900
     89     -6.7020     -4.8690     -0.7340      0.0100     78.3900
     90     -6.4470     -6.0520      0.4940      0.0100     78.3900
     91    -10.7380     -1.4160      3.5340      1.7700     78.3900
     92    -11.0720     -1.7470      2.5380      0.0100     78.3900
     93    -11.1510     -0.0740      3.7700      1.5900     78.3900
     94    -10.6280      0.5310      3.2250      0.0100     78.3900
     95    -11.2540     -2.3650      4.6060      1.7700     78.3900
     96    -11.1270     -3.4220      4.2810      0.0100     78.3900
     97    -12.5910     -2.0860      5.0620      1.5900     78.3900
     98    -13.8420     -2.7640      4.3950      2.1000     78.3900
     99    -13.9620     -4.1230      4.9670      1.5900     78.3900
    100    -15.0140     -1.8800      4.5680      1.5900     78.3900
    101    -13.5220     -2.8970      2.8600      1.5900     78.3900
    102    -13.7140     -1.8050      1.9300      1.7700     78.3900
    103    -13.1600     -0.8990      2.2580      0.0100     78.3900
    104    -14.7910     -1.5240      1.8690      0.0100     78.3900
    105    -13.2390     -2.1870      0.5130      1.7700     78.3900
    106    -13.2940     -1.3360     -0.1900      0.0100     78.3900
    107    -11.8430     -2.5670      0.5190      1.5900     78.3900
    108    -11.6280     -3.6520     -0.3570      1.7700     78.3900
    109    -10.8840     -3.2830     -1.1010      0.0100     78.3900
    110    -11.0860     -4.8260      0.3640      1.6800     78.3900
    111    -11.2590     -4.9630      1.7230      1.7700     78.3900
    112    -11.7770     -4.1420      2.2120      0.0100     78.3900
    113    -10.4020     -5.7730     -0.3640      1.7700     78.3900
    114    -10.2350     -5.6850     -1.5760      1.5900     78.3900
    115     -9.9200     -6.8230      0.3750      1.6800     78.3900
    116     -9.4140     -7.5250     -0.1420      0.0100     78.3900
    117    -10.0360     -7.0100      1.7380      1.7700     78.3900
    118     -9.5330     -7.9940      2.2700      1.5900     78.3900
    119    -10.7620     -5.9880      2.4220      1.7700     78.3900
    120    -10.8690     -6.0550      3.5030      0.0100     78.3900
    121    -12.9440     -3.9500     -1.0570      1.7700     78.3900
    122    -13.1060     -5.0400     -1.2050      0.0100     78.3900
    123    -12.9620     -3.2980     -2.3070      1.5900     78.3900
    124    -13.8510     -2.9340     -2.4870      0.0100     78.3900
    125    -13.9730     -3.3830     -0.0860      1.7700     78.3900
    126    -14.1240     -4.0930      0.7570      0.0100     78.3900
    127    -15.2270     -2.9630     -0.6760      1.5900     78.3900
    128    -16.2420     -4.1050     -1.0970      2.1000     78.3900
    129    -15.7540     -5.4130     -0.6060      1.5900     78.3900
    130    -17.5930     -3.7010     -0.6530      1.5900     78.3900
    131    -16.1920     -4.0860     -2.6740      1.5900     78.3900
    132    -16.8980     -5.0990     -3.4370      1.7700     78.3900
    133    -17.7320     -5.5720     -2.8610      0.0100     78.3900
    134    -16.1840     -5.9070     -3.7070      0.0100     78.3900
    135    -17.5010     -4.5470     -4.7400      1.7700     78.3900
    136    -17.9270     -5.3680     -5.3550      0.0100     78.3900
    137    -18.6050     -3.6590     -4.4160      1.5900     78.3900
    138    -18.5590     -2.5100     -5.2500      1.7700     78.3900
    139    -19.5630     -2.4720     -5.7380      0.0100     78.3900
    140    -18.3700     -1.2440     -4.4870      1.6800     78.3900
    141    -18.0290     -1.2880     -3.1540      1.7700     78.3900
    142    -17.8560     -2.2790     -2.7310      0.0100     78.3900
    143    -17.9140     -0.1710     -2.4290      1.7700     78.3900
    144    -17.6700     -0.1920     -1.3680      0.0100     78.3900
    145    -18.5790     -0.0110     -5.1080      1.7700     78.3900
    146    -18.8920      0.0140     -6.3090      1.5900     78.3900
    147    -18.4590      1.1320     -4.3870      1.6800     78.3900
    148    -18.1380      1.0720     -3.0830      1.7700     78.3900
    149    -18.0560      2.2010     -2.3880      1.6800     78.3900
    150    -17.6830      2.2110     -1.4570      0.0100     78.3900
    151    -18.1650      3.0750     -2.8610      0.0100     78.3900
    152    -17.4970     -2.7460     -6.3110      1.7700     78.3900
    153    -16.9590     -1.8110     -6.5870      0.0100     78.3900
    154    -18.0920     -3.3240     -7.4600      1.5900     78.3900
    155    -17.3820     -3.7050     -7.9970      0.0100     78.3900
    156    -16.5490     -3.7250     -5.6230      1.7700     78.3900
    157    -15.8620     -3.1870     -4.9370      0.0100     78.3900
    158    -15.8530     -4.6150     -6.5110      1.5900     78.3900
    159    -14.4820     -4.3720     -7.2140      2.1000     78.3900
    160    -13.4060     -4.7120     -6.2600      1.5900     78.3900
    161    -14.4850     -5.0980     -8.5040      1.5900     78.3900
    162    -14.4060     -2.8420     -7.4920      1.5900     78.3900
    163    -14.9320     -2.1550     -8.6450      1.7700     78.3900
    164    -16.0420     -2.2100     -8.6470      0.0100     78.3900
    165    -14.5760     -2.6310     -9.5890      0.0100     78.3900
    166    -14.5580     -0.6520     -8.6940      1.7700     78.3900
    167    -15.0520     -0.1740     -9.5660      0.0100     78.3900
    168    -14.9630      0.0480     -7.4770      1.5900     78.3900
    169    -13.8120      0.3330     -6.6880      1.7700     78.3900
    170    -13.6300      1.4270     -6.7840      0.0100     78.3900
    171    -14.0600     -0.0270     -5.2960      1.6800     78.3900
    172    -14.5850      0.0310     -3.1640      1.7700     78.3900
    173    -14.4840     -1.2980     -3.5080      1.6800     78.3900
    174    -14.1530     -1.2860     -4.7690      1.7700     78.3900
    175    -13.9520     -2.1810     -5.3530      0.0100     78.3900
    176    -14.8730      2.0250     -1.9350      1.6800     78.3900
    177    -14.5960      2.6680     -3.0710      1.7700     78.3900
    178    -14.6030      3.7630     -3.0030      0.0100     78.3900
    179    -14.3350      2.1780     -4.2890      1.6800     78.3900
    180    -14.3370      0.8340     -4.2620      1.7700     78.3900
    181    -14.8800      0.6730     -1.9450      1.7700     78.3900
    182    -15.2130      0.0310     -0.8100      1.6800     78.3900
    183    -15.2110     -0.9750     -0.7650      0.0100     78.3900
    184    -15.3890      0.5590      0.0200      0.0100     78.3900
    185    -12.6550     -0.4220     -7.3100      1.7700     78.3900
    186    -12.6190     -1.4650     -6.9410      0.0100     78.3900
    187    -11.3960      0.1480     -7.0890      1.5900     78.3900
    188    -11.3600      1.0270     -7.4870      0.0100     78.3900
    189    -13.0420     -0.3990     -8.7780      1.7700     78.3900
    190    -12.5740     -1.2890     -9.2620      0.0100     78.3900
    191    -12.7260      0.8490     -9.4510      1.5900     78.3900
    192    -12.1840      0.8100    -10.9310      2.1000     78.3900
    193    -12.4790     -0.5150    -11.5220      1.5900     78.3900
    194    -12.7120      1.9930    -11.6430      1.5900     78.3900
    195    -10.6270      0.9650    -10.7740      1.5900     78.3900
    196     -9.7350      0.4060    -11.7730      1.7700     78.3900
    197    -10.2180      0.2780    -12.7710      0.0100     78.3900
    198     -9.4010     -0.5980    -11.4270      0.0100     78.3900
    199     -8.4800      1.2700    -11.9590      1.7700     78.3900
    200     -7.7050      0.7180    -12.5320      0.0100     78.3900
    201     -8.7990      2.4590    -12.7330      1.5900     78.3900
    202     -8.0910      3.5740    -12.2030      1.7700     78.3900
    203     -7.5070      3.9870    -13.0620      0.0100     78.3900
    204     -9.0160      4.6120    -11.6680      1.6800     78.3900
    205    -10.3290      4.3100    -11.3640      1.7700     78.3900
    206    -10.6270      3.2740    -11.5300      0.0100     78.3900
    207     -8.5270      5.8880    -11.4880      1.7700     78.3900
    208     -7.3620      6.1940    -11.7300      1.5900     78.3900
    209     -9.4430      6.7960    -11.0200      1.6800     78.3900
    210     -9.1060      7.7410    -10.9000      0.0100     78.3900
    211    -10.7770      6.5780    -10.7430      1.7700     78.3900
    212    -11.4920      7.5110    -10.3750      1.5900     78.3900
    213    -11.2070      5.2240    -10.9300      1.7700     78.3900
    214    -12.2490      4.9680    -10.7430      0.0100     78.3900
    215     -7.1230      3.0420    -11.1500      1.7700     78.3900
    216     -6.9690      3.7640    -10.3170      0.0100     78.3900
    217     -5.8730      2.7140    -11.7330      1.5900     78.3900
    218     -5.3570      2.2630    -11.0470      0.0100     78.3900
    219     -7.8580      1.8000    -10.6630      1.7700     78.3900
    220     -8.6900      2.1010     -9.9900      0.0100     78.3900
    221     -7.0390      0.7710    -10.0810      1.5900     78.3900
    222     -6.4000      0.9330     -8.6610      2.1000     78.3900
    223     -6.4870     -0.3700     -7.9660      1.5900     78.3900
    224     -5.0500      1.5030     -8.8490      1.5900     78.3900
    225     -7.2870      2.0050     -7.9150      1.5900     78.3900
    226     -8.3060      1.5740     -6.9940      1.7700     78.3900
    227     -7.8640      0.9970     -6.1470      0.0100     78.3900
    228     -9.0320      0.9090     -7.5200      0.0100     78.3900
    229     -9.0590      2.7840     -6.4260      1.7700     78.3900
    230     -9.3640      3.4860     -7.2310      0.0100     78.3900
    231    -10.2700      2.2970     -5.7930      1.5900     78.3900
    232    -10.5220      2.9960     -4.5930      1.7700     78.3900
    233    -11.5550      3.4040     -4.6730      0.0100     78.3900
    234    -10.4560      2.1110     -3.4250      1.6800     78.3900
    235    -10.7350      1.2640     -1.4140      1.7700     78.3900
    236    -10.0410      0.3090     -2.1420      1.6800     78.3900
    237     -9.9040      0.8550     -3.3280      1.7700     78.3900
    238     -9.4170      0.3860     -4.1860      0.0100     78.3900
    239    -11.8560      2.4180      0.3140      1.6800     78.3900
    240    -12.0260      3.4150     -0.5490      1.7700     78.3900
    241    -12.5580      4.2860     -0.1490      0.0100     78.3900
    242    -11.6050      3.5110     -1.8110      1.6800     78.3900
    243    -10.9870      2.3800     -2.1930      1.7700     78.3900
    244    -11.2160      1.3000     -0.0890      1.7700     78.3900
    245    -11.1020      0.3060      0.7970      1.6800     78.3900
    246    -10.5940     -0.5320      0.5600      0.0100     78.3900
    247    -11.6880      0.2890      1.6000      0.0100     78.3900
    248     -9.5310      4.1240     -4.5230      1.7700     78.3900
    249     -9.2420      4.3750     -3.4830      0.0100     78.3900
    250    -10.0650      5.2670     -5.1560      1.5900     78.3900
    251     -9.3310      5.8850     -5.2490      0.0100     78.3900
    252     -8.3500      3.5580     -5.3070      1.7700     78.3900
    253     -7.8060      2.7970     -4.7030      0.0100     78.3900
    254     -7.4740      4.5570     -5.8690      1.5900     78.3900
    255     -6.2430      5.0610     -5.0280      2.1000     78.3900
    256     -5.4910      3.8960     -4.5170      1.5900     78.3900
    257     -5.4970      6.0400     -5.8460      1.5900     78.3900
    258     -6.8820      5.7980     -3.7940      1.5900     78.3900
    259     -7.5450      7.0750     -3.9090      1.7700     78.3900
    260     -8.3630      7.0420     -4.6610      0.0100     78.3900
    261     -6.8210      7.8570     -4.2330      0.0100     78.3900
    262     -8.1470      7.5130     -2.5640      1.7700     78.3900
    263     -8.7090      8.4670     -2.6680      0.0100     78.3900
    264     -9.0900      6.5120     -2.0780      1.5900     78.3900
    265     -8.9310      6.3470     -0.6770      1.7700     78.3900
    266     -9.9340      6.5150     -0.2210      0.0100     78.3900
    267     -8.4870      4.9940     -0.3510      1.6800     78.3900
    268     -8.0700      3.1160      0.6970      1.7700     78.3900
    269     -7.6560      2.9280     -0.6130      1.6800     78.3900
    270     -7.9190      4.0690     -1.1910      1.7700     78.3900
    271     -7.7070      4.2990     -2.2340      0.0100     78.3900
    272     -8.5440      2.7600      2.9910      1.6800     78.3900
    273     -8.9840      4.0230      3.0130      1.7700     78.3900
    274     -9.3600      4.3700      3.9850      0.0100     78.3900
    275     -9.0500      4.9140      2.0130      1.6800     78.3900
    276     -8.5790      4.3860      0.8720      1.7700     78.3900
    277     -8.0500      2.2780      1.8260      1.7700     78.3900
    278     -7.5400      1.0440      1.8030      1.6800     78.3900
    279     -7.4570      0.5520      0.9320      0.0100     78.3900
    280     -7.6690      0.4990      2.6190      0.0100     78.3900
    281     -7.9630      7.4050     -0.1890      1.7700     78.3900
    282     -7.3240      7.0570      0.6520      0.0100     78.3900
    283     -8.6810      8.5580      0.2010      1.5900     78.3900
    284     -8.0340      9.2640      0.3570      0.0100     78.3900
    285     -7.1210      7.6600     -1.4330      1.7700     78.3900
    286     -6.3930      6.8270     -1.5720      0.0100     78.3900
    287     -6.5100      8.9680     -1.4920      1.5900     78.3900
    288     -5.0750      9.1760     -0.8920      2.1000     78.3900
    289     -4.3130      7.9210     -1.0560      1.5900     78.3900
    290     -4.4940     10.3970     -1.4880      1.5900     78.3900
    291     -5.3140      9.4300      0.6430      1.5900     78.3900
    292     -4.2220      9.2280      1.5870      1.7700     78.3900
    293     -3.7500     10.2080      1.8280      0.0100     78.3900
    294     -3.4070      8.5830      1.1740      0.0100     78.3900
    295     -4.6850      8.5670      2.9040      1.7700     78.3900
    296     -5.0970      9.3230      3.6030      0.0100     78.3900
    297     -5.7540      7.6020      2.6470      1.5900     78.3900
    298     -5.5140      6.4180      3.3920      1.7700     78.3900
    299     -6.4700      6.1980      3.9250      0.0100     78.3900
    300     -5.1590      5.2550      2.5330      1.6800     78.3900
    301     -4.7320      5.4410      1.2330      1.7700     78.3900
    302     -4.6720      6.4740      0.8780      0.0100     78.3900
    303     -4.4320      4.3980      0.4470      1.7700     78.3900
    304     -4.1030      4.5210     -0.5840      0.0100     78.3900
    305     -5.2500      3.9660      3.0530      1.7700     78.3900
    306     -5.6320      3.8110      4.2240      1.5900     78.3900
    307     -4.9220      2.9090      2.2800      1.6800     78.3900
    308     -4.5530      3.0910      1.0000      1.7700     78.3900
    309     -4.2980      2.0280      0.2430      1.6800     78.3900
    310     -4.4000      1.1080      0.6260      0.0100     78.3900
    311     -4.0080      2.1170     -0.7120      0.0100     78.3900
    312     -4.4370      6.7420      4.4070      1.7700     78.3900
    313     -3.8470      5.8520      4.7060      0.0100     78.3900
    314     -5.0100      7.3410      5.5550      1.5900     78.3900
    315     -4.2840      7.6510      6.1100      0.0100     78.3900
    316     -3.5990      7.7400      3.6230      1.7700     78.3900
    317     -3.0380      7.2080      2.8210      0.0100     78.3900
    318     -2.7640      8.5970      4.4340      1.5900     78.3900
    319     -1.2240      8.2930      4.5690      2.1000     78.3900
    320     -0.6970      7.8570      3.2590      1.5900     78.3900
    321     -0.5700      9.4590      5.1990      1.5900     78.3900
    322     -1.1890      7.0720      5.5610      1.5900     78.3900
    323     -1.6240      7.2210      6.9310      1.7700     78.3900
    324     -2.6640      7.6140      6.9880      0.0100     78.3900
    325     -0.9580      7.9320      7.4710      0.0100     78.3900
    326     -1.5830      5.8800      7.6770      1.7700     78.3900
    327     -1.8330      6.0140      8.7510      0.0100     78.3900
[...]
          -----------------
          DENSITY CONVERGED
          -----------------
     TIME TO FORM FOCK OPERATORS=      33.3 SECONDS (       2.0 SEC/ITER)
     FOCK TIME ON FIRST ITERATION=       2.6, LAST ITERATION=       1.2
     TIME TO SOLVE SCF EQUATIONS=       0.6 SECONDS (       0.0 SEC/ITER)

 FINAL RHF ENERGY IS    -1377.8989975317 AFTER  17 ITERATIONS
 ...... END OF RHF CALCULATION ......
 CPU     0: STEP CPU TIME=    48.74 TOTAL CPU TIME=        184.2 (      3.1 MIN)
 TOTAL WALL CLOCK TIME=        436.6 SECONDS, CPU UTILIZATION IS    42.18%
 DONE PCM POT.
 CPU     0: STEP CPU TIME=     0.38 TOTAL CPU TIME=        184.5 (      3.1 MIN)
 TOTAL WALL CLOCK TIME=        437.7 SECONDS, CPU UTILIZATION IS    42.16%

 Iter=  1 iFrag=      6 EFMO= -1432.171936838, DD= 0.425502135, DE=************


 RHF      monomer      9 corr= NONE       , L1=   371, L0=   348 ID=      4


 AO spaces for     9     0     0 n-mer: L1=   371, L0=   348

 DIRECT SCF CALCULATION, SCHWRZ=T   FDIFF=T,  DIRTHR=  0.00E+00 NITDIR=10

                                                                                   NONZERO     BLOCKS
 ITER EX DEM     TOTAL ENERGY        E CHANGE  DENSITY CHANGE     ORB. GRAD      INTEGRALS    SKIPPED
   1  0  0  1243882.5147934991*****************   0.524554938   0.000000000      802320362   15147339
          ---------------START SECOND ORDER SCF---------------
   2  1  0    -1377.0587094133*****************   0.406190842   0.093772150      806741559   15146957
   3  2  0    -1377.3228966256    -0.2641872123   0.168430188   0.069524290      800512124   15411623
   4  3  0    -1377.6629038887    -0.3400072632   0.054761247   0.011152176      788894998   15699406
   5  4  0    -1377.6708457080    -0.0079418192   0.014264657   0.005244692      769252852   16016409
   6  5  0    -1377.6721752017    -0.0013294937   0.003314110   0.002353925      745997648   16318880
   7  6  0    -1377.6723565633    -0.0001813616   0.001146914   0.000694512      718117350   16630165
   8  7  0    -1377.6723885583    -0.0000319950   0.000809744   0.000333933      688416182   16912255
   9  8  0    -1377.6723949121    -0.0000063538   0.000359471   0.000136893      664043868   17142541
  10  9  0    -1377.6723963125    -0.0000014004   0.000123413   0.000041049      633651000   17424961
  11 10  0    -1377.6723965142    -0.0000002017   0.000043022   0.000014928      610521631   17599721
  12 11  0    -1377.6723965393    -0.0000000251   0.000018596   0.000008548      577277692   17883369
  13 12  0    -1377.6723965431    -0.0000000038   0.000004931   0.000001778      535121678   18256230
  14 13  0    -1377.6723965440    -0.0000000009   0.000002032   0.000000859      498468913   18560551
  15 14  0    -1377.6723965441    -0.0000000001   0.000001079   0.000000312      457130854   18911782
  16 15  0    -1377.6723965432     0.0000000009   0.000000331   0.000000097      420019653   19231246
  17 16  0    -1377.6723965433    -0.0000000001   0.000000107   0.000000024      379315772   19533740

          -----------------
          DENSITY CONVERGED
          -----------------
     TIME TO FORM FOCK OPERATORS=      34.0 SECONDS (       2.0 SEC/ITER)
     FOCK TIME ON FIRST ITERATION=       2.4, LAST ITERATION=       1.5
     TIME TO SOLVE SCF EQUATIONS=       0.6 SECONDS (       0.0 SEC/ITER)

 FINAL RHF ENERGY IS    -1377.6723965433 AFTER  17 ITERATIONS
 ...... END OF RHF CALCULATION ......
 CPU     0: STEP CPU TIME=    54.19 TOTAL CPU TIME=        238.7 (      4.0 MIN)
 TOTAL WALL CLOCK TIME=        560.8 SECONDS, CPU UTILIZATION IS    42.57%
 DONE PCM POT.
 CPU     0: STEP CPU TIME=     0.40 TOTAL CPU TIME=        239.1 (      4.0 MIN)
 TOTAL WALL CLOCK TIME=        561.9 SECONDS, CPU UTILIZATION IS    42.56%

 Iter=  1 iFrag=      9 EFMO= -1432.204727907, DD= 0.437290499, DE=************


 RHF      monomer      8 corr= NONE       , L1=   371, L0=   348 ID=      5


 AO spaces for     8     0     0 n-mer: L1=   371, L0=   348

 DIRECT SCF CALCULATION, SCHWRZ=T   FDIFF=T,  DIRTHR=  0.00E+00 NITDIR=10

                                                                                   NONZERO     BLOCKS
 ITER EX DEM     TOTAL ENERGY        E CHANGE  DENSITY CHANGE     ORB. GRAD      INTEGRALS    SKIPPED
   1  0  0  1291409.3014824607*****************   0.525696040   0.000000000      833084384   14976181
          ---------------START SECOND ORDER SCF---------------
   2  1  0    -1369.9222540698*****************   0.415819891   0.081311858      838373948   14974951
   3  2  0    -1370.1886787628    -0.2664246930   0.175817990   0.068271115      831410736   15232632
   4  3  0    -1370.5390453856    -0.3503666228   0.052823989   0.013391476      817142057   15537076
   5  4  0    -1370.5472799810    -0.0082345954   0.014399910   0.003997867      795857900   15842497
   6  5  0    -1370.5486592776    -0.0013792966   0.003416656   0.002460667      769848753   16152902
   7  6  0    -1370.5488394652    -0.0001801876   0.001002349   0.000746022      740692734   16463208
   8  7  0    -1370.5488731070    -0.0000336418   0.000596102   0.000347183      709064545   16756698
   9  8  0    -1370.5488790630    -0.0000059560   0.000382300   0.000148710      681152338   17011144
  10  9  0    -1370.5488805795    -0.0000015164   0.000239920   0.000069696      653839632   17270085
  11 10  0    -1370.5488808118    -0.0000002324   0.000109712   0.000051850      633636941   17425471
  12 11  0    -1370.5488808700    -0.0000000582   0.000024091   0.000010982      601074999   17685244
  13 12  0    -1370.5488808769    -0.0000000069   0.000007053   0.000002688      557522515   18067224
  14 13  0    -1370.5488808782    -0.0000000012   0.000003084   0.000001740      516183556   18420266
  15 14  0    -1370.5488808786    -0.0000000004   0.000001249   0.000000517      479034902   18733537
  16 15  0    -1370.5488808777     0.0000000009   0.000000461   0.000000222      437846685   19077179
  17 16  0    -1370.5488808777    -0.0000000000   0.000000164   0.000000048      404550890   19327866
  18 17  0    -1370.5488808771     0.0000000006   0.000000048   0.000000029      360805228   19674610

          -----------------
          DENSITY CONVERGED
          -----------------
     TIME TO FORM FOCK OPERATORS=      36.4 SECONDS (       2.0 SEC/ITER)
     FOCK TIME ON FIRST ITERATION=       3.4, LAST ITERATION=       1.1
     TIME TO SOLVE SCF EQUATIONS=       0.6 SECONDS (       0.0 SEC/ITER)

 FINAL RHF ENERGY IS    -1370.5488808771 AFTER  18 ITERATIONS
 ...... END OF RHF CALCULATION ......
 CPU     0: STEP CPU TIME=    61.10 TOTAL CPU TIME=        300.2 (      5.0 MIN)
 TOTAL WALL CLOCK TIME=        697.9 SECONDS, CPU UTILIZATION IS    43.02%
 DONE PCM POT.
 CPU     0: STEP CPU TIME=     0.50 TOTAL CPU TIME=        300.7 (      5.0 MIN)
 TOTAL WALL CLOCK TIME=        698.9 SECONDS, CPU UTILIZATION IS    43.03%

 Iter=  1 iFrag=      8 EFMO= -1432.133064005, DD= 0.437947249, DE=************


 RHF      monomer      3 corr= NONE       , L1=   341, L0=   320 ID=      6


 AO spaces for     3     0     0 n-mer: L1=   341, L0=   320

 DIRECT SCF CALCULATION, SCHWRZ=T   FDIFF=T,  DIRTHR=  0.00E+00 NITDIR=10

                                                                                   NONZERO     BLOCKS
 ITER EX DEM     TOTAL ENERGY        E CHANGE  DENSITY CHANGE     ORB. GRAD      INTEGRALS    SKIPPED
   1  0  0  1277880.4833790932*****************   0.518319922   0.000000000      662084576   10611397
          ---------------START SECOND ORDER SCF---------------
   2  1  0    -1307.4776888780*****************   0.404962266   0.085715036      665817960   10606352
   3  2  0    -1307.6967072704    -0.2190183924   0.168915579   0.072796279      661004707   10800833
   4  3  0    -1308.1237698083    -0.4270625379   0.072378810   0.020107196      651936717   11026942
   5  4  0    -1308.1367510341    -0.0129812258   0.011716423   0.007435886      639758933   11243102
   6  5  0    -1308.1386903241    -0.0019392900   0.004332953   0.001750903      618449059   11535509
   7  6  0    -1308.1388428214    -0.0001524973   0.001877714   0.001120762      593534419   11817425
   8  7  0    -1308.1388814331    -0.0000386118   0.000767855   0.000315897      572700028   12044157
   9  8  0    -1308.1388849433    -0.0000035102   0.000301162   0.000163552      547038331   12295351
  10  9  0    -1308.1388859382    -0.0000009949   0.000178023   0.000121776      523558771   12524460
  11 10  0    -1308.1388861065    -0.0000001683   0.000060195   0.000063397      503979357   12704286
  12 11  0    -1308.1388861722    -0.0000000658   0.000042380   0.000016163      480503313   12913456
  13 12  0    -1308.1388861776    -0.0000000054   0.000015515   0.000008714      454531887   13161314
  14 13  0    -1308.1388861815    -0.0000000039   0.000005319   0.000001575      427240710   13415537
  15 14  0    -1308.1388861818    -0.0000000003   0.000001790   0.000000687      399588518   13622332
  16 15  0    -1308.1388861822    -0.0000000004   0.000000712   0.000000431      371879147   13852704
  17 16  0    -1308.1388861812     0.0000000010   0.000000223   0.000000113      338759705   14146128
  18 17  0    -1308.1388861818    -0.0000000006   0.000000116   0.000000042      303016832   14432153

          -----------------
          DENSITY CONVERGED
          -----------------
     TIME TO FORM FOCK OPERATORS=      29.6 SECONDS (       1.6 SEC/ITER)
     FOCK TIME ON FIRST ITERATION=       2.0, LAST ITERATION=       0.9
     TIME TO SOLVE SCF EQUATIONS=       0.5 SECONDS (       0.0 SEC/ITER)

 FINAL RHF ENERGY IS    -1308.1388861818 AFTER  18 ITERATIONS
 ...... END OF RHF CALCULATION ......
 CPU     0: STEP CPU TIME=    56.38 TOTAL CPU TIME=        357.1 (      6.0 MIN)
 TOTAL WALL CLOCK TIME=        834.9 SECONDS, CPU UTILIZATION IS    42.77%
 DONE PCM POT.
 CPU     0: STEP CPU TIME=     0.34 TOTAL CPU TIME=        357.4 (      6.0 MIN)
 TOTAL WALL CLOCK TIME=        835.8 SECONDS, CPU UTILIZATION IS    42.77%

 Iter=  1 iFrag=      3 EFMO= -1360.223622064, DD= 0.558978017, DE=************


 RHF      monomer     10 corr= NONE       , L1=   341, L0=   320 ID=      7


 AO spaces for    10     0     0 n-mer: L1=   341, L0=   320

 DIRECT SCF CALCULATION, SCHWRZ=T   FDIFF=T,  DIRTHR=  0.00E+00 NITDIR=10

                                                                                   NONZERO     BLOCKS
 ITER EX DEM     TOTAL ENERGY        E CHANGE  DENSITY CHANGE     ORB. GRAD      INTEGRALS    SKIPPED
   1  0  0  1344657.5517326687*****************   0.531320977   0.000000000      664746129   10488825
          ---------------START SECOND ORDER SCF---------------
   2  1  0    -1320.0247383711*****************   0.424503764   0.112470466      668290328   10487136
   3  2  0    -1320.2765550791    -0.2518167081   0.174105768   0.073762712      664128435   10681163
   4  3  0    -1320.6980223800    -0.4214673009   0.055372162   0.013200940      655088234   10920498
   5  4  0    -1320.7095086132    -0.0114862332   0.014532770   0.004166428      641253978   11164496
   6  5  0    -1320.7111095627    -0.0016009495   0.003743477   0.002512840      620025100   11453643
   7  6  0    -1320.7112681114    -0.0001585487   0.001443578   0.001134008      596348646   11718715
   8  7  0    -1320.7113023412    -0.0000342297   0.000792397   0.000337425      573489759   11966551
   9  8  0    -1320.7113064660    -0.0000041248   0.000334221   0.000117597      548754043   12216273
  10  9  0    -1320.7113074101    -0.0000009441   0.000117235   0.000028357      520196579   12489578
  11 10  0    -1320.7113075101    -0.0000001000   0.000033958   0.000016825      498077069   12670007
  12 11  0    -1320.7113075252    -0.0000000150   0.000013270   0.000006428      466736217   12950077
  13 12  0    -1320.7113075264    -0.0000000012   0.000005279   0.000001510      433332870   13261158
  14 13  0    -1320.7113075272    -0.0000000009   0.000001584   0.000000604      400617001   13549980
  15 14  0    -1320.7113075263     0.0000000010   0.000000653   0.000000235      366504927   13845377
  16 15  0    -1320.7113075272    -0.0000000009   0.000000203   0.000000089      334484757   14133088
  17 16  0    -1320.7113075270     0.0000000002   0.000000093   0.000000033      304708978   14382791

          -----------------
          DENSITY CONVERGED
          -----------------
     TIME TO FORM FOCK OPERATORS=      29.6 SECONDS (       1.7 SEC/ITER)
     FOCK TIME ON FIRST ITERATION=       2.5, LAST ITERATION=       1.0
     TIME TO SOLVE SCF EQUATIONS=       0.5 SECONDS (       0.0 SEC/ITER)

 FINAL RHF ENERGY IS    -1320.7113075270 AFTER  17 ITERATIONS
 ...... END OF RHF CALCULATION ......
 CPU     0: STEP CPU TIME=    52.48 TOTAL CPU TIME=        409.9 (      6.8 MIN)
 TOTAL WALL CLOCK TIME=        951.3 SECONDS, CPU UTILIZATION IS    43.09%
 DONE PCM POT.
 CPU     0: STEP CPU TIME=     0.35 TOTAL CPU TIME=        410.3 (      6.8 MIN)
 TOTAL WALL CLOCK TIME=        952.2 SECONDS, CPU UTILIZATION IS    43.09%

 Iter=  1 iFrag=     10 EFMO= -1360.204614623, DD= 0.513457483, DE=************


 RHF      monomer      5 corr= NONE       , L1=   341, L0=   320 ID=      8


 AO spaces for     5     0     0 n-mer: L1=   341, L0=   320

 DIRECT SCF CALCULATION, SCHWRZ=T   FDIFF=T,  DIRTHR=  0.00E+00 NITDIR=10

                                                                                   NONZERO     BLOCKS
 ITER EX DEM     TOTAL ENERGY        E CHANGE  DENSITY CHANGE     ORB. GRAD      INTEGRALS    SKIPPED
   1  0  0  1276050.5991493214*****************   0.525725897   0.000000000      644823868   10725747
          ---------------START SECOND ORDER SCF---------------
   2  1  0    -1311.8228934050*****************   0.422379401   0.110287066      648410305   10722316
   3  2  0    -1312.0422131140    -0.2193197090   0.175157790   0.071635961      643731346   10918445
   4  3  0    -1312.4672416285    -0.4250285145   0.062393943   0.019315907      634590773   11145702
   5  4  0    -1312.4799164619    -0.0126748335   0.013742355   0.006636019      622775355   11354969
   6  5  0    -1312.4816215337    -0.0017050717   0.003371168   0.001677595      602375533   11637333
   7  6  0    -1312.4817517069    -0.0001301732   0.001464719   0.000934459      578928751   11911234
   8  7  0    -1312.4817830104    -0.0000313036   0.001548912   0.000574690      560535149   12115702
   9  8  0    -1312.4817837352    -0.0000007248   0.000952924   0.000650640      545522857   12281886
  10  9  0    -1312.4817897231    -0.0000059879   0.000485873   0.000163563      528484381   12448508
  11 10  0    -1312.4817894096     0.0000003135   0.000296147   0.000281037      507256444   12654332
  12 11  0    -1312.4817903187    -0.0000009091   0.000068816   0.000017549      488716349   12840724
  13 12  0    -1312.4817903373    -0.0000000186   0.000027863   0.000025762      463418019   13059345
  14 13  0    -1312.4817903493    -0.0000000120   0.000013645   0.000006847      440167358   13257021
  15 14  0    -1312.4817903499    -0.0000000006   0.000006524   0.000005356      423891160   13393534
  16 15  0    -1312.4817903516    -0.0000000017   0.000001841   0.000000706      390577095   13686992
  17 16  0    -1312.4817903512     0.0000000003   0.000001002   0.000000611      361687923   13923667
  18 17  0    -1312.4817903506     0.0000000006   0.000000298   0.000000106      332221327   14193297
  19 18  0    -1312.4817903509    -0.0000000003   0.000000128   0.000000072      302211228   14428490

          -----------------
          DENSITY CONVERGED
          -----------------
     TIME TO FORM FOCK OPERATORS=      30.5 SECONDS (       1.6 SEC/ITER)
     FOCK TIME ON FIRST ITERATION=       1.9, LAST ITERATION=       0.8
     TIME TO SOLVE SCF EQUATIONS=       0.6 SECONDS (       0.0 SEC/ITER)

 FINAL RHF ENERGY IS    -1312.4817903509 AFTER  19 ITERATIONS
 ...... END OF RHF CALCULATION ......
 CPU     0: STEP CPU TIME=    40.08 TOTAL CPU TIME=        450.4 (      7.5 MIN)
 TOTAL WALL CLOCK TIME=       1046.7 SECONDS, CPU UTILIZATION IS    43.03%
 DONE PCM POT.
 CPU     0: STEP CPU TIME=     0.35 TOTAL CPU TIME=        450.7 (      7.5 MIN)
 TOTAL WALL CLOCK TIME=       1047.6 SECONDS, CPU UTILIZATION IS    43.02%

 Iter=  1 iFrag=      5 EFMO= -1360.242102046, DD= 0.540722205, DE=************


 RHF      monomer      7 corr= NONE       , L1=   339, L0=   318 ID=      9


 AO spaces for     7     0     0 n-mer: L1=   339, L0=   318

 DIRECT SCF CALCULATION, SCHWRZ=T   FDIFF=T,  DIRTHR=  0.00E+00 NITDIR=10

                                                                                   NONZERO     BLOCKS
 ITER EX DEM     TOTAL ENERGY        E CHANGE  DENSITY CHANGE     ORB. GRAD      INTEGRALS    SKIPPED
   1  0  0  1298913.2500874719*****************   0.520575670   0.000000000      650382464    9602558
          ---------------START SECOND ORDER SCF---------------
   2  1  0    -1328.6645676637*****************   0.412822582   0.147168743      654013246    9595657
   3  2  0    -1328.7884531417    -0.1238854780   0.166406908   0.101085773      650591381    9753790
   4  3  0    -1329.4963137255    -0.7078605837   0.090663280   0.030713487      642974106    9954792
   5  4  0    -1329.5212447822    -0.0249310568   0.021650601   0.012228915      634015825   10134944
   6  5  0    -1329.5256953897    -0.0044506075   0.019677111   0.007221722      620198762   10362547
   7  6  0    -1329.5257838098    -0.0000884200   0.010455141   0.007424903      607408201   10538388
   8  7  0    -1329.5264609639    -0.0006771541   0.003310533   0.000846606      594223289   10703971
   9  8  0    -1329.5264718255    -0.0000108617   0.002234958   0.000943286      574229705   10902861
  10  9  0    -1329.5265009377    -0.0000291121   0.001052655   0.000268177      555000019   11095751
  11 10  0    -1329.5265008956     0.0000000421   0.000680489   0.000321056      538131599   11257966
  12 11  0    -1329.5265032544    -0.0000023588   0.000492444   0.000176529      518894561   11447039
  13 12  0    -1329.5265027692     0.0000004852   0.000420354   0.000227655      514981744   11484324
  14 13  0    -1329.5265036573    -0.0000008881   0.000250918   0.000039012      499658591   11630862
  15 14  0    -1329.5265036488     0.0000000085   0.000130214   0.000047352      473917593   11849603
  16 15  0    -1329.5265036887    -0.0000000399   0.000019811   0.000003988      452311707   12043582
  17 16  0    -1329.5265036901    -0.0000000015   0.000009779   0.000003262      416602280   12327794
  18 17  0    -1329.5265036897     0.0000000005   0.000005369   0.000001686      395723416   12504376
  19 18  0    -1329.5265036895     0.0000000002   0.000003065   0.000001927      373267244   12690748
  20 19  0    -1329.5265036911    -0.0000000016   0.000000886   0.000000213      342354561   12965797
  21 20  0    -1329.5265036897     0.0000000014   0.000000390   0.000000204      318412595   13136633
  22 21  0    -1329.5265036897    -0.0000000001   0.000000328   0.000000043      295107265   13341191

          ----------------
          ENERGY CONVERGED
          ----------------
     TIME TO FORM FOCK OPERATORS=      35.6 SECONDS (       1.6 SEC/ITER)
     FOCK TIME ON FIRST ITERATION=       2.1, LAST ITERATION=       0.9
     TIME TO SOLVE SCF EQUATIONS=       0.6 SECONDS (       0.0 SEC/ITER)

 FINAL RHF ENERGY IS    -1329.5265036897 AFTER  22 ITERATIONS
 ...... END OF RHF CALCULATION ......
 CPU     0: STEP CPU TIME=    42.70 TOTAL CPU TIME=        493.4 (      8.2 MIN)
 TOTAL WALL CLOCK TIME=       1145.8 SECONDS, CPU UTILIZATION IS    43.06%
 DONE PCM POT.
 CPU     0: STEP CPU TIME=     0.40 TOTAL CPU TIME=        493.8 (      8.2 MIN)
 TOTAL WALL CLOCK TIME=       1146.7 SECONDS, CPU UTILIZATION IS    43.06%

 Iter=  1 iFrag=      7 EFMO= -1380.119733590, DD= 0.523552713, DE=************


 RHF      monomer      4 corr= NONE       , L1=   339, L0=   318 ID=     10

