‘1SZY_5_fmo_input.inp’ -> ‘/scratch/hazwong/820829/./1SZY_5_fmo_input.inp’
‘rungms’ -> ‘/scratch/hazwong/820829/./rungms’
‘gms-files.csh’ -> ‘/scratch/hazwong/820829/./gms-files.csh’
----- GAMESS execution script 'rungms' -----
This job is running on host gollum088.lsa.umich.edu
under operating system Linux at Fri Dec 6 00:37:13 EST 2019
Available scratch disk space (Kbyte units) at beginning of the job is
Filesystem     1K-blocks  Used Available Use% Mounted on
/dev/sda4      426933580 33432 426900148   1% /scratch
GAMESS temporary binary files will be written to /scratch/hazwong/820829/1SZY_5/usrc
GAMESS supplementary output files will be written to /scratch/hazwong/820829/1SZY_5/src
Copying input file 1SZY_5_fmo_input.inp to your run's scratch directory...
cp 1SZY_5_fmo_input.inp /scratch/hazwong/820829/1SZY_5/usrc/1SZY_5_fmo_input.F05
unset echo
This is a GDDI run, keeping various output files on local disks
setenv OUTPUT /scratch/hazwong/820829/1SZY_5/usrc/1SZY_5_fmo_input.F06
setenv PUNCH /scratch/hazwong/820829/1SZY_5/usrc/1SZY_5_fmo_input.F07
unset echo
 
Assuming a single but multicore node.
 
/export/apps/CentOS7/gamess/src/build//ddikick.x /export/apps/CentOS7/gamess/src/build//gamess.R3.x 1SZY_5_fmo_input -ddi 1 16 gollum088.lsa.umich.edu:cpus=16 -scr /scratch/hazwong/820829/1SZY_5/usrc

 Distributed Data Interface kickoff program.
 Initiating 16 compute processes on 1 nodes to run the following command:
 /export/apps/CentOS7/gamess/src/build//gamess.R3.x 1SZY_5_fmo_input 

          ******************************************************
          *         GAMESS VERSION = 30 SEP 2018 (R3)         *
          *             FROM IOWA STATE UNIVERSITY             *
          * M.W.SCHMIDT, K.K.BALDRIDGE, J.A.BOATZ, S.T.ELBERT, *
          *   M.S.GORDON, J.H.JENSEN, S.KOSEKI, N.MATSUNAGA,   *
          *          K.A.NGUYEN, S.J.SU, T.L.WINDUS,           *
          *       TOGETHER WITH M.DUPUIS, J.A.MONTGOMERY       *
          *         J.COMPUT.CHEM.  14, 1347-1363(1993)        *
          **************** 64 BIT LINUX VERSION ****************

  SINCE 1993, STUDENTS AND POSTDOCS WORKING AT IOWA STATE UNIVERSITY
  AND ALSO IN THEIR VARIOUS JOBS AFTER LEAVING ISU HAVE MADE IMPORTANT
  CONTRIBUTIONS TO THE CODE:
     IVANA ADAMOVIC, CHRISTINE AIKENS, YURI ALEXEEV, POOJA ARORA,
     ANDREY ASADCHEV, ROB BELL, PRADIPTA BANDYOPADHYAY, JONATHAN BENTZ,
     BRETT BODE, KURT BRORSEN, CALEB CARLIN, GALINA CHABAN, WEI CHEN,
     CHEOL HO CHOI, PAUL DAY, ALBERT DEFUSCO, NUWAN DESILVA, TIM DUDLEY,
     DMITRI FEDOROV, ALEX FINDLATER, GRAHAM FLETCHER, MARK FREITAG,
     KURT GLAESEMANN, ANASTASIA GUNINA,
     DAN KEMP, GRANT MERRILL, NORIYUKI MINEZAWA, JONATHAN MULLIN,
     TAKESHI NAGATA, SEAN NEDD, HEATHER NETZLOFF, BOSILJKA NJEGIC, RYAN OLSON,
     MIKE PAK, BUU PHAM,
     SPENCER PRUITT, LUKE ROSKOP, JIM SHOEMAKER, LYUDMILA SLIPCHENKO,
     TONY SMITH, SAROM SOK LEANG, JIE SONG, TETSUYA TAKETSUGU, SIMON WEBB,
     PENG XU, SOOHAENG YOO, FEDERICO ZAHARIEV

  ADDITIONAL CODE HAS BEEN PROVIDED BY COLLABORATORS IN OTHER GROUPS:
     IOWA STATE UNIVERSITY:
          JOE IVANIC, AARON WEST, LAIMUTIS BYTAUTAS, KLAUS RUEDENBERG
     UNIVERSITY OF TOKYO: KIMIHIKO HIRAO, TAKAHITO NAKAJIMA,
          TAKAO TSUNEDA, MUNEAKI KAMIYA, SUSUMU YANAGISAWA,
          KIYOSHI YAGI, MAHITO CHIBA, SEIKEN TOKURA, NAOAKI KAWAKAMI
     UNIVERSITY OF AARHUS: FRANK JENSEN
     UNIVERSITY OF IOWA: VISVALDAS KAIRYS, HUI LI
     NATIONAL INST. OF STANDARDS AND TECHNOLOGY: WALT STEVENS, DAVID GARMER
     UNIVERSITY OF PISA: BENEDETTA MENNUCCI, JACOPO TOMASI
     UNIVERSITY OF MEMPHIS: HENRY KURTZ, PRAKASHAN KORAMBATH
     UNIVERSITY OF ALBERTA: TOBY ZENG, MARIUSZ KLOBUKOWSKI
     UNIVERSITY OF NEW ENGLAND: MARK SPACKMAN
     MIE UNIVERSITY: HIROAKI UMEDA
     NAT. INST. OF ADVANCED INDUSTRIAL SCIENCE AND TECHNOLOGY: KAZUO KITAURA
     MICHIGAN STATE UNIVERSITY:
          KAROL KOWALSKI, MARTA WLOCH, JEFFREY GOUR, JESSE LUTZ,
          WEI LI, JUN SHEN, J. EMILIANO DEUSTUA, PIOTR PIECUCH
     UNIVERSITY OF MINNESOTA:
          YINAN SHU
     UNIVERSITY OF SILESIA: MONIKA MUSIAL, STANISLAW KUCHARSKI
     FACULTES UNIVERSITAIRES NOTRE-DAME DE LA PAIX:
          OLIVIER QUINET, BENOIT CHAMPAGNE
     UNIVERSITY OF CALIFORNIA - SANTA BARBARA: BERNARD KIRTMAN
     INSTITUTE FOR MOLECULAR SCIENCE:
          KAZUYA ISHIMURA, MICHIO KATOUDA, AND SHIGERU NAGASE
     UNIVERSITY OF NOTRE DAME: ANNA POMOGAEVA, DAN CHIPMAN
     KYUSHU UNIVERSITY:
          HARUYUKI NAKANO,
          FENG LONG GU, JACEK KORCHOWIEC, MARCIN MAKOWSKI, AND YURIKO AOKI,
          HIROTOSHI MORI AND EISAKU MIYOSHI
     PENNSYLVANIA STATE UNIVERSITY:
          TZVETELIN IORDANOV, CHET SWALINA, JONATHAN SKONE,
          SHARON HAMMES-SCHIFFER
     WASEDA UNIVERSITY:
          MASATO KOBAYASHI, TOMOKO AKAMA, TSUGUKI TOUMA,
          TAKESHI YOSHIKAWA, YASUHIRO IKABATA, JUNJI SEINO,
          YUYA NAKAJIMA, HIROMI NAKAI
     NANJING UNIVERSITY: SHUHUA LI
     UNIVERSITY OF NEBRASKA:
          PEIFENG SU, DEJUN SI, NANDUN THELLAMUREGE, YALI WANG, HUI LI
     UNIVERSITY OF ZURICH: ROBERTO PEVERATI, KIM BALDRIDGE
     N. COPERNICUS UNIVERSITY AND JACKSON STATE UNIVERSITY:
          MARIA BARYSZ
     UNIVERSITY OF COPENHAGEN: Jimmy Kromann, CASPER STEINMANN
     TOKYO INSTITUTE OF TECHNOLOGY: HIROYA NAKATA
     NAGOYA UNIVERSITY: YOSHIO NISHIMOTO, STEPHAN IRLE
     MOSCOW STATE UNIVERSITY: VLADIMIR MIRONOV


 PARALLEL VERSION RUNNING ON       16 PROCESSORS IN        1 NODES.

 EXECUTION OF GAMESS BEGUN Fri Dec  6 00:37:14 2019

            ECHO OF THE FIRST FEW INPUT CARDS -
 INPUT CARD>!*** FMO 5.3 (Gamess) INPUT generated by Facio 22.1.1.32 ***                    
 INPUT CARD> $CONTRL RUNTYP=ENERGY NPRINT=-5 ISPHER=1 MAXIT=200 $END                        
 INPUT CARD> $SYSTEM MWORDS=63 MEMDDI=63 $END                                               
 INPUT CARD> $GDDI NGROUP=1 $END                                                            
 INPUT CARD> $SCF DIRSCF=.TRUE. NPUNCH=0 $END                                               
 INPUT CARD>!*** NumCPU : 2  MemPerNode : 512MB                                             
 INPUT CARD> $PCM SOLVNT=WATER IEF=-10 ICOMP=2 ICAV=1 IDISP=1 IFMO=-1 $END                  
 INPUT CARD> $PCMCAV RADII=SUAHF $END                                                       
 INPUT CARD> $TESCAV NTSALL=60 $END                                                         
 INPUT CARD> $FMOPRP                                                                        
 INPUT CARD>    NAODIR=200                                                                  
 INPUT CARD>    NGRFMO(1)=1, 1, 0, 0, 0,   0, 0, 0, 0, 0                                    
 INPUT CARD>    IPIEDA=1                                                                    
 INPUT CARD>    NPRINT=9                                                                    
 INPUT CARD> $END                                                                           
 INPUT CARD> $FMO                                                                           
 INPUT CARD>      SCFTYP(1)=RHF                                                             
 INPUT CARD>      MODGRD=10                                                                 
 INPUT CARD>      MODMUL=0                                                                  
 INPUT CARD>      MAXCAO=5                                                                  
 INPUT CARD>      MAXBND=13                                                                 
 INPUT CARD>      NLAYER=1                                                                  
 INPUT CARD>      MPLEVL(1)=2                                                               
 INPUT CARD>      NFRAG=11                                                                  
 INPUT CARD>      ICHARG(1)=-1, -1, -1, -1, -1, -1, -1, -1, -1, -1, 0                       
 INPUT CARD>      FRGNAM(1)=F1, F2, F3, F4, F5, F6, F7, F8, F9, F10, F11                    
 INPUT CARD>      indat(1)=0                                                                
 INPUT CARD>               1   -36   0                                                      
 INPUT CARD>               37   -70   0                                                     
 INPUT CARD>               71   -101   0                                                    
 INPUT CARD>               102   -131   0                                                   
 INPUT CARD>               132   -162   0                                                   
 INPUT CARD>               163   -195   0                                                   
 INPUT CARD>               196   -225   0                                                   
 INPUT CARD>               226   -258   0                                                   
 INPUT CARD>               259   -291   0                                                   
 INPUT CARD>               292   -322   0                                                   
 INPUT CARD>               323   -350   0                                                   
 INPUT CARD> $END                                                                           
 INPUT CARD>                                                                                
 INPUT CARD> $FMOBND                                                                        
 INPUT CARD>   -37   36       6-31G*    MINI                                                
 INPUT CARD>   -71   70       6-31G*    MINI                                                
 INPUT CARD>   -102   101       6-31G*    MINI                                              
 INPUT CARD>   -132   131       6-31G*    MINI                                              
 INPUT CARD>   -163   162       6-31G*    MINI                                              
 INPUT CARD>   -196   195       6-31G*    MINI                                              
 INPUT CARD>   -226   225       6-31G*    MINI                                              
 INPUT CARD>   -259   258       6-31G*    MINI                                              
 INPUT CARD>   -292   291       6-31G*    MINI                                              


 -------------------------------------------------------------
 GROUP DDI, PROGRAMMED BY: RYAN M. OLSON AND DMITRI G. FEDOROV
        FEDOROV ET AL., J. COMPUT. CHEM., 25 (2004) 872.
 -------------------------------------------------------------

 -------------------------------------------------------
 GDDI: INITIALIZATION COMPLETED FOR GROUP     1 OF     1
 WITH    16 PROCESSES BALTYP=DLB   global rank=        0
 -------------------------------------------------------

   63000000 WORDS OF MEMORY AVAILABLE


     RUN TITLE
     ---------
  FMO calculation                                                                

 THE POINT GROUP OF THE MOLECULE IS C1      
 THE ORDER OF THE PRINCIPAL AXIS IS     0

 ATOM   ATOMIC CHARGE
 H.1-1       1.0
 O.1-1       8.0
 C.1-1       6.0
 N.1-1       7.0
 P.1-1      15.0

     ATOMIC BASIS SET LIBRARY
     ----------------
 THE CONTRACTED PRIMITIVE FUNCTIONS HAVE BEEN UNNORMALIZED
 THE CONTRACTED BASIS FUNCTIONS ARE NOW NORMALIZED TO UNITY

  SHELL TYPE  PRIMITIVE        EXPONENT          CONTRACTION COEFFICIENT(S)

 H.1-1     

      1   S       1            18.7311370    0.033494604338
      1   S       2             2.8253944    0.234726953484
      1   S       3             0.6401217    0.813757326146

      2   S       4             0.1612778    1.000000000000

 O.1-1     

      3   S       5          5484.6716600    0.001831074430
      3   S       6           825.2349460    0.013950172200
      3   S       7           188.0469580    0.068445078098
      3   S       8            52.9645000    0.232714335992
      3   S       9            16.8975704    0.470192897984
      3   S      10             5.7996353    0.358520852987

      4   L      11            15.5396162   -0.110777549525    0.070874268231
      4   L      12             3.5999336   -0.148026262701    0.339752839147
      4   L      13             1.0137618    1.130767015354    0.727158577316

      5   L      14             0.2700058    1.000000000000    1.000000000000

      6   D      15             0.8000000    1.000000000000

 C.1-1     

      7   S      16          3047.5248800    0.001834737132
      7   S      17           457.3695180    0.014037322813
      7   S      18           103.9486850    0.068842622264
      7   S      19            29.2101553    0.232184443216
      7   S      20             9.2866630    0.467941348435
      7   S      21             3.1639270    0.362311985337

      8   L      22             7.8682723   -0.119332419775    0.068999066591
      8   L      23             1.8812885   -0.160854151696    0.316423960957
      8   L      24             0.5442493    1.143456437840    0.744308290898

      9   L      25             0.1687145    1.000000000000    1.000000000000

     10   D      26             0.8000000    1.000000000000

 N.1-1     

     11   S      27          4173.5114600    0.001834772160
     11   S      28           627.4579110    0.013994627002
     11   S      29           142.9020930    0.068586551812
     11   S      30            40.2343293    0.232240873040
     11   S      31            12.8202129    0.469069948082
     11   S      32             4.3904370    0.360455199063

     12   L      33            11.6263619   -0.114961181702    0.067579743878
     12   L      34             2.7162798   -0.169117478561    0.323907295893
     12   L      35             0.7722184    1.145851947027    0.740895139755

     13   L      36             0.2120315    1.000000000000    1.000000000000

     14   D      37             0.8000000    1.000000000000

 P.1-1     

     15   S      38         19413.3000000    0.001851598923
     15   S      39          2909.4200000    0.014206191735
     15   S      40           661.3640000    0.069999459277
     15   S      41           185.7590000    0.240078860331
     15   S      42            59.1943000    0.484761717984
     15   S      43            20.0310000    0.335199804993

     16   L      44           339.4780000   -0.002782170105    0.004564616191
     16   L      45            81.0101000   -0.036049901354    0.033693571881
     16   L      46            25.8780000   -0.116631004382    0.139754883368
     16   L      47             9.4522100    0.096832803638    0.339361716786
     16   L      48             3.6656600    0.614418023082    0.450920623685
     16   L      49             1.4674600    0.403798015170    0.238585800889

     17   L      50             2.1562300   -0.252924113863   -0.017765312733
     17   L      51             0.7489970    0.032851844678    0.274058196433
     17   L      52             0.2831450    1.081254761783    0.785421562957

     18   L      53             0.0998317    1.000000000000    1.000000000000

     19   D      54             0.5500000    1.000000000000

 TOTAL NUMBER OF BASIS SET SHELLS             =   19
 NUMBER OF CARTESIAN GAUSSIAN BASIS FUNCTIONS =   66

     $CONTRL OPTIONS
     ---------------
 SCFTYP=RHF          RUNTYP=ENERGY       EXETYP=RUN     
 MPLEVL=       0     CITYP =NONE         CCTYP =NONE         VBTYP =NONE    
 DFTTYP=NONE         TDDFT =NONE    
 MULT  =       1     ICHARG=       0     NZVAR =       0     COORD =UNIQUE  
 PP    =NONE         RELWFN=NONE         LOCAL =NONE         NUMGRD=       F
 ISPHER=       1     NOSYM =       0     MAXIT =     200     UNITS =ANGS    
 PLTORB=       F     MOLPLT=       F     AIMPAC=       F     FRIEND=        
 NPRINT=      -5     IREST =       0     GEOM  =INPUT   
 NORMF =       0     NORMP =       0     ITOL  =      24     ICUT  =      12
 INTTYP=BEST         GRDTYP=BEST         QMTTOL= 1.0E-06

     $SYSTEM OPTIONS
     ---------------
  REPLICATED MEMORY=    63000000 WORDS (ON EVERY NODE).
 DISTRIBUTED MEMDDI=          63 MILLION WORDS IN AGGREGATE,
 MEMDDI DISTRIBUTED OVER  16 PROCESSORS IS     3937500 WORDS/PROCESSOR.
 TOTAL MEMORY REQUESTED ON EACH PROCESSOR=    66937500 WORDS.
 TIMLIM=      525600.00 MINUTES, OR     365.0 DAYS.
 PARALL= T  BALTYP=  DLB     KDIAG=    0  COREFL= F
 MXSEQ2=     300 MXSEQ3=     150  mem10=         0

 ** LOOKING UP INTERNALLY STORED DATA FOR SOLVENT=WATER    **
 OPTICAL AND PHYSICAL CONSTANTS:
 EPS= 78.390; EPSINF=  1.776; RSOLV=  1.385 A; VMOL=  18.070 ML/MOL;
 TCE= .25700E-03 1/K; STEN= 71.810 DYN/CM;  DSTEN=  0.6500; CMF=  1.2770


     -----------------------------------
     INPUT FOR PCM SOLVATION CALCULATION 
     -----------------------------------
     IEF   =     -10
     ICOMP =       2     IFIELD=       0     ICAV  =       1
     IDISP =       1     IREP  =       0     IDP   =       0

     SOLVNT=WATER        EPS   = 78.3900     EPSINF=  1.7760
     VMOL  = 18.0700     TCE   =  0.00025700 STEN  = 71.8100
     DSTEN =  0.6500     CMF   =  1.2770     RSOLV =  1.3850

     NESFP =       0
     OMEGA = 40.0000     RET   =100.0000     FRO   =  0.7000

     TABS  =298.0000     IPRINT=       0

     --------------------------------
     INPUT FOR ITERATIVE C-PCM METHOD 
     --------------------------------
     IPCMIT  =         1     MXDIIS  =        50
     MXITR1  =       200     MXITR2  =       200
     THRES   = 0.100E-09     IMUL    =         3
     RCUT(1) =   20.0000     RCUT(2) =   50.0000

     IDIRCT  =         1
     IMGABI  =         0     RABI    =    4.0000
     IMGASC  =         0     RASC    =   20.0000
     THRSLS  = 0.500E-03     DENSLS  =    0.0100
     IEFPOL  =         1     REFPOL  =    0.0000

     INPUT FOR ISOTROPIC DIELECTRICS
     -------------------------------
     EPS=    78.39

          ----------------
          PROPERTIES INPUT
          ----------------

     MOMENTS            FIELD           POTENTIAL          DENSITY
 IEMOM =       1   IEFLD =       0   IEPOT =       0   IEDEN =       0
 WHERE =COMASS     WHERE =NUCLEI     WHERE =NUCLEI     WHERE =NUCLEI  
 OUTPUT=BOTH       OUTPUT=BOTH       OUTPUT=NONE       OUTPUT=BOTH    
 IEMINT=       0   IEFINT=       0                     IEDINT=       0
                                                       MORB  =       0
          EXTRAPOLATION IN EFFECT
          SOSCF IN EFFECT
 ORBITAL PRINTING OPTION: NPREO=     1 32767     2     1

     -------------------------------
     INTEGRAL TRANSFORMATION OPTIONS
     -------------------------------
     NWORD  =            0
     CUTOFF = 1.0E-10     MPTRAN =       0
     DIRTRF =       T     AOINTS =DUP     

          ----------------------
          INTEGRAL INPUT OPTIONS
          ----------------------
 NOPK  =       1 NORDER=       0 SCHWRZ=       T

 ..... DONE SETTING UP THE RUN .....
 CPU     0: STEP CPU TIME=     0.05 TOTAL CPU TIME=          0.1 (      0.0 MIN)
 TOTAL WALL CLOCK TIME=          0.1 SECONDS, CPU UTILIZATION IS    55.56%
 CPU     0: STEP CPU TIME=     0.00 TOTAL CPU TIME=          0.1 (      0.0 MIN)
 TOTAL WALL CLOCK TIME=          0.1 SECONDS, CPU UTILIZATION IS    55.56%

                    ----------------------
                    AO INTEGRAL TECHNOLOGY
                    ----------------------
     S,P,L SHELL ROTATED AXIS INTEGRALS, REPROGRAMMED BY
        KAZUYA ISHIMURA (IMS) AND JOSE SIERRA (SYNSTAR).
     S,P,D,L SHELL ROTATED AXIS INTEGRALS PROGRAMMED BY
        KAZUYA ISHIMURA (INSTITUTE FOR MOLECULAR SCIENCE).
     S,P,D,F,G SHELL TO TOTAL QUARTET ANGULAR MOMENTUM SUM 5,
        ERIC PROGRAM BY GRAHAM FLETCHER (ELORET AND NASA ADVANCED
        SUPERCOMPUTING DIVISION, AMES RESEARCH CENTER).
     S,P,D,F,G,L SHELL GENERAL RYS QUADRATURE PROGRAMMED BY
        MICHEL DUPUIS (PACIFIC NORTHWEST NATIONAL LABORATORY).
 Setting modorb=1 flag...
 Setting modorb=1 flag...

          -----------------------
          MP2 CONTROL INFORMATION
          -----------------------
          NACORE =        8  NBCORE =        8
          LMOMP2 =        F  AOINTS = DUP     
          METHOD =        2  NWORD  =               0
          MP2PRP =        F  OSPT   = NONE    
          CUTOFF = 1.00E-12  CPHFBS = BASISAO 
          CODE   = IMS     

          NUMBER OF CORE -A-  ORBITALS =     8
          NUMBER OF CORE -B-  ORBITALS =     8
          NUMBER OF OCC. -A-  ORBITALS =    18
          NUMBER OF OCC. -B-  ORBITALS =    18
          NUMBER OF MOLECULAR ORBITALS =    66
          NUMBER OF   BASIS  FUNCTIONS =    66

 CPU     0: STEP CPU TIME=     0.02 TOTAL CPU TIME=          0.1 (      0.0 MIN)
 TOTAL WALL CLOCK TIME=          0.1 SECONDS, CPU UTILIZATION IS    53.85%
 CPU     0: STEP CPU TIME=     0.00 TOTAL CPU TIME=          0.1 (      0.0 MIN)
 TOTAL WALL CLOCK TIME=          0.1 SECONDS, CPU UTILIZATION IS    53.85%

     INPUT FOR CAVITY DEFINITION 
     ---------------------------
   ATOM               COORDINATES                RADIUS       EPS
      1     -1.5550     -9.3030      0.2310      0.0100     78.3900
      2     -1.6670     -8.7430      1.0190      1.5900     78.3900
      3     -1.4020     -9.5710      2.1610      1.7700     78.3900
      4     -0.3850    -10.0140      2.0660      0.0100     78.3900
      5     -2.1340    -10.4070      2.1840      0.0100     78.3900
      6     -1.4960     -8.8100      3.4860      1.7700     78.3900
      7     -1.3140     -9.4910      4.3490      0.0100     78.3900
      8     -0.4820     -7.7620      3.5410      1.5900     78.3900
      9     -1.0360     -6.6210      4.1860      1.7700     78.3900
     10     -0.3700     -6.3750      5.0440      0.0100     78.3900
     11     -1.0950     -5.4650      3.2800      1.6800     78.3900
     12     -1.2410     -4.1580      3.6570      1.7700     78.3900
     13     -1.6180     -1.7790      6.1420      1.6800     78.3900
     14     -1.6240     -2.3290      6.9770      0.0100     78.3900
     15     -1.6890     -0.7810      6.2170      0.0100     78.3900
     16     -1.3690     -3.7130      4.9190      1.6800     78.3900
     17     -1.4600     -2.3890      4.9820      1.7700     78.3900
     18     -1.3940     -1.5790      3.8760      1.6800     78.3900
     19     -1.4550     -0.5820      4.0130      0.0100     78.3900
     20     -1.2580     -2.0090      2.5610      1.7700     78.3900
     21     -1.1980     -1.2060      1.6230      1.5900     78.3900
     22     -1.1900     -3.4260      2.4850      1.7700     78.3900
     23     -1.0460     -4.2620      1.3830      1.6800     78.3900
     24     -1.0020     -5.4670      1.9040      1.7700     78.3900
     25     -0.8900     -6.4000      1.3440      0.0100     78.3900
     26     -2.3990     -7.0090      4.7050      1.7700     78.3900
     27     -3.1090     -6.1590      4.7160      0.0100     78.3900
     28     -2.2830     -7.5500      6.0070      1.5900     78.3900
     29     -3.1660     -7.8400      6.2660      0.0100     78.3900
     30     -2.8230     -8.0670      3.6970      1.7700     78.3900
     31     -3.0920     -7.5920      2.7240      0.0100     78.3900
     32     -3.8280     -8.9860      4.1660      1.5900     78.3900
     33     -5.3520     -8.6540      3.9590      2.1000     78.3900
     34     -5.5680     -8.3110      2.5400      1.5900     78.3900
     35     -6.1230     -9.7900      4.5110      1.5900     78.3900
     36     -5.5890     -7.3750      4.8450      1.5900     78.3900
     37     -5.6100     -7.4820      6.2880      1.7700     78.3900
     38     -4.6990     -7.9830      6.6810      0.0100     78.3900
     39     -6.4840     -8.0820      6.6240      0.0100     78.3900
     40     -5.7230     -6.0970      6.9370      1.7700     78.3900
     41     -5.6680     -6.1680      8.0450      0.0100     78.3900
     42     -4.6350     -5.2380      6.4990      1.5900     78.3900
     43     -5.1070     -3.9060      6.3720      1.7700     78.3900
     44     -4.4850     -3.2830      7.0520      0.0100     78.3900
     45     -4.9520     -3.4000      5.0060      1.6800     78.3900
     46     -5.0140     -2.0880      4.6240      1.7700     78.3900
     47     -5.5350      1.2510      5.3820      1.6800     78.3900
     48     -5.7410      1.2250      6.3580      0.0100     78.3900
     49     -5.5760      2.1310      4.8980      0.0100     78.3900
     50     -5.2490     -1.0370      5.4330      1.6800     78.3900
     51     -5.2510      0.1180      4.7670      1.7700     78.3900
     52     -4.9830      0.2130      3.4280      1.6800     78.3900
     53     -5.0110      1.1280      3.0020      0.0100     78.3900
     54     -4.7110     -0.8490      2.5790      1.7700     78.3900
     55     -4.4750     -0.6600      1.3840      1.5900     78.3900
     56     -4.7650     -2.0910      3.2640      1.7700     78.3900
     57     -4.5840     -3.3870      2.7960      1.6800     78.3900
     58     -4.7120     -4.1330      3.8670      1.7700     78.3900
     59     -4.6610     -5.2220      3.8960      0.0100     78.3900
     60     -6.5490     -3.8840      6.8300      1.7700     78.3900
     61     -7.1680     -3.1600      6.2580      0.0100     78.3900
     62     -6.6060     -3.5730      8.2080      1.5900     78.3900
     63     -7.4900     -3.8080      8.5280      0.0100     78.3900
     64     -6.9860     -5.3160      6.5590      1.7700     78.3900
     65     -7.1420     -5.4800      5.4680      0.0100     78.3900
     66     -8.0980     -5.7530      7.3600      1.5900     78.3900
     67     -9.5490     -5.8640      6.7590      2.1000     78.3900
     68     -9.5640     -6.9510      5.7610      1.5900     78.3900
     69    -10.5160     -5.9690      7.8770      1.5900     78.3900
     70     -9.7680     -4.4980      6.0150      1.5900     78.3900
     71    -10.0600     -3.2710      6.7180      1.7700     78.3900
     72     -9.2420     -3.0090      7.4260      0.0100     78.3900
     73    -10.9980     -3.3720      7.3070      0.0100     78.3900
     74    -10.2440     -2.1070      5.7360      1.7700     78.3900
     75    -10.5420     -1.1750      6.2700      0.0100     78.3900
     76     -8.9820     -1.8470      5.0510      1.5900     78.3900
     77     -9.2380     -1.5690      3.6870      1.7700     78.3900
     78     -8.7620     -0.5840      3.4980      0.0100     78.3900
     79     -8.6400     -2.5810      2.7570      1.6800     78.3900
     80     -8.2200     -3.8050      3.2260      1.7700     78.3900
     81     -8.3840     -3.9880      4.2870      0.0100     78.3900
     82     -7.6350     -4.7060      2.4230      1.7700     78.3900
     83     -7.2890     -5.6750      2.7830      0.0100     78.3900
     84     -8.4770     -2.2940      1.4040      1.7700     78.3900
     85     -8.8300     -1.1960      0.9710      1.5900     78.3900
     86     -7.8740     -3.1720      0.5770      1.6800     78.3900
     87     -7.4450     -4.3470      1.0560      1.7700     78.3900
     88     -6.8430     -5.1810      0.2100      1.6800     78.3900
     89     -6.7020     -4.8690     -0.7340      0.0100     78.3900
     90     -6.4470     -6.0520      0.4940      0.0100     78.3900
     91    -10.7380     -1.4160      3.5340      1.7700     78.3900
     92    -11.0720     -1.7470      2.5380      0.0100     78.3900
     93    -11.1510     -0.0740      3.7700      1.5900     78.3900
     94    -10.6280      0.5310      3.2250      0.0100     78.3900
     95    -11.2540     -2.3650      4.6060      1.7700     78.3900
     96    -11.1270     -3.4220      4.2810      0.0100     78.3900
     97    -12.5910     -2.0860      5.0620      1.5900     78.3900
     98    -13.8420     -2.7640      4.3950      2.1000     78.3900
     99    -13.9620     -4.1230      4.9670      1.5900     78.3900
    100    -15.0140     -1.8800      4.5680      1.5900     78.3900
    101    -13.5220     -2.8970      2.8600      1.5900     78.3900
    102    -13.7140     -1.8050      1.9300      1.7700     78.3900
    103    -13.1600     -0.8990      2.2580      0.0100     78.3900
    104    -14.7910     -1.5240      1.8690      0.0100     78.3900
    105    -13.2390     -2.1870      0.5130      1.7700     78.3900
    106    -13.2940     -1.3360     -0.1900      0.0100     78.3900
    107    -11.8430     -2.5670      0.5190      1.5900     78.3900
    108    -11.6280     -3.6520     -0.3570      1.7700     78.3900
    109    -10.8840     -3.2830     -1.1010      0.0100     78.3900
    110    -11.0860     -4.8260      0.3640      1.6800     78.3900
    111    -11.2590     -4.9630      1.7230      1.7700     78.3900
    112    -11.7770     -4.1420      2.2120      0.0100     78.3900
    113    -10.4020     -5.7730     -0.3640      1.7700     78.3900
    114    -10.2350     -5.6850     -1.5760      1.5900     78.3900
    115     -9.9200     -6.8230      0.3750      1.6800     78.3900
    116     -9.4140     -7.5250     -0.1420      0.0100     78.3900
    117    -10.0360     -7.0100      1.7380      1.7700     78.3900
    118     -9.5330     -7.9940      2.2700      1.5900     78.3900
    119    -10.7620     -5.9880      2.4220      1.7700     78.3900
    120    -10.8690     -6.0550      3.5030      0.0100     78.3900
    121    -12.9440     -3.9500     -1.0570      1.7700     78.3900
    122    -13.1060     -5.0400     -1.2050      0.0100     78.3900
    123    -12.9620     -3.2980     -2.3070      1.5900     78.3900
    124    -13.8510     -2.9340     -2.4870      0.0100     78.3900
    125    -13.9730     -3.3830     -0.0860      1.7700     78.3900
    126    -14.1240     -4.0930      0.7570      0.0100     78.3900
    127    -15.2270     -2.9630     -0.6760      1.5900     78.3900
    128    -16.2420     -4.1050     -1.0970      2.1000     78.3900
    129    -15.7540     -5.4130     -0.6060      1.5900     78.3900
    130    -17.5930     -3.7010     -0.6530      1.5900     78.3900
    131    -16.1920     -4.0860     -2.6740      1.5900     78.3900
    132    -16.8980     -5.0990     -3.4370      1.7700     78.3900
    133    -17.7320     -5.5720     -2.8610      0.0100     78.3900
    134    -16.1840     -5.9070     -3.7070      0.0100     78.3900
    135    -17.5010     -4.5470     -4.7400      1.7700     78.3900
    136    -17.9270     -5.3680     -5.3550      0.0100     78.3900
    137    -18.6050     -3.6590     -4.4160      1.5900     78.3900
    138    -18.5590     -2.5100     -5.2500      1.7700     78.3900
    139    -19.5630     -2.4720     -5.7380      0.0100     78.3900
    140    -18.3700     -1.2440     -4.4870      1.6800     78.3900
    141    -18.0290     -1.2880     -3.1540      1.7700     78.3900
    142    -17.8560     -2.2790     -2.7310      0.0100     78.3900
    143    -17.9140     -0.1710     -2.4290      1.7700     78.3900
    144    -17.6700     -0.1920     -1.3680      0.0100     78.3900
    145    -18.5790     -0.0110     -5.1080      1.7700     78.3900
    146    -18.8920      0.0140     -6.3090      1.5900     78.3900
    147    -18.4590      1.1320     -4.3870      1.6800     78.3900
    148    -18.1380      1.0720     -3.0830      1.7700     78.3900
    149    -18.0560      2.2010     -2.3880      1.6800     78.3900
    150    -17.6830      2.2110     -1.4570      0.0100     78.3900
    151    -18.1650      3.0750     -2.8610      0.0100     78.3900
    152    -17.4970     -2.7460     -6.3110      1.7700     78.3900
    153    -16.9590     -1.8110     -6.5870      0.0100     78.3900
    154    -18.0920     -3.3240     -7.4600      1.5900     78.3900
    155    -17.3820     -3.7050     -7.9970      0.0100     78.3900
    156    -16.5490     -3.7250     -5.6230      1.7700     78.3900
    157    -15.8620     -3.1870     -4.9370      0.0100     78.3900
    158    -15.8530     -4.6150     -6.5110      1.5900     78.3900
    159    -14.4820     -4.3720     -7.2140      2.1000     78.3900
    160    -13.4060     -4.7120     -6.2600      1.5900     78.3900
    161    -14.4850     -5.0980     -8.5040      1.5900     78.3900
    162    -14.4060     -2.8420     -7.4920      1.5900     78.3900
    163    -14.9320     -2.1550     -8.6450      1.7700     78.3900
    164    -16.0420     -2.2100     -8.6470      0.0100     78.3900
    165    -14.5760     -2.6310     -9.5890      0.0100     78.3900
    166    -14.5580     -0.6520     -8.6940      1.7700     78.3900
    167    -15.0520     -0.1740     -9.5660      0.0100     78.3900
    168    -14.9630      0.0480     -7.4770      1.5900     78.3900
    169    -13.8120      0.3330     -6.6880      1.7700     78.3900
    170    -13.6300      1.4270     -6.7840      0.0100     78.3900
    171    -14.0600     -0.0270     -5.2960      1.6800     78.3900
    172    -14.5850      0.0310     -3.1640      1.7700     78.3900
    173    -14.4840     -1.2980     -3.5080      1.6800     78.3900
    174    -14.1530     -1.2860     -4.7690      1.7700     78.3900
    175    -13.9520     -2.1810     -5.3530      0.0100     78.3900
    176    -14.8730      2.0250     -1.9350      1.6800     78.3900
    177    -14.5960      2.6680     -3.0710      1.7700     78.3900
    178    -14.6030      3.7630     -3.0030      0.0100     78.3900
    179    -14.3350      2.1780     -4.2890      1.6800     78.3900
    180    -14.3370      0.8340     -4.2620      1.7700     78.3900
    181    -14.8800      0.6730     -1.9450      1.7700     78.3900
    182    -15.2130      0.0310     -0.8100      1.6800     78.3900
    183    -15.2110     -0.9750     -0.7650      0.0100     78.3900
    184    -15.3890      0.5590      0.0200      0.0100     78.3900
    185    -12.6550     -0.4220     -7.3100      1.7700     78.3900
    186    -12.6190     -1.4650     -6.9410      0.0100     78.3900
    187    -11.3960      0.1480     -7.0890      1.5900     78.3900
    188    -11.3600      1.0270     -7.4870      0.0100     78.3900
    189    -13.0420     -0.3990     -8.7780      1.7700     78.3900
    190    -12.5740     -1.2890     -9.2620      0.0100     78.3900
    191    -12.7260      0.8490     -9.4510      1.5900     78.3900
    192    -12.1840      0.8100    -10.9310      2.1000     78.3900
    193    -12.4790     -0.5150    -11.5220      1.5900     78.3900
    194    -12.7120      1.9930    -11.6430      1.5900     78.3900
    195    -10.6270      0.9650    -10.7740      1.5900     78.3900
    196     -9.7350      0.4060    -11.7730      1.7700     78.3900
    197    -10.2180      0.2780    -12.7710      0.0100     78.3900
    198     -9.4010     -0.5980    -11.4270      0.0100     78.3900
    199     -8.4800      1.2700    -11.9590      1.7700     78.3900
    200     -7.7050      0.7180    -12.5320      0.0100     78.3900
    201     -8.7990      2.4590    -12.7330      1.5900     78.3900
    202     -8.0910      3.5740    -12.2030      1.7700     78.3900
    203     -7.5070      3.9870    -13.0620      0.0100     78.3900
    204     -9.0160      4.6120    -11.6680      1.6800     78.3900
    205    -10.3290      4.3100    -11.3640      1.7700     78.3900
    206    -10.6270      3.2740    -11.5300      0.0100     78.3900
    207     -8.5270      5.8880    -11.4880      1.7700     78.3900
    208     -7.3620      6.1940    -11.7300      1.5900     78.3900
    209     -9.4430      6.7960    -11.0200      1.6800     78.3900
    210     -9.1060      7.7410    -10.9000      0.0100     78.3900
    211    -10.7770      6.5780    -10.7430      1.7700     78.3900
    212    -11.4920      7.5110    -10.3750      1.5900     78.3900
    213    -11.2070      5.2240    -10.9300      1.7700     78.3900
    214    -12.2490      4.9680    -10.7430      0.0100     78.3900
    215     -7.1230      3.0420    -11.1500      1.7700     78.3900
    216     -6.9690      3.7640    -10.3170      0.0100     78.3900
    217     -5.8730      2.7140    -11.7330      1.5900     78.3900
    218     -5.3570      2.2630    -11.0470      0.0100     78.3900
    219     -7.8580      1.8000    -10.6630      1.7700     78.3900
    220     -8.6900      2.1010     -9.9900      0.0100     78.3900
    221     -7.0390      0.7710    -10.0810      1.5900     78.3900
    222     -6.4000      0.9330     -8.6610      2.1000     78.3900
    223     -6.4870     -0.3700     -7.9660      1.5900     78.3900
    224     -5.0500      1.5030     -8.8490      1.5900     78.3900
    225     -7.2870      2.0050     -7.9150      1.5900     78.3900
    226     -8.3060      1.5740     -6.9940      1.7700     78.3900
    227     -7.8640      0.9970     -6.1470      0.0100     78.3900
    228     -9.0320      0.9090     -7.5200      0.0100     78.3900
    229     -9.0590      2.7840     -6.4260      1.7700     78.3900
    230     -9.3640      3.4860     -7.2310      0.0100     78.3900
    231    -10.2700      2.2970     -5.7930      1.5900     78.3900
    232    -10.5220      2.9960     -4.5930      1.7700     78.3900
    233    -11.5550      3.4040     -4.6730      0.0100     78.3900
    234    -10.4560      2.1110     -3.4250      1.6800     78.3900
    235    -10.7350      1.2640     -1.4140      1.7700     78.3900
    236    -10.0410      0.3090     -2.1420      1.6800     78.3900
    237     -9.9040      0.8550     -3.3280      1.7700     78.3900
    238     -9.4170      0.3860     -4.1860      0.0100     78.3900
    239    -11.8560      2.4180      0.3140      1.6800     78.3900
    240    -12.0260      3.4150     -0.5490      1.7700     78.3900
    241    -12.5580      4.2860     -0.1490      0.0100     78.3900
    242    -11.6050      3.5110     -1.8110      1.6800     78.3900
    243    -10.9870      2.3800     -2.1930      1.7700     78.3900
    244    -11.2160      1.3000     -0.0890      1.7700     78.3900
    245    -11.1020      0.3060      0.7970      1.6800     78.3900
    246    -10.5940     -0.5320      0.5600      0.0100     78.3900
    247    -11.6880      0.2890      1.6000      0.0100     78.3900
    248     -9.5310      4.1240     -4.5230      1.7700     78.3900
    249     -9.2420      4.3750     -3.4830      0.0100     78.3900
    250    -10.0650      5.2670     -5.1560      1.5900     78.3900
    251     -9.3310      5.8850     -5.2490      0.0100     78.3900
    252     -8.3500      3.5580     -5.3070      1.7700     78.3900
    253     -7.8060      2.7970     -4.7030      0.0100     78.3900
    254     -7.4740      4.5570     -5.8690      1.5900     78.3900
    255     -6.2430      5.0610     -5.0280      2.1000     78.3900
    256     -5.4910      3.8960     -4.5170      1.5900     78.3900
    257     -5.4970      6.0400     -5.8460      1.5900     78.3900
    258     -6.8820      5.7980     -3.7940      1.5900     78.3900
    259     -7.5450      7.0750     -3.9090      1.7700     78.3900
    260     -8.3630      7.0420     -4.6610      0.0100     78.3900
    261     -6.8210      7.8570     -4.2330      0.0100     78.3900
    262     -8.1470      7.5130     -2.5640      1.7700     78.3900
    263     -8.7090      8.4670     -2.6680      0.0100     78.3900
    264     -9.0900      6.5120     -2.0780      1.5900     78.3900
    265     -8.9310      6.3470     -0.6770      1.7700     78.3900
    266     -9.9340      6.5150     -0.2210      0.0100     78.3900
    267     -8.4870      4.9940     -0.3510      1.6800     78.3900
    268     -8.0700      3.1160      0.6970      1.7700     78.3900
    269     -7.6560      2.9280     -0.6130      1.6800     78.3900
    270     -7.9190      4.0690     -1.1910      1.7700     78.3900
    271     -7.7070      4.2990     -2.2340      0.0100     78.3900
    272     -8.5440      2.7600      2.9910      1.6800     78.3900
    273     -8.9840      4.0230      3.0130      1.7700     78.3900
    274     -9.3600      4.3700      3.9850      0.0100     78.3900
    275     -9.0500      4.9140      2.0130      1.6800     78.3900
    276     -8.5790      4.3860      0.8720      1.7700     78.3900
    277     -8.0500      2.2780      1.8260      1.7700     78.3900
    278     -7.5400      1.0440      1.8030      1.6800     78.3900
    279     -7.4570      0.5520      0.9320      0.0100     78.3900
    280     -7.6690      0.4990      2.6190      0.0100     78.3900
    281     -7.9630      7.4050     -0.1890      1.7700     78.3900
    282     -7.3240      7.0570      0.6520      0.0100     78.3900
    283     -8.6810      8.5580      0.2010      1.5900     78.3900
    284     -8.0340      9.2640      0.3570      0.0100     78.3900
    285     -7.1210      7.6600     -1.4330      1.7700     78.3900
    286     -6.3930      6.8270     -1.5720      0.0100     78.3900
    287     -6.5100      8.9680     -1.4920      1.5900     78.3900
    288     -5.0750      9.1760     -0.8920      2.1000     78.3900
    289     -4.3130      7.9210     -1.0560      1.5900     78.3900
    290     -4.4940     10.3970     -1.4880      1.5900     78.3900
    291     -5.3140      9.4300      0.6430      1.5900     78.3900
    292     -4.2220      9.2280      1.5870      1.7700     78.3900
    293     -3.7500     10.2080      1.8280      0.0100     78.3900
    294     -3.4070      8.5830      1.1740      0.0100     78.3900
    295     -4.6850      8.5670      2.9040      1.7700     78.3900
    296     -5.0970      9.3230      3.6030      0.0100     78.3900
    297     -5.7540      7.6020      2.6470      1.5900     78.3900
    298     -5.5140      6.4180      3.3920      1.7700     78.3900
    299     -6.4700      6.1980      3.9250      0.0100     78.3900
    300     -5.1590      5.2550      2.5330      1.6800     78.3900
    301     -4.7320      5.4410      1.2330      1.7700     78.3900
    302     -4.6720      6.4740      0.8780      0.0100     78.3900
    303     -4.4320      4.3980      0.4470      1.7700     78.3900
    304     -4.1030      4.5210     -0.5840      0.0100     78.3900
    305     -5.2500      3.9660      3.0530      1.7700     78.3900
    306     -5.6320      3.8110      4.2240      1.5900     78.3900
    307     -4.9220      2.9090      2.2800      1.6800     78.3900
    308     -4.5530      3.0910      1.0000      1.7700     78.3900
    309     -4.2980      2.0280      0.2430      1.6800     78.3900
    310     -4.4000      1.1080      0.6260      0.0100     78.3900
    311     -4.0080      2.1170     -0.7120      0.0100     78.3900
    312     -4.4370      6.7420      4.4070      1.7700     78.3900
    313     -3.8470      5.8520      4.7060      0.0100     78.3900
    314     -5.0100      7.3410      5.5550      1.5900     78.3900
    315     -4.2840      7.6510      6.1100      0.0100     78.3900
    316     -3.5990      7.7400      3.6230      1.7700     78.3900
    317     -3.0380      7.2080      2.8210      0.0100     78.3900
    318     -2.7640      8.5970      4.4340      1.5900     78.3900
    319     -1.2240      8.2930      4.5690      2.1000     78.3900
    320     -0.6970      7.8570      3.2590      1.5900     78.3900
    321     -0.5700      9.4590      5.1990      1.5900     78.3900
    322     -1.1890      7.0720      5.5610      1.5900     78.3900
    323     -1.6240      7.2210      6.9310      1.7700     78.3900
    324     -2.6640      7.6140      6.9880      0.0100     78.3900
    325     -0.9580      7.9320      7.4710      0.0100     78.3900
    326     -1.5830      5.8800      7.6770      1.7700     78.3900
    327     -1.8330      6.0140      8.7510      0.0100     78.3900
    328     -2.5870      4.9790      7.1170      1.5900     78.3900
    329     -2.0490      3.6600      7.0640      1.7700     78.3900
    330     -2.7730      3.0210      7.6210      0.0100     78.3900
    331     -1.9180      3.1380      5.6750      1.6800     78.3900
    332     -1.8540      4.0060      4.6110      1.7700     78.3900
    333     -1.9400      5.0630      4.8540      0.0100     78.3900
    334     -1.7350      3.5660      3.3520      1.7700     78.3900
    335     -1.7020      4.2420      2.5000      0.0100     78.3900
    336     -1.8000      1.7700      5.4510      1.7700     78.3900
    337     -1.7880      0.9960      6.4200      1.5900     78.3900
    338     -1.6980      1.3010      4.1860      1.6800     78.3900
    339     -1.6560      2.1580      3.1510      1.7700     78.3900
    340     -1.5320      1.6700      1.9190      1.6800     78.3900
    341     -1.4660      0.6790      1.7820      0.0100     78.3900
    342     -1.4510      2.2630      1.1160      0.0100     78.3900
    343     -0.7270      3.6700      7.8180      1.7700     78.3900
    344      0.0060      2.9430      7.3970      0.0100     78.3900
    345     -0.9510      3.3970      9.1940      1.5900     78.3900
    346     -0.1260      3.5590      9.6840      0.0100     78.3900
    347     -0.2600      5.1040      7.5850      1.7700     78.3900
    348      0.1430      5.2180      6.5560      0.0100     78.3900
    349      0.6770      5.5890      8.5630      1.5900     78.3900
    350      1.5140      5.0950      8.4920      0.0100     78.3900

     ----------------------------
     INPUT FOR TESSERA DEFINITION
     ----------------------------
     NTSALL  =        60     MTHALL  =         4
     MTHAUT  =         0     AUTFRE  =    2.0000
     NTSFRZ  =        60     KEEPSM  =         0
     AREAKP  =   10.0000     BONDRY  =    1.0000
     AREATL  =    0.0100

     SPHERE     INITS       METHOD
          1        60       FIXPVA
          2        60       FIXPVA
          3        60       FIXPVA
          4        60       FIXPVA
          5        60       FIXPVA
          6        60       FIXPVA
          7        60       FIXPVA
          8        60       FIXPVA
          9        60       FIXPVA
         10        60       FIXPVA
         11        60       FIXPVA
         12        60       FIXPVA
         13        60       FIXPVA
         14        60       FIXPVA
         15        60       FIXPVA
         16        60       FIXPVA
         17        60       FIXPVA
         18        60       FIXPVA
         19        60       FIXPVA
         20        60       FIXPVA
         21        60       FIXPVA
         22        60       FIXPVA
         23        60       FIXPVA
         24        60       FIXPVA
         25        60       FIXPVA
         26        60       FIXPVA
         27        60       FIXPVA
         28        60       FIXPVA
         29        60       FIXPVA
         30        60       FIXPVA
         31        60       FIXPVA
         32        60       FIXPVA
         33        60       FIXPVA
         34        60       FIXPVA
         35        60       FIXPVA
         36        60       FIXPVA
         37        60       FIXPVA
         38        60       FIXPVA
         39        60       FIXPVA
         40        60       FIXPVA
         41        60       FIXPVA
         42        60       FIXPVA
         43        60       FIXPVA
         44        60       FIXPVA
         45        60       FIXPVA
         46        60       FIXPVA
         47        60       FIXPVA
         48        60       FIXPVA
         49        60       FIXPVA
         50        60       FIXPVA
         51        60       FIXPVA
         52        60       FIXPVA
         53        60       FIXPVA
         54        60       FIXPVA
         55        60       FIXPVA
         56        60       FIXPVA
         57        60       FIXPVA
         58        60       FIXPVA
         59        60       FIXPVA
         60        60       FIXPVA
         61        60       FIXPVA
         62        60       FIXPVA
         63        60       FIXPVA
         64        60       FIXPVA
         65        60       FIXPVA
         66        60       FIXPVA
         67        60       FIXPVA
         68        60       FIXPVA
         69        60       FIXPVA
         70        60       FIXPVA
         71        60       FIXPVA
         72        60       FIXPVA
         73        60       FIXPVA
         74        60       FIXPVA
         75        60       FIXPVA
         76        60       FIXPVA
         77        60       FIXPVA
         78        60       FIXPVA
         79        60       FIXPVA
         80        60       FIXPVA
         81        60       FIXPVA
         82        60       FIXPVA
         83        60       FIXPVA
         84        60       FIXPVA
         85        60       FIXPVA
         86        60       FIXPVA
         87        60       FIXPVA
         88        60       FIXPVA
         89        60       FIXPVA
         90        60       FIXPVA
         91        60       FIXPVA
         92        60       FIXPVA
         93        60       FIXPVA
         94        60       FIXPVA
         95        60       FIXPVA
         96        60       FIXPVA
         97        60       FIXPVA
         98        60       FIXPVA
         99        60       FIXPVA
        100        60       FIXPVA
        101        60       FIXPVA
        102        60       FIXPVA
        103        60       FIXPVA
        104        60       FIXPVA
        105        60       FIXPVA
        106        60       FIXPVA
        107        60       FIXPVA
        108        60       FIXPVA
        109        60       FIXPVA
        110        60       FIXPVA
        111        60       FIXPVA
        112        60       FIXPVA
        113        60       FIXPVA
        114        60       FIXPVA
        115        60       FIXPVA
        116        60       FIXPVA
        117        60       FIXPVA
        118        60       FIXPVA
        119        60       FIXPVA
        120        60       FIXPVA
        121        60       FIXPVA
        122        60       FIXPVA
        123        60       FIXPVA
        124        60       FIXPVA
        125        60       FIXPVA
        126        60       FIXPVA
        127        60       FIXPVA
        128        60       FIXPVA
        129        60       FIXPVA
        130        60       FIXPVA
        131        60       FIXPVA
        132        60       FIXPVA
        133        60       FIXPVA
        134        60       FIXPVA
        135        60       FIXPVA
        136        60       FIXPVA
        137        60       FIXPVA
        138        60       FIXPVA
        139        60       FIXPVA
        140        60       FIXPVA
        141        60       FIXPVA
        142        60       FIXPVA
        143        60       FIXPVA
        144        60       FIXPVA
        145        60       FIXPVA
        146        60       FIXPVA
        147        60       FIXPVA
        148        60       FIXPVA
        149        60       FIXPVA
        150        60       FIXPVA
        151        60       FIXPVA
        152        60       FIXPVA
        153        60       FIXPVA
        154        60       FIXPVA
        155        60       FIXPVA
        156        60       FIXPVA
        157        60       FIXPVA
        158        60       FIXPVA
        159        60       FIXPVA
        160        60       FIXPVA
        161        60       FIXPVA
        162        60       FIXPVA
        163        60       FIXPVA
        164        60       FIXPVA
        165        60       FIXPVA
        166        60       FIXPVA
        167        60       FIXPVA
        168        60       FIXPVA
        169        60       FIXPVA
        170        60       FIXPVA
        171        60       FIXPVA
        172        60       FIXPVA
        173        60       FIXPVA
        174        60       FIXPVA
        175        60       FIXPVA
        176        60       FIXPVA
        177        60       FIXPVA
        178        60       FIXPVA
        179        60       FIXPVA
        180        60       FIXPVA
        181        60       FIXPVA
        182        60       FIXPVA
        183        60       FIXPVA
        184        60       FIXPVA
        185        60       FIXPVA
        186        60       FIXPVA
        187        60       FIXPVA
        188        60       FIXPVA
        189        60       FIXPVA
        190        60       FIXPVA
        191        60       FIXPVA
        192        60       FIXPVA
        193        60       FIXPVA
        194        60       FIXPVA
        195        60       FIXPVA
        196        60       FIXPVA
        197        60       FIXPVA
        198        60       FIXPVA
        199        60       FIXPVA
        200        60       FIXPVA
        201        60       FIXPVA
        202        60       FIXPVA
        203        60       FIXPVA
        204        60       FIXPVA
        205        60       FIXPVA
        206        60       FIXPVA
        207        60       FIXPVA
        208        60       FIXPVA
        209        60       FIXPVA
        210        60       FIXPVA
        211        60       FIXPVA
        212        60       FIXPVA
        213        60       FIXPVA
        214        60       FIXPVA
        215        60       FIXPVA
        216        60       FIXPVA
        217        60       FIXPVA
        218        60       FIXPVA
        219        60       FIXPVA
        220        60       FIXPVA
        221        60       FIXPVA
        222        60       FIXPVA
        223        60       FIXPVA
        224        60       FIXPVA
        225        60       FIXPVA
        226        60       FIXPVA
        227        60       FIXPVA
        228        60       FIXPVA
        229        60       FIXPVA
        230        60       FIXPVA
        231        60       FIXPVA
        232        60       FIXPVA
        233        60       FIXPVA
        234        60       FIXPVA
        235        60       FIXPVA
        236        60       FIXPVA
        237        60       FIXPVA
        238        60       FIXPVA
        239        60       FIXPVA
        240        60       FIXPVA
        241        60       FIXPVA
        242        60       FIXPVA
        243        60       FIXPVA
        244        60       FIXPVA
        245        60       FIXPVA
        246        60       FIXPVA
        247        60       FIXPVA
        248        60       FIXPVA
        249        60       FIXPVA
        250        60       FIXPVA
        251        60       FIXPVA
        252        60       FIXPVA
        253        60       FIXPVA
        254        60       FIXPVA
        255        60       FIXPVA
        256        60       FIXPVA
        257        60       FIXPVA
        258        60       FIXPVA
        259        60       FIXPVA
        260        60       FIXPVA
        261        60       FIXPVA
        262        60       FIXPVA
        263        60       FIXPVA
        264        60       FIXPVA
        265        60       FIXPVA
        266        60       FIXPVA
        267        60       FIXPVA
        268        60       FIXPVA
        269        60       FIXPVA
        270        60       FIXPVA
        271        60       FIXPVA
        272        60       FIXPVA
        273        60       FIXPVA
        274        60       FIXPVA
        275        60       FIXPVA
        276        60       FIXPVA
        277        60       FIXPVA
        278        60       FIXPVA
        279        60       FIXPVA
        280        60       FIXPVA
        281        60       FIXPVA
        282        60       FIXPVA
        283        60       FIXPVA
        284        60       FIXPVA
        285        60       FIXPVA
        286        60       FIXPVA
        287        60       FIXPVA
        288        60       FIXPVA
        289        60       FIXPVA
        290        60       FIXPVA
        291        60       FIXPVA
        292        60       FIXPVA
        293        60       FIXPVA
        294        60       FIXPVA
        295        60       FIXPVA
        296        60       FIXPVA
        297        60       FIXPVA
        298        60       FIXPVA
        299        60       FIXPVA
        300        60       FIXPVA
        301        60       FIXPVA
        302        60       FIXPVA
        303        60       FIXPVA
        304        60       FIXPVA
        305        60       FIXPVA
        306        60       FIXPVA
        307        60       FIXPVA
        308        60       FIXPVA
        309        60       FIXPVA
        310        60       FIXPVA
        311        60       FIXPVA
        312        60       FIXPVA
        313        60       FIXPVA
        314        60       FIXPVA
        315        60       FIXPVA
        316        60       FIXPVA
        317        60       FIXPVA
        318        60       FIXPVA
        319        60       FIXPVA
        320        60       FIXPVA
        321        60       FIXPVA
        322        60       FIXPVA
        323        60       FIXPVA
        324        60       FIXPVA
        325        60       FIXPVA
        326        60       FIXPVA
        327        60       FIXPVA
        328        60       FIXPVA
        329        60       FIXPVA
        330        60       FIXPVA
        331        60       FIXPVA
        332        60       FIXPVA
        333        60       FIXPVA
        334        60       FIXPVA
        335        60       FIXPVA
        336        60       FIXPVA
        337        60       FIXPVA
        338        60       FIXPVA
        339        60       FIXPVA
        340        60       FIXPVA
        341        60       FIXPVA
        342        60       FIXPVA
        343        60       FIXPVA
        344        60       FIXPVA
        345        60       FIXPVA
        346        60       FIXPVA
        347        60       FIXPVA
        348        60       FIXPVA
        349        60       FIXPVA
        350        60       FIXPVA

     ------------------------------
      FIXPVA TESSELLATION FOR PCM
         PEIFENG SU AND HUI LI
     UNIVERSITY OF NEBRASKA-LINCOLN
     ------------------------------


 PCM DIMENSIONS: MXSP=   350, MXTS=     14000, MEMORY=        143853

     INPUT FOR CAVITY DEFINITION 
     ---------------------------
   ATOM               COORDINATES                RADIUS       EPS
      1     -1.5550     -9.3030      0.2310      0.0100     78.3900
      2     -1.6670     -8.7430      1.0190      1.5900     78.3900
      3     -1.4020     -9.5710      2.1610      1.7700     78.3900
      4     -0.3850    -10.0140      2.0660      0.0100     78.3900
      5     -2.1340    -10.4070      2.1840      0.0100     78.3900
      6     -1.4960     -8.8100      3.4860      1.7700     78.3900
      7     -1.3140     -9.4910      4.3490      0.0100     78.3900
      8     -0.4820     -7.7620      3.5410      1.5900     78.3900
      9     -1.0360     -6.6210      4.1860      1.7700     78.3900
     10     -0.3700     -6.3750      5.0440      0.0100     78.3900
     11     -1.0950     -5.4650      3.2800      1.6800     78.3900
     12     -1.2410     -4.1580      3.6570      1.7700     78.3900
     13     -1.6180     -1.7790      6.1420      1.6800     78.3900
     14     -1.6240     -2.3290      6.9770      0.0100     78.3900
     15     -1.6890     -0.7810      6.2170      0.0100     78.3900
     16     -1.3690     -3.7130      4.9190      1.6800     78.3900
     17     -1.4600     -2.3890      4.9820      1.7700     78.3900
     18     -1.3940     -1.5790      3.8760      1.6800     78.3900
     19     -1.4550     -0.5820      4.0130      0.0100     78.3900
     20     -1.2580     -2.0090      2.5610      1.7700     78.3900
     21     -1.1980     -1.2060      1.6230      1.5900     78.3900
     22     -1.1900     -3.4260      2.4850      1.7700     78.3900
     23     -1.0460     -4.2620      1.3830      1.6800     78.3900
     24     -1.0020     -5.4670      1.9040      1.7700     78.3900
     25     -0.8900     -6.4000      1.3440      0.0100     78.3900
     26     -2.3990     -7.0090      4.7050      1.7700     78.3900
     27     -3.1090     -6.1590      4.7160      0.0100     78.3900
     28     -2.2830     -7.5500      6.0070      1.5900     78.3900
     29     -3.1660     -7.8400      6.2660      0.0100     78.3900
     30     -2.8230     -8.0670      3.6970      1.7700     78.3900
     31     -3.0920     -7.5920      2.7240      0.0100     78.3900
     32     -3.8280     -8.9860      4.1660      1.5900     78.3900
     33     -5.3520     -8.6540      3.9590      2.1000     78.3900
     34     -5.5680     -8.3110      2.5400      1.5900     78.3900
     35     -6.1230     -9.7900      4.5110      1.5900     78.3900
     36     -5.5890     -7.3750      4.8450      1.5900     78.3900
     37     -5.6100     -7.4820      6.2880      1.7700     78.3900
     38     -4.6990     -7.9830      6.6810      0.0100     78.3900
     39     -6.4840     -8.0820      6.6240      0.0100     78.3900
     40     -5.7230     -6.0970      6.9370      1.7700     78.3900
     41     -5.6680     -6.1680      8.0450      0.0100     78.3900
     42     -4.6350     -5.2380      6.4990      1.5900     78.3900
     43     -5.1070     -3.9060      6.3720      1.7700     78.3900
     44     -4.4850     -3.2830      7.0520      0.0100     78.3900
     45     -4.9520     -3.4000      5.0060      1.6800     78.3900
     46     -5.0140     -2.0880      4.6240      1.7700     78.3900
     47     -5.5350      1.2510      5.3820      1.6800     78.3900
     48     -5.7410      1.2250      6.3580      0.0100     78.3900
     49     -5.5760      2.1310      4.8980      0.0100     78.3900
     50     -5.2490     -1.0370      5.4330      1.6800     78.3900
     51     -5.2510      0.1180      4.7670      1.7700     78.3900
     52     -4.9830      0.2130      3.4280      1.6800     78.3900
     53     -5.0110      1.1280      3.0020      0.0100     78.3900
     54     -4.7110     -0.8490      2.5790      1.7700     78.3900
     55     -4.4750     -0.6600      1.3840      1.5900     78.3900
     56     -4.7650     -2.0910      3.2640      1.7700     78.3900
     57     -4.5840     -3.3870      2.7960      1.6800     78.3900
     58     -4.7120     -4.1330      3.8670      1.7700     78.3900
     59     -4.6610     -5.2220      3.8960      0.0100     78.3900
     60     -6.5490     -3.8840      6.8300      1.7700     78.3900
     61     -7.1680     -3.1600      6.2580      0.0100     78.3900
     62     -6.6060     -3.5730      8.2080      1.5900     78.3900
     63     -7.4900     -3.8080      8.5280      0.0100     78.3900
     64     -6.9860     -5.3160      6.5590      1.7700     78.3900
     65     -7.1420     -5.4800      5.4680      0.0100     78.3900
     66     -8.0980     -5.7530      7.3600      1.5900     78.3900
     67     -9.5490     -5.8640      6.7590      2.1000     78.3900
     68     -9.5640     -6.9510      5.7610      1.5900     78.3900
     69    -10.5160     -5.9690      7.8770      1.5900     78.3900
     70     -9.7680     -4.4980      6.0150      1.5900     78.3900
     71    -10.0600     -3.2710      6.7180      1.7700     78.3900
     72     -9.2420     -3.0090      7.4260      0.0100     78.3900
     73    -10.9980     -3.3720      7.3070      0.0100     78.3900
     74    -10.2440     -2.1070      5.7360      1.7700     78.3900
     75    -10.5420     -1.1750      6.2700      0.0100     78.3900
     76     -8.9820     -1.8470      5.0510      1.5900     78.3900
     77     -9.2380     -1.5690      3.6870      1.7700     78.3900
     78     -8.7620     -0.5840      3.4980      0.0100     78.3900
     79     -8.6400     -2.5810      2.7570      1.6800     78.3900
     80     -8.2200     -3.8050      3.2260      1.7700     78.3900
     81     -8.3840     -3.9880      4.2870      0.0100     78.3900
     82     -7.6350     -4.7060      2.4230      1.7700     78.3900
     83     -7.2890     -5.6750      2.7830      0.0100     78.3900
     84     -8.4770     -2.2940      1.4040      1.7700     78.3900
     85     -8.8300     -1.1960      0.9710      1.5900     78.3900
     86     -7.8740     -3.1720      0.5770      1.6800     78.3900
     87     -7.4450     -4.3470      1.0560      1.7700     78.3900
     88     -6.8430     -5.1810      0.2100      1.6800     78.3900
     89     -6.7020     -4.8690     -0.7340      0.0100     78.3900
     90     -6.4470     -6.0520      0.4940      0.0100     78.3900
     91    -10.7380     -1.4160      3.5340      1.7700     78.3900
     92    -11.0720     -1.7470      2.5380      0.0100     78.3900
     93    -11.1510     -0.0740      3.7700      1.5900     78.3900
     94    -10.6280      0.5310      3.2250      0.0100     78.3900
     95    -11.2540     -2.3650      4.6060      1.7700     78.3900
     96    -11.1270     -3.4220      4.2810      0.0100     78.3900
     97    -12.5910     -2.0860      5.0620      1.5900     78.3900
     98    -13.8420     -2.7640      4.3950      2.1000     78.3900
     99    -13.9620     -4.1230      4.9670      1.5900     78.3900
    100    -15.0140     -1.8800      4.5680      1.5900     78.3900
    101    -13.5220     -2.8970      2.8600      1.5900     78.3900
    102    -13.7140     -1.8050      1.9300      1.7700     78.3900
    103    -13.1600     -0.8990      2.2580      0.0100     78.3900
    104    -14.7910     -1.5240      1.8690      0.0100     78.3900
    105    -13.2390     -2.1870      0.5130      1.7700     78.3900
    106    -13.2940     -1.3360     -0.1900      0.0100     78.3900
    107    -11.8430     -2.5670      0.5190      1.5900     78.3900
    108    -11.6280     -3.6520     -0.3570      1.7700     78.3900
    109    -10.8840     -3.2830     -1.1010      0.0100     78.3900
    110    -11.0860     -4.8260      0.3640      1.6800     78.3900
    111    -11.2590     -4.9630      1.7230      1.7700     78.3900
    112    -11.7770     -4.1420      2.2120      0.0100     78.3900
    113    -10.4020     -5.7730     -0.3640      1.7700     78.3900
    114    -10.2350     -5.6850     -1.5760      1.5900     78.3900
    115     -9.9200     -6.8230      0.3750      1.6800     78.3900
    116     -9.4140     -7.5250     -0.1420      0.0100     78.3900
    117    -10.0360     -7.0100      1.7380      1.7700     78.3900
    118     -9.5330     -7.9940      2.2700      1.5900     78.3900
    119    -10.7620     -5.9880      2.4220      1.7700     78.3900
    120    -10.8690     -6.0550      3.5030      0.0100     78.3900
    121    -12.9440     -3.9500     -1.0570      1.7700     78.3900
    122    -13.1060     -5.0400     -1.2050      0.0100     78.3900
    123    -12.9620     -3.2980     -2.3070      1.5900     78.3900
    124    -13.8510     -2.9340     -2.4870      0.0100     78.3900
    125    -13.9730     -3.3830     -0.0860      1.7700     78.3900
    126    -14.1240     -4.0930      0.7570      0.0100     78.3900
    127    -15.2270     -2.9630     -0.6760      1.5900     78.3900
    128    -16.2420     -4.1050     -1.0970      2.1000     78.3900
    129    -15.7540     -5.4130     -0.6060      1.5900     78.3900
    130    -17.5930     -3.7010     -0.6530      1.5900     78.3900
    131    -16.1920     -4.0860     -2.6740      1.5900     78.3900
    132    -16.8980     -5.0990     -3.4370      1.7700     78.3900
    133    -17.7320     -5.5720     -2.8610      0.0100     78.3900
    134    -16.1840     -5.9070     -3.7070      0.0100     78.3900
    135    -17.5010     -4.5470     -4.7400      1.7700     78.3900
    136    -17.9270     -5.3680     -5.3550      0.0100     78.3900
    137    -18.6050     -3.6590     -4.4160      1.5900     78.3900
    138    -18.5590     -2.5100     -5.2500      1.7700     78.3900
    139    -19.5630     -2.4720     -5.7380      0.0100     78.3900
    140    -18.3700     -1.2440     -4.4870      1.6800     78.3900
    141    -18.0290     -1.2880     -3.1540      1.7700     78.3900
    142    -17.8560     -2.2790     -2.7310      0.0100     78.3900
    143    -17.9140     -0.1710     -2.4290      1.7700     78.3900
    144    -17.6700     -0.1920     -1.3680      0.0100     78.3900
    145    -18.5790     -0.0110     -5.1080      1.7700     78.3900
    146    -18.8920      0.0140     -6.3090      1.5900     78.3900
    147    -18.4590      1.1320     -4.3870      1.6800     78.3900
    148    -18.1380      1.0720     -3.0830      1.7700     78.3900
    149    -18.0560      2.2010     -2.3880      1.6800     78.3900
    150    -17.6830      2.2110     -1.4570      0.0100     78.3900
    151    -18.1650      3.0750     -2.8610      0.0100     78.3900
    152    -17.4970     -2.7460     -6.3110      1.7700     78.3900
    153    -16.9590     -1.8110     -6.5870      0.0100     78.3900
    154    -18.0920     -3.3240     -7.4600      1.5900     78.3900
    155    -17.3820     -3.7050     -7.9970      0.0100     78.3900
    156    -16.5490     -3.7250     -5.6230      1.7700     78.3900
    157    -15.8620     -3.1870     -4.9370      0.0100     78.3900
    158    -15.8530     -4.6150     -6.5110      1.5900     78.3900
    159    -14.4820     -4.3720     -7.2140      2.1000     78.3900
    160    -13.4060     -4.7120     -6.2600      1.5900     78.3900
    161    -14.4850     -5.0980     -8.5040      1.5900     78.3900
    162    -14.4060     -2.8420     -7.4920      1.5900     78.3900
    163    -14.9320     -2.1550     -8.6450      1.7700     78.3900
    164    -16.0420     -2.2100     -8.6470      0.0100     78.3900
    165    -14.5760     -2.6310     -9.5890      0.0100     78.3900
    166    -14.5580     -0.6520     -8.6940      1.7700     78.3900
    167    -15.0520     -0.1740     -9.5660      0.0100     78.3900
    168    -14.9630      0.0480     -7.4770      1.5900     78.3900
    169    -13.8120      0.3330     -6.6880      1.7700     78.3900
    170    -13.6300      1.4270     -6.7840      0.0100     78.3900
    171    -14.0600     -0.0270     -5.2960      1.6800     78.3900
    172    -14.5850      0.0310     -3.1640      1.7700     78.3900
    173    -14.4840     -1.2980     -3.5080      1.6800     78.3900
    174    -14.1530     -1.2860     -4.7690      1.7700     78.3900
    175    -13.9520     -2.1810     -5.3530      0.0100     78.3900
    176    -14.8730      2.0250     -1.9350      1.6800     78.3900
    177    -14.5960      2.6680     -3.0710      1.7700     78.3900
    178    -14.6030      3.7630     -3.0030      0.0100     78.3900
    179    -14.3350      2.1780     -4.2890      1.6800     78.3900
    180    -14.3370      0.8340     -4.2620      1.7700     78.3900
    181    -14.8800      0.6730     -1.9450      1.7700     78.3900
    182    -15.2130      0.0310     -0.8100      1.6800     78.3900
    183    -15.2110     -0.9750     -0.7650      0.0100     78.3900
    184    -15.3890      0.5590      0.0200      0.0100     78.3900
    185    -12.6550     -0.4220     -7.3100      1.7700     78.3900
    186    -12.6190     -1.4650     -6.9410      0.0100     78.3900
    187    -11.3960      0.1480     -7.0890      1.5900     78.3900
    188    -11.3600      1.0270     -7.4870      0.0100     78.3900
    189    -13.0420     -0.3990     -8.7780      1.7700     78.3900
    190    -12.5740     -1.2890     -9.2620      0.0100     78.3900
    191    -12.7260      0.8490     -9.4510      1.5900     78.3900
    192    -12.1840      0.8100    -10.9310      2.1000     78.3900
    193    -12.4790     -0.5150    -11.5220      1.5900     78.3900
    194    -12.7120      1.9930    -11.6430      1.5900     78.3900
    195    -10.6270      0.9650    -10.7740      1.5900     78.3900
    196     -9.7350      0.4060    -11.7730      1.7700     78.3900
    197    -10.2180      0.2780    -12.7710      0.0100     78.3900
    198     -9.4010     -0.5980    -11.4270      0.0100     78.3900
    199     -8.4800      1.2700    -11.9590      1.7700     78.3900
    200     -7.7050      0.7180    -12.5320      0.0100     78.3900
    201     -8.7990      2.4590    -12.7330      1.5900     78.3900
    202     -8.0910      3.5740    -12.2030      1.7700     78.3900
    203     -7.5070      3.9870    -13.0620      0.0100     78.3900
    204     -9.0160      4.6120    -11.6680      1.6800     78.3900
    205    -10.3290      4.3100    -11.3640      1.7700     78.3900
    206    -10.6270      3.2740    -11.5300      0.0100     78.3900
    207     -8.5270      5.8880    -11.4880      1.7700     78.3900
    208     -7.3620      6.1940    -11.7300      1.5900     78.3900
    209     -9.4430      6.7960    -11.0200      1.6800     78.3900
    210     -9.1060      7.7410    -10.9000      0.0100     78.3900
    211    -10.7770      6.5780    -10.7430      1.7700     78.3900
    212    -11.4920      7.5110    -10.3750      1.5900     78.3900
    213    -11.2070      5.2240    -10.9300      1.7700     78.3900
    214    -12.2490      4.9680    -10.7430      0.0100     78.3900
    215     -7.1230      3.0420    -11.1500      1.7700     78.3900
    216     -6.9690      3.7640    -10.3170      0.0100     78.3900
    217     -5.8730      2.7140    -11.7330      1.5900     78.3900
    218     -5.3570      2.2630    -11.0470      0.0100     78.3900
    219     -7.8580      1.8000    -10.6630      1.7700     78.3900
    220     -8.6900      2.1010     -9.9900      0.0100     78.3900
    221     -7.0390      0.7710    -10.0810      1.5900     78.3900
    222     -6.4000      0.9330     -8.6610      2.1000     78.3900
    223     -6.4870     -0.3700     -7.9660      1.5900     78.3900
    224     -5.0500      1.5030     -8.8490      1.5900     78.3900
    225     -7.2870      2.0050     -7.9150      1.5900     78.3900
    226     -8.3060      1.5740     -6.9940      1.7700     78.3900
    227     -7.8640      0.9970     -6.1470      0.0100     78.3900
    228     -9.0320      0.9090     -7.5200      0.0100     78.3900
    229     -9.0590      2.7840     -6.4260      1.7700     78.3900
    230     -9.3640      3.4860     -7.2310      0.0100     78.3900
    231    -10.2700      2.2970     -5.7930      1.5900     78.3900
    232    -10.5220      2.9960     -4.5930      1.7700     78.3900
    233    -11.5550      3.4040     -4.6730      0.0100     78.3900
    234    -10.4560      2.1110     -3.4250      1.6800     78.3900
    235    -10.7350      1.2640     -1.4140      1.7700     78.3900
    236    -10.0410      0.3090     -2.1420      1.6800     78.3900
    237     -9.9040      0.8550     -3.3280      1.7700     78.3900
    238     -9.4170      0.3860     -4.1860      0.0100     78.3900
    239    -11.8560      2.4180      0.3140      1.6800     78.3900
    240    -12.0260      3.4150     -0.5490      1.7700     78.3900
    241    -12.5580      4.2860     -0.1490      0.0100     78.3900
    242    -11.6050      3.5110     -1.8110      1.6800     78.3900
    243    -10.9870      2.3800     -2.1930      1.7700     78.3900
    244    -11.2160      1.3000     -0.0890      1.7700     78.3900
    245    -11.1020      0.3060      0.7970      1.6800     78.3900
    246    -10.5940     -0.5320      0.5600      0.0100     78.3900
    247    -11.6880      0.2890      1.6000      0.0100     78.3900
    248     -9.5310      4.1240     -4.5230      1.7700     78.3900
    249     -9.2420      4.3750     -3.4830      0.0100     78.3900
    250    -10.0650      5.2670     -5.1560      1.5900     78.3900
    251     -9.3310      5.8850     -5.2490      0.0100     78.3900
    252     -8.3500      3.5580     -5.3070      1.7700     78.3900
    253     -7.8060      2.7970     -4.7030      0.0100     78.3900
    254     -7.4740      4.5570     -5.8690      1.5900     78.3900
    255     -6.2430      5.0610     -5.0280      2.1000     78.3900
    256     -5.4910      3.8960     -4.5170      1.5900     78.3900
    257     -5.4970      6.0400     -5.8460      1.5900     78.3900
    258     -6.8820      5.7980     -3.7940      1.5900     78.3900
    259     -7.5450      7.0750     -3.9090      1.7700     78.3900
    260     -8.3630      7.0420     -4.6610      0.0100     78.3900
    261     -6.8210      7.8570     -4.2330      0.0100     78.3900
    262     -8.1470      7.5130     -2.5640      1.7700     78.3900
    263     -8.7090      8.4670     -2.6680      0.0100     78.3900
    264     -9.0900      6.5120     -2.0780      1.5900     78.3900
    265     -8.9310      6.3470     -0.6770      1.7700     78.3900
    266     -9.9340      6.5150     -0.2210      0.0100     78.3900
    267     -8.4870      4.9940     -0.3510      1.6800     78.3900
    268     -8.0700      3.1160      0.6970      1.7700     78.3900
    269     -7.6560      2.9280     -0.6130      1.6800     78.3900
    270     -7.9190      4.0690     -1.1910      1.7700     78.3900
    271     -7.7070      4.2990     -2.2340      0.0100     78.3900
    272     -8.5440      2.7600      2.9910      1.6800     78.3900
    273     -8.9840      4.0230      3.0130      1.7700     78.3900
    274     -9.3600      4.3700      3.9850      0.0100     78.3900
    275     -9.0500      4.9140      2.0130      1.6800     78.3900
    276     -8.5790      4.3860      0.8720      1.7700     78.3900
    277     -8.0500      2.2780      1.8260      1.7700     78.3900
    278     -7.5400      1.0440      1.8030      1.6800     78.3900
    279     -7.4570      0.5520      0.9320      0.0100     78.3900
    280     -7.6690      0.4990      2.6190      0.0100     78.3900
    281     -7.9630      7.4050     -0.1890      1.7700     78.3900
    282     -7.3240      7.0570      0.6520      0.0100     78.3900
    283     -8.6810      8.5580      0.2010      1.5900     78.3900
    284     -8.0340      9.2640      0.3570      0.0100     78.3900
    285     -7.1210      7.6600     -1.4330      1.7700     78.3900
    286     -6.3930      6.8270     -1.5720      0.0100     78.3900
    287     -6.5100      8.9680     -1.4920      1.5900     78.3900
    288     -5.0750      9.1760     -0.8920      2.1000     78.3900
    289     -4.3130      7.9210     -1.0560      1.5900     78.3900
    290     -4.4940     10.3970     -1.4880      1.5900     78.3900
    291     -5.3140      9.4300      0.6430      1.5900     78.3900
    292     -4.2220      9.2280      1.5870      1.7700     78.3900
    293     -3.7500     10.2080      1.8280      0.0100     78.3900
    294     -3.4070      8.5830      1.1740      0.0100     78.3900
    295     -4.6850      8.5670      2.9040      1.7700     78.3900
    296     -5.0970      9.3230      3.6030      0.0100     78.3900
    297     -5.7540      7.6020      2.6470      1.5900     78.3900
    298     -5.5140      6.4180      3.3920      1.7700     78.3900
    299     -6.4700      6.1980      3.9250      0.0100     78.3900
    300     -5.1590      5.2550      2.5330      1.6800     78.3900
    301     -4.7320      5.4410      1.2330      1.7700     78.3900
    302     -4.6720      6.4740      0.8780      0.0100     78.3900
    303     -4.4320      4.3980      0.4470      1.7700     78.3900
    304     -4.1030      4.5210     -0.5840      0.0100     78.3900
    305     -5.2500      3.9660      3.0530      1.7700     78.3900
    306     -5.6320      3.8110      4.2240      1.5900     78.3900
    307     -4.9220      2.9090      2.2800      1.6800     78.3900
    308     -4.5530      3.0910      1.0000      1.7700     78.3900
    309     -4.2980      2.0280      0.2430      1.6800     78.3900
    310     -4.4000      1.1080      0.6260      0.0100     78.3900
    311     -4.0080      2.1170     -0.7120      0.0100     78.3900
    312     -4.4370      6.7420      4.4070      1.7700     78.3900
    313     -3.8470      5.8520      4.7060      0.0100     78.3900
    314     -5.0100      7.3410      5.5550      1.5900     78.3900
    315     -4.2840      7.6510      6.1100      0.0100     78.3900
    316     -3.5990      7.7400      3.6230      1.7700     78.3900
    317     -3.0380      7.2080      2.8210      0.0100     78.3900
    318     -2.7640      8.5970      4.4340      1.5900     78.3900
    319     -1.2240      8.2930      4.5690      2.1000     78.3900
    320     -0.6970      7.8570      3.2590      1.5900     78.3900
    321     -0.5700      9.4590      5.1990      1.5900     78.3900
    322     -1.1890      7.0720      5.5610      1.5900     78.3900
    323     -1.6240      7.2210      6.9310      1.7700     78.3900
    324     -2.6640      7.6140      6.9880      0.0100     78.3900
    325     -0.9580      7.9320      7.4710      0.0100     78.3900
    326     -1.5830      5.8800      7.6770      1.7700     78.3900
    327     -1.8330      6.0140      8.7510      0.0100     78.3900
[...]
   6  5  0    -2640.0183689012     0.0000001423   0.000006033   0.000001552     1640181295  251703196
   7  6  0    -2640.0183690825    -0.0000001813   0.000002115   0.000000711     1503305264  252890125
   8  7  0    -2640.0183691334    -0.0000000510   0.000000895   0.000000380     1392770847  253866876
   9  8  0    -2640.0183691181     0.0000000153   0.000000215   0.000000130     1250590090  255073422
  10  9  0    -2640.0183691099     0.0000000082   0.000000139   0.000000049     1130646151  256053027
  11 10  0    -2640.0183691089     0.0000000010   0.000000047   0.000000020      984432844  257335315

          -----------------
          DENSITY CONVERGED
          -----------------
     TIME TO FORM FOCK OPERATORS=      64.2 SECONDS (       5.8 SEC/ITER)
     FOCK TIME ON FIRST ITERATION=       9.6, LAST ITERATION=       3.5
     TIME TO SOLVE SCF EQUATIONS=       1.1 SECONDS (       0.1 SEC/ITER)

 FINAL RHF ENERGY IS    -2640.0183691089 AFTER  11 ITERATIONS
 ...... END OF RHF CALCULATION ......
 CPU     0: STEP CPU TIME=   148.33 TOTAL CPU TIME=      16847.9 (    280.8 MIN)
 TOTAL WALL CLOCK TIME=      38660.2 SECONDS, CPU UTILIZATION IS    43.58%

 --------------------------   -----------------------------
 RHF-MP2 ENERGY CALCULATION   PROGRAM WRITTEN BY K.ISHIMURA
 --------------------------   -----------------------------
 NUMBER OF OCCUPIED ORBITALS            =  158
 NUMBER OF CORRELATED OCCUPIED ORBITALS =  110
 NUMBER OF VIRTUAL ORBITALS             =  472
 NUMBER OF BASIS FUNCTIONS              =  682
 NUMBER OF BASIS SHELLS                 =  214
 AO-TRANSFORMED INTEGRAL THRESHOLD      = 1.00E-12
 HALF-TRANSFORMED INTEGRAL THRESHOLD    = 3.20E-14

 NUMBER OF REDUNDANT MOS IN FMO         =   10
 TOTAL DISK REQUIRED (ALL PROCESSORS)=          15721 MBYTES
                  DISK SPACE PER CORE=            982 MBYTES, USING P=   16
 MEMORY REQUIRED FOR TRANSFORMATION OF 1ST THREE INDICES=    28956568
 MEMORY REQUIRED FOR    4TH INDEX TRANSF. AND MP2 ENERGY=    56699514
 BEGINNING MP2 INTEGRAL TRANSFORMATION...
 BEGINNING    1ST SHELL LOOP...
 BEGINNING   26TH SHELL LOOP...
 BEGINNING   51ST SHELL LOOP...
 BEGINNING   76TH SHELL LOOP...
 BEGINNING  101ST SHELL LOOP...
 BEGINNING  126TH SHELL LOOP...
 BEGINNING  151ST SHELL LOOP...
 BEGINNING  176TH SHELL LOOP...
 BEGINNING  201ST SHELL LOOP...

 RESULTS OF MOLLER-PLESSET 2ND ORDER CORRECTION ARE
               E(0)=     -2640.0183691089
               E(1)=         0.0
               E(2)=        -5.7793270735
             E(MP2)=     -2645.7976961823
 SPIN-COMPONENT-SCALED MP2 RESULTS ARE
              E(2S)=        -4.1945870773
              E(2T)=        -1.5847399961
             E(2ST)=        -5.5617511582 = 6/5 * E(2S) + 1/3 * E(2T)
            SCS-MP2=     -2645.5801202670

          ---------------------
          ELECTROSTATIC MOMENTS
          ---------------------

 POINT   1           X           Y           Z (BOHR)    CHARGE
               -16.074209    0.306279   -0.995819       -2.00 (A.U.)
         DX          DY          DZ         /D/  (DEBYE)
    -2.604909  -29.952758  -56.371898   63.888529

 Atomic populations
     I    Z      Q
     1   5.0   5.4146081
     2   1.0   0.7707291
     3   1.0   0.7690635
     4   6.0   5.8859234
     5   1.0   0.7762811
     6   8.0   8.7203227
     7   6.0   5.5820875
     8   1.0   0.7453629
     9   7.0   7.8279691
    10   6.0   5.8302311
    11   1.0   0.6683529
    12   6.0   6.4028270
    13   1.0   0.7237175
    14   6.0   4.9422677
    15   8.0   8.7904946
    16   7.0   7.8593680
    17   6.0   5.2623838
    18   7.0   7.9544874
    19   1.0   0.5384064
    20   1.0   0.5493365
    21   6.0   5.8516634
    22   1.0   0.8086079
    23   8.0   8.8266376
    24   1.0   0.5044931
    25   6.0   5.8667439
    26   1.0   0.7607131
    27   8.0   8.7980092
    28  15.0  13.3953871
    29   8.0   8.8953145
    30   8.0   8.8901563
    31   8.0   8.9745859
    32   5.0   5.3828775
    33   1.0   0.8207056
    34   1.0   0.7558639
    35   6.0   5.9219301
    36   1.0   0.7374148
    37   8.0   8.7241907
    38   6.0   5.5236772
    39   1.0   0.8375203
    40   7.0   7.8336051
    41   6.0   5.8003424
    42   1.0   0.7047347
    43   6.0   6.3926401
    44   1.0   0.7073969
    45   6.0   4.9987527
    46   8.0   8.7610465
    47   7.0   7.7576670
    48   6.0   5.3065834
    49   7.0   7.9589601
    50   1.0   0.5561025
    51   1.0   0.5599139
    52   6.0   5.8786639
    53   1.0   0.7773887
    54   8.0   8.8285564
    55   1.0   0.5103860
    56   6.0   5.8325834
    57   1.0   0.7775792
    58   8.0   8.7643001
    59  15.0  13.4185354
    60   8.0   8.8892792
    61   8.0   8.8969126
    62   8.0   8.9849275
    63   1.0   0.4134677
    64   1.0   0.3989623
 Redoing 1e ESP:                    -1

  iFrag=     10 jFrag=      3 EFMOc= -2726.543936000

  iFrag=     10 jFrag=      3 EFMOu= -2720.764608926 Tr= 0.000321202

 I,J=       5       3 Ees_I(J)=  -10.436 Ees_J(I)=  -13.764 Ees_IJ=  -24.200

 energy of the separated dimer    5    3, L1=  682 is     -2720.777970352

 CPU     0: STEP CPU TIME=   189.11 TOTAL CPU TIME=      17037.0 (    284.0 MIN)
 TOTAL WALL CLOCK TIME=      39035.8 SECONDS, CPU UTILIZATION IS    43.64%

 RHF      dimer      5      3 corr= MP2        , LL1=   682 ID=            23

          -----------------------
          MP2 CONTROL INFORMATION
          -----------------------
          NACORE =       48  NBCORE =       48
          LMOMP2 =        F  AOINTS = DUP     
          METHOD =        2  NWORD  =               0
          MP2PRP =        F  OSPT   = NONE    
          CUTOFF = 1.00E-12  CPHFBS = BASISAO 
          CODE   = IMS     

          NUMBER OF CORE -A-  ORBITALS =    48
          NUMBER OF CORE -B-  ORBITALS =    48
          NUMBER OF OCC. -A-  ORBITALS =   158
          NUMBER OF OCC. -B-  ORBITALS =   158
          NUMBER OF MOLECULAR ORBITALS =   682
          NUMBER OF   BASIS  FUNCTIONS =   682


 AO spaces for     5     3     0 n-mer: L1=   682, L0=   640

 DIRECT SCF CALCULATION, SCHWRZ=T   FDIFF=T,  DIRTHR=  0.00E+00 NITDIR=10

                                                                                   NONZERO     BLOCKS
 ITER EX DEM     TOTAL ENERGY        E CHANGE  DENSITY CHANGE     ORB. GRAD      INTEGRALS    SKIPPED
   1  0  0    -2631.4531597835 -2631.4531597835   0.001626202   0.000000000     2579058341  240157342
          ---------------START SECOND ORDER SCF---------------
   2  1  0    -2631.4618169669    -0.0086571834   0.000126882   0.000038845     1783850010  250408384
   3  2  0    -2631.4618297421    -0.0000127752   0.000059391   0.000026406     1812061679  250272879
   4  3  0    -2631.4618325473    -0.0000028051   0.000025000   0.000008311     1648705338  251684475
   5  4  0    -2631.4618322642     0.0000002831   0.000004959   0.000002812     1559032843  252513567
   6  5  0    -2631.4618328300    -0.0000005658   0.000003101   0.000001800     1418033814  253719120
   7  6  0    -2631.4618329168    -0.0000000869   0.000001265   0.000000382     1310413499  254639994
   8  7  0    -2631.4618328497     0.0000000671   0.000000384   0.000000242     1196308849  255604588
   9  8  0    -2631.4618328495     0.0000000002   0.000000140   0.000000044     1074469162  256597330
  10  9  0    -2631.4618328492     0.0000000003   0.000000047   0.000000014      979089233  257358648

          -----------------
          DENSITY CONVERGED
          -----------------
     TIME TO FORM FOCK OPERATORS=      57.6 SECONDS (       5.8 SEC/ITER)
     FOCK TIME ON FIRST ITERATION=      11.7, LAST ITERATION=       3.5
     TIME TO SOLVE SCF EQUATIONS=       1.0 SECONDS (       0.1 SEC/ITER)

 FINAL RHF ENERGY IS    -2631.4618328492 AFTER  10 ITERATIONS
 ...... END OF RHF CALCULATION ......
 CPU     0: STEP CPU TIME=   136.94 TOTAL CPU TIME=      17174.0 (    286.2 MIN)
 TOTAL WALL CLOCK TIME=      39278.7 SECONDS, CPU UTILIZATION IS    43.72%

 --------------------------   -----------------------------
 RHF-MP2 ENERGY CALCULATION   PROGRAM WRITTEN BY K.ISHIMURA
 --------------------------   -----------------------------
 NUMBER OF OCCUPIED ORBITALS            =  158
 NUMBER OF CORRELATED OCCUPIED ORBITALS =  110
 NUMBER OF VIRTUAL ORBITALS             =  472
 NUMBER OF BASIS FUNCTIONS              =  682
 NUMBER OF BASIS SHELLS                 =  214
 AO-TRANSFORMED INTEGRAL THRESHOLD      = 1.00E-12
 HALF-TRANSFORMED INTEGRAL THRESHOLD    = 3.68E-14

 NUMBER OF REDUNDANT MOS IN FMO         =   10
 TOTAL DISK REQUIRED (ALL PROCESSORS)=          15721 MBYTES
                  DISK SPACE PER CORE=            982 MBYTES, USING P=   16
 MEMORY REQUIRED FOR TRANSFORMATION OF 1ST THREE INDICES=    28956568
 MEMORY REQUIRED FOR    4TH INDEX TRANSF. AND MP2 ENERGY=    56699514
 BEGINNING MP2 INTEGRAL TRANSFORMATION...
 BEGINNING    1ST SHELL LOOP...
 BEGINNING   26TH SHELL LOOP...
 BEGINNING   51ST SHELL LOOP...
 BEGINNING   76TH SHELL LOOP...
 BEGINNING  101ST SHELL LOOP...
 BEGINNING  126TH SHELL LOOP...
 BEGINNING  151ST SHELL LOOP...
 BEGINNING  176TH SHELL LOOP...
 BEGINNING  201ST SHELL LOOP...

 RESULTS OF MOLLER-PLESSET 2ND ORDER CORRECTION ARE
               E(0)=     -2631.4618328492
               E(1)=         0.0
               E(2)=        -5.7767414566
             E(MP2)=     -2637.2385743058
 SPIN-COMPONENT-SCALED MP2 RESULTS ARE
              E(2S)=        -4.1925546871
              E(2T)=        -1.5841867695
             E(2ST)=        -5.5591278810 = 6/5 * E(2S) + 1/3 * E(2T)
            SCS-MP2=     -2637.0209607302

          ---------------------
          ELECTROSTATIC MOMENTS
          ---------------------

 POINT   1           X           Y           Z (BOHR)    CHARGE
               -16.074209    0.306279   -0.995819       -2.00 (A.U.)
         DX          DY          DZ         /D/  (DEBYE)
    63.471429   34.262934   13.816584   73.440240

 Atomic populations
     I    Z      Q
     1   5.0   5.4178151
     2   1.0   0.7666401
     3   1.0   0.7800124
     4   6.0   5.9037009
     5   1.0   0.7518039
     6   8.0   8.7288802
     7   6.0   5.5585773
     8   1.0   0.7584690
     9   7.0   7.8329029
    10   6.0   5.7939287
    11   1.0   0.6692605
    12   6.0   6.4010137
    13   1.0   0.7421024
    14   6.0   4.9963617
    15   8.0   8.7561311
    16   7.0   7.7821695
    17   6.0   5.3070816
    18   7.0   7.9587773
    19   1.0   0.5491568
    20   1.0   0.5600310
    21   6.0   5.8950966
    22   1.0   0.7637173
    23   8.0   8.8357266
    24   1.0   0.4990920
    25   6.0   5.8329702
    26   1.0   0.7768416
    27   8.0   8.7812996
    28  15.0  13.4396783
    29   8.0   8.8804539
    30   8.0   8.9057985
    31   8.0   8.9776129
    32   5.0   5.3830713
    33   1.0   0.8206331
    34   1.0   0.7562531
    35   6.0   5.9217393
    36   1.0   0.7373256
    37   8.0   8.7238770
    38   6.0   5.5241653
    39   1.0   0.8359079
    40   7.0   7.8336293
    41   6.0   5.7999954
    42   1.0   0.7049661
    43   6.0   6.3928904
    44   1.0   0.7078515
    45   6.0   4.9984100
    46   8.0   8.7608045
    47   7.0   7.7576604
    48   6.0   5.3064393
    49   7.0   7.9591385
    50   1.0   0.5561592
    51   1.0   0.5601627
    52   6.0   5.8786052
    53   1.0   0.7776826
    54   8.0   8.8287012
    55   1.0   0.5101307
    56   6.0   5.8326516
    57   1.0   0.7778188
    58   8.0   8.7643907
    59  15.0  13.4184901
    60   8.0   8.8894545
    61   8.0   8.8971067
    62   8.0   8.9849298
    63   1.0   0.3968965
    64   1.0   0.3989580
 Redoing 1e ESP:                    -1

  iFrag=      5 jFrag=      3 EFMOc= -2726.554410486

  iFrag=      5 jFrag=      3 EFMOu= -2720.777669030 Tr=-0.000356086

 I,J=       4       3 Ees_I(J)=  -20.170 Ees_J(I)=  -23.399 Ees_IJ=  -43.569

 energy of the separated dimer    4    3, L1=  680 is     -2755.313701834

 CPU     0: STEP CPU TIME=   197.93 TOTAL CPU TIME=      17371.9 (    289.5 MIN)
 TOTAL WALL CLOCK TIME=      39645.2 SECONDS, CPU UTILIZATION IS    43.82%

 RHF      dimer      4      3 corr= MP2        , LL1=   680 ID=            24

          -----------------------
          MP2 CONTROL INFORMATION
          -----------------------
          NACORE =       48  NBCORE =       48
          LMOMP2 =        F  AOINTS = DUP     
          METHOD =        2  NWORD  =               0
          MP2PRP =        F  OSPT   = NONE    
          CUTOFF = 1.00E-12  CPHFBS = BASISAO 
          CODE   = IMS     

          NUMBER OF CORE -A-  ORBITALS =    48
          NUMBER OF CORE -B-  ORBITALS =    48
          NUMBER OF OCC. -A-  ORBITALS =   158
          NUMBER OF OCC. -B-  ORBITALS =   158
          NUMBER OF MOLECULAR ORBITALS =   665
          NUMBER OF   BASIS  FUNCTIONS =   665


 AO spaces for     4     3     0 n-mer: L1=   665, L0=   624

 DIRECT SCF CALCULATION, SCHWRZ=T   FDIFF=T,  DIRTHR=  0.00E+00 NITDIR=10

                                                                                   NONZERO     BLOCKS
 ITER EX DEM     TOTAL ENERGY        E CHANGE  DENSITY CHANGE     ORB. GRAD      INTEGRALS    SKIPPED
   1  0  0    -2646.8913695469 -2646.8913695469   0.138146278   0.000000000     4851464562  189973174
          ---------------START SECOND ORDER SCF---------------
   2  1  0    -2650.5806197185    -3.6892501716   0.042013062   0.005568552     4614287542  195749016
   3  2  0    -2650.5864642771    -0.0058445586   0.015260659   0.001854051     4291134817  200060693
   4  3  0    -2650.5873936449    -0.0009293678   0.004642387   0.000861004     4062424500  202448643
   5  4  0    -2650.5873911598     0.0000024851   0.000832534   0.000082446     3755125368  205510333
   6  5  0    -2650.5873897681     0.0000013917   0.000246375   0.000044487     3429017125  208495648
   7  6  0    -2650.5873910306    -0.0000012625   0.000096234   0.000015128     3135403165  211104210
   8  7  0    -2650.5873899528     0.0000010778   0.000025755   0.000004684     2835324804  213702103
   9  8  0    -2650.5873895860     0.0000003668   0.000008502   0.000001761     2567584028  216004480
  10  9  0    -2650.5873895244     0.0000000616   0.000002746   0.000000514     2264817841  218647146
  11 10  0    -2650.5873895021     0.0000000223   0.000000794   0.000000314     2016505341  220728892
  12 11  0    -2650.5873894842     0.0000000179   0.000000359   0.000000164     1771351649  222787877
  13 12  0    -2650.5873894937    -0.0000000095   0.000000097   0.000000029     1625753785  223955102
  14 13  0    -2650.5873894908     0.0000000030   0.000000040   0.000000018     1351734277  226121676

          -----------------
          DENSITY CONVERGED
          -----------------
     TIME TO FORM FOCK OPERATORS=     138.7 SECONDS (       9.9 SEC/ITER)
     FOCK TIME ON FIRST ITERATION=      12.7, LAST ITERATION=       4.3
     TIME TO SOLVE SCF EQUATIONS=       1.3 SECONDS (       0.1 SEC/ITER)

 FINAL RHF ENERGY IS    -2650.5873894908 AFTER  14 ITERATIONS
 ...... END OF RHF CALCULATION ......
 CPU     0: STEP CPU TIME=   235.18 TOTAL CPU TIME=      17607.1 (    293.5 MIN)
 TOTAL WALL CLOCK TIME=      40104.1 SECONDS, CPU UTILIZATION IS    43.90%

 --------------------------   -----------------------------
 RHF-MP2 ENERGY CALCULATION   PROGRAM WRITTEN BY K.ISHIMURA
 --------------------------   -----------------------------
 NUMBER OF OCCUPIED ORBITALS            =  158
 NUMBER OF CORRELATED OCCUPIED ORBITALS =  110
 NUMBER OF VIRTUAL ORBITALS             =  461
 NUMBER OF BASIS FUNCTIONS              =  665
 NUMBER OF BASIS SHELLS                 =  208
 AO-TRANSFORMED INTEGRAL THRESHOLD      = 1.00E-12
 HALF-TRANSFORMED INTEGRAL THRESHOLD    = 5.64E-14

 NUMBER OF REDUNDANT MOS IN FMO         =    5
 TOTAL DISK REQUIRED (ALL PROCESSORS)=          14972 MBYTES
                  DISK SPACE PER CORE=            935 MBYTES, USING P=   16
 MEMORY REQUIRED FOR TRANSFORMATION OF 1ST THREE INDICES=    28267824
 MEMORY REQUIRED FOR    4TH INDEX TRANSF. AND MP2 ENERGY=    56465108
 BEGINNING MP2 INTEGRAL TRANSFORMATION...
 BEGINNING    1ST SHELL LOOP...
 BEGINNING   26TH SHELL LOOP...
 BEGINNING   51ST SHELL LOOP...
 BEGINNING   76TH SHELL LOOP...
 BEGINNING  101ST SHELL LOOP...
 BEGINNING  126TH SHELL LOOP...
 BEGINNING  151ST SHELL LOOP...
 BEGINNING  176TH SHELL LOOP...
 BEGINNING  201ST SHELL LOOP...

 RESULTS OF MOLLER-PLESSET 2ND ORDER CORRECTION ARE
               E(0)=     -2650.5873894908
               E(1)=         0.0
               E(2)=        -5.8678315419
             E(MP2)=     -2656.4552210327
 SPIN-COMPONENT-SCALED MP2 RESULTS ARE
              E(2S)=        -4.2459900318
              E(2T)=        -1.6218415102
             E(2ST)=        -5.6358018749 = 6/5 * E(2S) + 1/3 * E(2T)
            SCS-MP2=     -2656.2231913656

          ---------------------
          ELECTROSTATIC MOMENTS
          ---------------------

 POINT   1           X           Y           Z (BOHR)    CHARGE
               -16.074209    0.306279   -0.995819       -2.00 (A.U.)
         DX          DY          DZ         /D/  (DEBYE)
    64.545671   29.759071  -24.836851   75.290206

 Atomic populations
     I    Z      Q
     1   6.0   6.0075837
     2   1.0   0.8286849
     3   1.0   0.7735846
     4   6.0   5.8295075
     5   1.0   0.7968542
     6   8.0   8.7484589
     7   6.0   5.5714164
     8   1.0   0.7369224
     9   7.0   7.8366622
    10   6.0   5.8411331
    11   1.0   0.6740073
    12   6.0   4.8766659
    13   8.0   8.6961294
    14   7.0   7.9560894
    15   1.0   0.5378166
    16   6.0   5.1393697
    17   8.0   8.6731315
    18   6.0   6.4495108
    19   1.0   0.7032557
    20   6.0   5.8651381
    21   1.0   0.7773838
    22   8.0   8.8488149
    23   1.0   0.4683597
    24   6.0   5.8622800
    25   1.0   0.7606455
    26   8.0   8.8248861
    27  15.0  13.3937284
    28   8.0   8.9179305
    29   8.0   8.8754968
    30   8.0   8.9606626
    31   5.0   5.3833370
    32   1.0   0.8202987
    33   1.0   0.7569901
    34   6.0   5.9213386
    35   1.0   0.7373462
    36   8.0   8.7241835
    37   6.0   5.5205890
    38   1.0   0.8361998
    39   7.0   7.8352205
    40   6.0   5.8012758
    41   1.0   0.7053007
    42   6.0   6.3906348
    43   1.0   0.7081019
    44   6.0   4.9906604
    45   8.0   8.7645311
    46   7.0   7.7624469
    47   6.0   5.3018852
    48   7.0   7.9606137
    49   1.0   0.5561230
    50   1.0   0.5603831
    51   6.0   5.8937115
    52   1.0   0.7549675
    53   8.0   8.8284157
    54   1.0   0.5106251
    55   6.0   5.8538791
    56   1.0   0.7651436
    57   8.0   8.7660798
    58  15.0  13.3842879
    59   8.0   8.8838297
    60   8.0   8.8899856
    61   8.0   8.7942528
    62   1.0   0.4052509
 Redoing 1e ESP:                    -1

  iFrag=      4 jFrag=      3 EFMOc= -2761.517056834

  iFrag=      4 jFrag=      3 EFMOu= -2755.649225292 Tr=-0.000538581

 I,J=       5       4 Ees_I(J)=  -20.323 Ees_J(I)=  -23.648 Ees_IJ=  -43.971

 energy of the separated dimer    5    4, L1=  680 is     -2755.329039939

 CPU     0: STEP CPU TIME=   332.75 TOTAL CPU TIME=      17939.8 (    299.0 MIN)
 TOTAL WALL CLOCK TIME=      40712.2 SECONDS, CPU UTILIZATION IS    44.06%

 RHF      dimer      5      4 corr= MP2        , LL1=   680 ID=            25

          -----------------------
          MP2 CONTROL INFORMATION
          -----------------------
          NACORE =       48  NBCORE =       48
          LMOMP2 =        F  AOINTS = DUP     
          METHOD =        2  NWORD  =               0
          MP2PRP =        F  OSPT   = NONE    
          CUTOFF = 1.00E-12  CPHFBS = BASISAO 
          CODE   = IMS     

          NUMBER OF CORE -A-  ORBITALS =    48
          NUMBER OF CORE -B-  ORBITALS =    48
          NUMBER OF OCC. -A-  ORBITALS =   158
          NUMBER OF OCC. -B-  ORBITALS =   158
          NUMBER OF MOLECULAR ORBITALS =   665
          NUMBER OF   BASIS  FUNCTIONS =   665

