‘1SZY_2_fmo_input.inp’ -> ‘/scratch/hazwong/820826/./1SZY_2_fmo_input.inp’
‘rungms’ -> ‘/scratch/hazwong/820826/./rungms’
‘gms-files.csh’ -> ‘/scratch/hazwong/820826/./gms-files.csh’
----- GAMESS execution script 'rungms' -----
This job is running on host gollum087.lsa.umich.edu
under operating system Linux at Fri Dec 6 00:37:13 EST 2019
Available scratch disk space (Kbyte units) at beginning of the job is
Filesystem     1K-blocks  Used Available Use% Mounted on
/dev/sda4      426933580 33432 426900148   1% /scratch
GAMESS temporary binary files will be written to /scratch/hazwong/820826/1SZY_2/usrc
GAMESS supplementary output files will be written to /scratch/hazwong/820826/1SZY_2/src
Copying input file 1SZY_2_fmo_input.inp to your run's scratch directory...
cp 1SZY_2_fmo_input.inp /scratch/hazwong/820826/1SZY_2/usrc/1SZY_2_fmo_input.F05
unset echo
This is a GDDI run, keeping various output files on local disks
setenv OUTPUT /scratch/hazwong/820826/1SZY_2/usrc/1SZY_2_fmo_input.F06
setenv PUNCH /scratch/hazwong/820826/1SZY_2/usrc/1SZY_2_fmo_input.F07
unset echo
 
Assuming a single but multicore node.
 
/export/apps/CentOS7/gamess/src/build//ddikick.x /export/apps/CentOS7/gamess/src/build//gamess.R3.x 1SZY_2_fmo_input -ddi 1 16 gollum087.lsa.umich.edu:cpus=16 -scr /scratch/hazwong/820826/1SZY_2/usrc

 Distributed Data Interface kickoff program.
 Initiating 16 compute processes on 1 nodes to run the following command:
 /export/apps/CentOS7/gamess/src/build//gamess.R3.x 1SZY_2_fmo_input 

          ******************************************************
          *         GAMESS VERSION = 30 SEP 2018 (R3)         *
          *             FROM IOWA STATE UNIVERSITY             *
          * M.W.SCHMIDT, K.K.BALDRIDGE, J.A.BOATZ, S.T.ELBERT, *
          *   M.S.GORDON, J.H.JENSEN, S.KOSEKI, N.MATSUNAGA,   *
          *          K.A.NGUYEN, S.J.SU, T.L.WINDUS,           *
          *       TOGETHER WITH M.DUPUIS, J.A.MONTGOMERY       *
          *         J.COMPUT.CHEM.  14, 1347-1363(1993)        *
          **************** 64 BIT LINUX VERSION ****************

  SINCE 1993, STUDENTS AND POSTDOCS WORKING AT IOWA STATE UNIVERSITY
  AND ALSO IN THEIR VARIOUS JOBS AFTER LEAVING ISU HAVE MADE IMPORTANT
  CONTRIBUTIONS TO THE CODE:
     IVANA ADAMOVIC, CHRISTINE AIKENS, YURI ALEXEEV, POOJA ARORA,
     ANDREY ASADCHEV, ROB BELL, PRADIPTA BANDYOPADHYAY, JONATHAN BENTZ,
     BRETT BODE, KURT BRORSEN, CALEB CARLIN, GALINA CHABAN, WEI CHEN,
     CHEOL HO CHOI, PAUL DAY, ALBERT DEFUSCO, NUWAN DESILVA, TIM DUDLEY,
     DMITRI FEDOROV, ALEX FINDLATER, GRAHAM FLETCHER, MARK FREITAG,
     KURT GLAESEMANN, ANASTASIA GUNINA,
     DAN KEMP, GRANT MERRILL, NORIYUKI MINEZAWA, JONATHAN MULLIN,
     TAKESHI NAGATA, SEAN NEDD, HEATHER NETZLOFF, BOSILJKA NJEGIC, RYAN OLSON,
     MIKE PAK, BUU PHAM,
     SPENCER PRUITT, LUKE ROSKOP, JIM SHOEMAKER, LYUDMILA SLIPCHENKO,
     TONY SMITH, SAROM SOK LEANG, JIE SONG, TETSUYA TAKETSUGU, SIMON WEBB,
     PENG XU, SOOHAENG YOO, FEDERICO ZAHARIEV

  ADDITIONAL CODE HAS BEEN PROVIDED BY COLLABORATORS IN OTHER GROUPS:
     IOWA STATE UNIVERSITY:
          JOE IVANIC, AARON WEST, LAIMUTIS BYTAUTAS, KLAUS RUEDENBERG
     UNIVERSITY OF TOKYO: KIMIHIKO HIRAO, TAKAHITO NAKAJIMA,
          TAKAO TSUNEDA, MUNEAKI KAMIYA, SUSUMU YANAGISAWA,
          KIYOSHI YAGI, MAHITO CHIBA, SEIKEN TOKURA, NAOAKI KAWAKAMI
     UNIVERSITY OF AARHUS: FRANK JENSEN
     UNIVERSITY OF IOWA: VISVALDAS KAIRYS, HUI LI
     NATIONAL INST. OF STANDARDS AND TECHNOLOGY: WALT STEVENS, DAVID GARMER
     UNIVERSITY OF PISA: BENEDETTA MENNUCCI, JACOPO TOMASI
     UNIVERSITY OF MEMPHIS: HENRY KURTZ, PRAKASHAN KORAMBATH
     UNIVERSITY OF ALBERTA: TOBY ZENG, MARIUSZ KLOBUKOWSKI
     UNIVERSITY OF NEW ENGLAND: MARK SPACKMAN
     MIE UNIVERSITY: HIROAKI UMEDA
     NAT. INST. OF ADVANCED INDUSTRIAL SCIENCE AND TECHNOLOGY: KAZUO KITAURA
     MICHIGAN STATE UNIVERSITY:
          KAROL KOWALSKI, MARTA WLOCH, JEFFREY GOUR, JESSE LUTZ,
          WEI LI, JUN SHEN, J. EMILIANO DEUSTUA, PIOTR PIECUCH
     UNIVERSITY OF MINNESOTA:
          YINAN SHU
     UNIVERSITY OF SILESIA: MONIKA MUSIAL, STANISLAW KUCHARSKI
     FACULTES UNIVERSITAIRES NOTRE-DAME DE LA PAIX:
          OLIVIER QUINET, BENOIT CHAMPAGNE
     UNIVERSITY OF CALIFORNIA - SANTA BARBARA: BERNARD KIRTMAN
     INSTITUTE FOR MOLECULAR SCIENCE:
          KAZUYA ISHIMURA, MICHIO KATOUDA, AND SHIGERU NAGASE
     UNIVERSITY OF NOTRE DAME: ANNA POMOGAEVA, DAN CHIPMAN
     KYUSHU UNIVERSITY:
          HARUYUKI NAKANO,
          FENG LONG GU, JACEK KORCHOWIEC, MARCIN MAKOWSKI, AND YURIKO AOKI,
          HIROTOSHI MORI AND EISAKU MIYOSHI
     PENNSYLVANIA STATE UNIVERSITY:
          TZVETELIN IORDANOV, CHET SWALINA, JONATHAN SKONE,
          SHARON HAMMES-SCHIFFER
     WASEDA UNIVERSITY:
          MASATO KOBAYASHI, TOMOKO AKAMA, TSUGUKI TOUMA,
          TAKESHI YOSHIKAWA, YASUHIRO IKABATA, JUNJI SEINO,
          YUYA NAKAJIMA, HIROMI NAKAI
     NANJING UNIVERSITY: SHUHUA LI
     UNIVERSITY OF NEBRASKA:
          PEIFENG SU, DEJUN SI, NANDUN THELLAMUREGE, YALI WANG, HUI LI
     UNIVERSITY OF ZURICH: ROBERTO PEVERATI, KIM BALDRIDGE
     N. COPERNICUS UNIVERSITY AND JACKSON STATE UNIVERSITY:
          MARIA BARYSZ
     UNIVERSITY OF COPENHAGEN: Jimmy Kromann, CASPER STEINMANN
     TOKYO INSTITUTE OF TECHNOLOGY: HIROYA NAKATA
     NAGOYA UNIVERSITY: YOSHIO NISHIMOTO, STEPHAN IRLE
     MOSCOW STATE UNIVERSITY: VLADIMIR MIRONOV


 PARALLEL VERSION RUNNING ON       16 PROCESSORS IN        1 NODES.

 EXECUTION OF GAMESS BEGUN Fri Dec  6 00:37:14 2019

            ECHO OF THE FIRST FEW INPUT CARDS -
 INPUT CARD>!*** FMO 5.3 (Gamess) INPUT generated by Facio 22.1.1.32 ***                    
 INPUT CARD> $CONTRL RUNTYP=ENERGY NPRINT=-5 ISPHER=1 MAXIT=200 $END                        
 INPUT CARD> $SYSTEM MWORDS=63 MEMDDI=63 $END                                               
 INPUT CARD> $GDDI NGROUP=1 $END                                                            
 INPUT CARD> $SCF DIRSCF=.TRUE. NPUNCH=0 $END                                               
 INPUT CARD>!*** NumCPU : 2  MemPerNode : 512MB                                             
 INPUT CARD> $PCM SOLVNT=WATER IEF=-10 ICOMP=2 ICAV=1 IDISP=1 IFMO=-1 $END                  
 INPUT CARD> $PCMCAV RADII=SUAHF $END                                                       
 INPUT CARD> $TESCAV NTSALL=60 $END                                                         
 INPUT CARD> $FMOPRP                                                                        
 INPUT CARD>    NAODIR=200                                                                  
 INPUT CARD>    NGRFMO(1)=1, 1, 0, 0, 0,   0, 0, 0, 0, 0                                    
 INPUT CARD>    IPIEDA=1                                                                    
 INPUT CARD>    NPRINT=9                                                                    
 INPUT CARD> $END                                                                           
 INPUT CARD> $FMO                                                                           
 INPUT CARD>      SCFTYP(1)=RHF                                                             
 INPUT CARD>      MODGRD=10                                                                 
 INPUT CARD>      MODMUL=0                                                                  
 INPUT CARD>      MAXCAO=5                                                                  
 INPUT CARD>      MAXBND=13                                                                 
 INPUT CARD>      NLAYER=1                                                                  
 INPUT CARD>      MPLEVL(1)=2                                                               
 INPUT CARD>      NFRAG=11                                                                  
 INPUT CARD>      ICHARG(1)=-1, -1, -1, -1, -1, -1, -1, -1, -1, -1, 0                       
 INPUT CARD>      FRGNAM(1)=F1, F2, F3, F4, F5, F6, F7, F8, F9, F10, F11                    
 INPUT CARD>      indat(1)=0                                                                
 INPUT CARD>               1   -36   0                                                      
 INPUT CARD>               37   -70   0                                                     
 INPUT CARD>               71   -101   0                                                    
 INPUT CARD>               102   -131   0                                                   
 INPUT CARD>               132   -162   0                                                   
 INPUT CARD>               163   -195   0                                                   
 INPUT CARD>               196   -225   0                                                   
 INPUT CARD>               226   -258   0                                                   
 INPUT CARD>               259   -291   0                                                   
 INPUT CARD>               292   -322   0                                                   
 INPUT CARD>               323   -350   0                                                   
 INPUT CARD> $END                                                                           
 INPUT CARD>                                                                                
 INPUT CARD> $FMOBND                                                                        
 INPUT CARD>   -37   36       6-31G*    MINI                                                
 INPUT CARD>   -71   70       6-31G*    MINI                                                
 INPUT CARD>   -102   101       6-31G*    MINI                                              
 INPUT CARD>   -132   131       6-31G*    MINI                                              
 INPUT CARD>   -163   162       6-31G*    MINI                                              
 INPUT CARD>   -196   195       6-31G*    MINI                                              
 INPUT CARD>   -226   225       6-31G*    MINI                                              
 INPUT CARD>   -259   258       6-31G*    MINI                                              
 INPUT CARD>   -292   291       6-31G*    MINI                                              


 -------------------------------------------------------------
 GROUP DDI, PROGRAMMED BY: RYAN M. OLSON AND DMITRI G. FEDOROV
        FEDOROV ET AL., J. COMPUT. CHEM., 25 (2004) 872.
 -------------------------------------------------------------

 -------------------------------------------------------
 GDDI: INITIALIZATION COMPLETED FOR GROUP     1 OF     1
 WITH    16 PROCESSES BALTYP=DLB   global rank=        0
 -------------------------------------------------------

   63000000 WORDS OF MEMORY AVAILABLE


     RUN TITLE
     ---------
  FMO calculation                                                                

 THE POINT GROUP OF THE MOLECULE IS C1      
 THE ORDER OF THE PRINCIPAL AXIS IS     0

 ATOM   ATOMIC CHARGE
 H.1-1       1.0
 O.1-1       8.0
 C.1-1       6.0
 N.1-1       7.0
 P.1-1      15.0

     ATOMIC BASIS SET LIBRARY
     ----------------
 THE CONTRACTED PRIMITIVE FUNCTIONS HAVE BEEN UNNORMALIZED
 THE CONTRACTED BASIS FUNCTIONS ARE NOW NORMALIZED TO UNITY

  SHELL TYPE  PRIMITIVE        EXPONENT          CONTRACTION COEFFICIENT(S)

 H.1-1     

      1   S       1            18.7311370    0.033494604338
      1   S       2             2.8253944    0.234726953484
      1   S       3             0.6401217    0.813757326146

      2   S       4             0.1612778    1.000000000000

 O.1-1     

      3   S       5          5484.6716600    0.001831074430
      3   S       6           825.2349460    0.013950172200
      3   S       7           188.0469580    0.068445078098
      3   S       8            52.9645000    0.232714335992
      3   S       9            16.8975704    0.470192897984
      3   S      10             5.7996353    0.358520852987

      4   L      11            15.5396162   -0.110777549525    0.070874268231
      4   L      12             3.5999336   -0.148026262701    0.339752839147
      4   L      13             1.0137618    1.130767015354    0.727158577316

      5   L      14             0.2700058    1.000000000000    1.000000000000

      6   D      15             0.8000000    1.000000000000

 C.1-1     

      7   S      16          3047.5248800    0.001834737132
      7   S      17           457.3695180    0.014037322813
      7   S      18           103.9486850    0.068842622264
      7   S      19            29.2101553    0.232184443216
      7   S      20             9.2866630    0.467941348435
      7   S      21             3.1639270    0.362311985337

      8   L      22             7.8682723   -0.119332419775    0.068999066591
      8   L      23             1.8812885   -0.160854151696    0.316423960957
      8   L      24             0.5442493    1.143456437840    0.744308290898

      9   L      25             0.1687145    1.000000000000    1.000000000000

     10   D      26             0.8000000    1.000000000000

 N.1-1     

     11   S      27          4173.5114600    0.001834772160
     11   S      28           627.4579110    0.013994627002
     11   S      29           142.9020930    0.068586551812
     11   S      30            40.2343293    0.232240873040
     11   S      31            12.8202129    0.469069948082
     11   S      32             4.3904370    0.360455199063

     12   L      33            11.6263619   -0.114961181702    0.067579743878
     12   L      34             2.7162798   -0.169117478561    0.323907295893
     12   L      35             0.7722184    1.145851947027    0.740895139755

     13   L      36             0.2120315    1.000000000000    1.000000000000

     14   D      37             0.8000000    1.000000000000

 P.1-1     

     15   S      38         19413.3000000    0.001851598923
     15   S      39          2909.4200000    0.014206191735
     15   S      40           661.3640000    0.069999459277
     15   S      41           185.7590000    0.240078860331
     15   S      42            59.1943000    0.484761717984
     15   S      43            20.0310000    0.335199804993

     16   L      44           339.4780000   -0.002782170105    0.004564616191
     16   L      45            81.0101000   -0.036049901354    0.033693571881
     16   L      46            25.8780000   -0.116631004382    0.139754883368
     16   L      47             9.4522100    0.096832803638    0.339361716786
     16   L      48             3.6656600    0.614418023082    0.450920623685
     16   L      49             1.4674600    0.403798015170    0.238585800889

     17   L      50             2.1562300   -0.252924113863   -0.017765312733
     17   L      51             0.7489970    0.032851844678    0.274058196433
     17   L      52             0.2831450    1.081254761783    0.785421562957

     18   L      53             0.0998317    1.000000000000    1.000000000000

     19   D      54             0.5500000    1.000000000000

 TOTAL NUMBER OF BASIS SET SHELLS             =   19
 NUMBER OF CARTESIAN GAUSSIAN BASIS FUNCTIONS =   66

     $CONTRL OPTIONS
     ---------------
 SCFTYP=RHF          RUNTYP=ENERGY       EXETYP=RUN     
 MPLEVL=       0     CITYP =NONE         CCTYP =NONE         VBTYP =NONE    
 DFTTYP=NONE         TDDFT =NONE    
 MULT  =       1     ICHARG=       0     NZVAR =       0     COORD =UNIQUE  
 PP    =NONE         RELWFN=NONE         LOCAL =NONE         NUMGRD=       F
 ISPHER=       1     NOSYM =       0     MAXIT =     200     UNITS =ANGS    
 PLTORB=       F     MOLPLT=       F     AIMPAC=       F     FRIEND=        
 NPRINT=      -5     IREST =       0     GEOM  =INPUT   
 NORMF =       0     NORMP =       0     ITOL  =      24     ICUT  =      12
 INTTYP=BEST         GRDTYP=BEST         QMTTOL= 1.0E-06

     $SYSTEM OPTIONS
     ---------------
  REPLICATED MEMORY=    63000000 WORDS (ON EVERY NODE).
 DISTRIBUTED MEMDDI=          63 MILLION WORDS IN AGGREGATE,
 MEMDDI DISTRIBUTED OVER  16 PROCESSORS IS     3937500 WORDS/PROCESSOR.
 TOTAL MEMORY REQUESTED ON EACH PROCESSOR=    66937500 WORDS.
 TIMLIM=      525600.00 MINUTES, OR     365.0 DAYS.
 PARALL= T  BALTYP=  DLB     KDIAG=    0  COREFL= F
 MXSEQ2=     300 MXSEQ3=     150  mem10=         0

 ** LOOKING UP INTERNALLY STORED DATA FOR SOLVENT=WATER    **
 OPTICAL AND PHYSICAL CONSTANTS:
 EPS= 78.390; EPSINF=  1.776; RSOLV=  1.385 A; VMOL=  18.070 ML/MOL;
 TCE= .25700E-03 1/K; STEN= 71.810 DYN/CM;  DSTEN=  0.6500; CMF=  1.2770


     -----------------------------------
     INPUT FOR PCM SOLVATION CALCULATION 
     -----------------------------------
     IEF   =     -10
     ICOMP =       2     IFIELD=       0     ICAV  =       1
     IDISP =       1     IREP  =       0     IDP   =       0

     SOLVNT=WATER        EPS   = 78.3900     EPSINF=  1.7760
     VMOL  = 18.0700     TCE   =  0.00025700 STEN  = 71.8100
     DSTEN =  0.6500     CMF   =  1.2770     RSOLV =  1.3850

     NESFP =       0
     OMEGA = 40.0000     RET   =100.0000     FRO   =  0.7000

     TABS  =298.0000     IPRINT=       0

     --------------------------------
     INPUT FOR ITERATIVE C-PCM METHOD 
     --------------------------------
     IPCMIT  =         1     MXDIIS  =        50
     MXITR1  =       200     MXITR2  =       200
     THRES   = 0.100E-09     IMUL    =         3
     RCUT(1) =   20.0000     RCUT(2) =   50.0000

     IDIRCT  =         1
     IMGABI  =         0     RABI    =    4.0000
     IMGASC  =         0     RASC    =   20.0000
     THRSLS  = 0.500E-03     DENSLS  =    0.0100
     IEFPOL  =         1     REFPOL  =    0.0000

     INPUT FOR ISOTROPIC DIELECTRICS
     -------------------------------
     EPS=    78.39

          ----------------
          PROPERTIES INPUT
          ----------------

     MOMENTS            FIELD           POTENTIAL          DENSITY
 IEMOM =       1   IEFLD =       0   IEPOT =       0   IEDEN =       0
 WHERE =COMASS     WHERE =NUCLEI     WHERE =NUCLEI     WHERE =NUCLEI  
 OUTPUT=BOTH       OUTPUT=BOTH       OUTPUT=NONE       OUTPUT=BOTH    
 IEMINT=       0   IEFINT=       0                     IEDINT=       0
                                                       MORB  =       0
          EXTRAPOLATION IN EFFECT
          SOSCF IN EFFECT
 ORBITAL PRINTING OPTION: NPREO=     1 32767     2     1

     -------------------------------
     INTEGRAL TRANSFORMATION OPTIONS
     -------------------------------
     NWORD  =            0
     CUTOFF = 1.0E-10     MPTRAN =       0
     DIRTRF =       T     AOINTS =DUP     

          ----------------------
          INTEGRAL INPUT OPTIONS
          ----------------------
 NOPK  =       1 NORDER=       0 SCHWRZ=       T

 ..... DONE SETTING UP THE RUN .....
 CPU     0: STEP CPU TIME=     0.07 TOTAL CPU TIME=          0.1 (      0.0 MIN)
 TOTAL WALL CLOCK TIME=          0.1 SECONDS, CPU UTILIZATION IS    58.33%
 CPU     0: STEP CPU TIME=     0.00 TOTAL CPU TIME=          0.1 (      0.0 MIN)
 TOTAL WALL CLOCK TIME=          0.1 SECONDS, CPU UTILIZATION IS    58.33%

                    ----------------------
                    AO INTEGRAL TECHNOLOGY
                    ----------------------
     S,P,L SHELL ROTATED AXIS INTEGRALS, REPROGRAMMED BY
        KAZUYA ISHIMURA (IMS) AND JOSE SIERRA (SYNSTAR).
     S,P,D,L SHELL ROTATED AXIS INTEGRALS PROGRAMMED BY
        KAZUYA ISHIMURA (INSTITUTE FOR MOLECULAR SCIENCE).
     S,P,D,F,G SHELL TO TOTAL QUARTET ANGULAR MOMENTUM SUM 5,
        ERIC PROGRAM BY GRAHAM FLETCHER (ELORET AND NASA ADVANCED
        SUPERCOMPUTING DIVISION, AMES RESEARCH CENTER).
     S,P,D,F,G,L SHELL GENERAL RYS QUADRATURE PROGRAMMED BY
        MICHEL DUPUIS (PACIFIC NORTHWEST NATIONAL LABORATORY).
 Setting modorb=1 flag...
 Setting modorb=1 flag...

          -----------------------
          MP2 CONTROL INFORMATION
          -----------------------
          NACORE =        8  NBCORE =        8
          LMOMP2 =        F  AOINTS = DUP     
          METHOD =        2  NWORD  =               0
          MP2PRP =        F  OSPT   = NONE    
          CUTOFF = 1.00E-12  CPHFBS = BASISAO 
          CODE   = IMS     

          NUMBER OF CORE -A-  ORBITALS =     8
          NUMBER OF CORE -B-  ORBITALS =     8
          NUMBER OF OCC. -A-  ORBITALS =    18
          NUMBER OF OCC. -B-  ORBITALS =    18
          NUMBER OF MOLECULAR ORBITALS =    66
          NUMBER OF   BASIS  FUNCTIONS =    66

 CPU     0: STEP CPU TIME=     0.03 TOTAL CPU TIME=          0.1 (      0.0 MIN)
 TOTAL WALL CLOCK TIME=          0.2 SECONDS, CPU UTILIZATION IS    62.50%
 CPU     0: STEP CPU TIME=     0.00 TOTAL CPU TIME=          0.1 (      0.0 MIN)
 TOTAL WALL CLOCK TIME=          0.2 SECONDS, CPU UTILIZATION IS    62.50%

     INPUT FOR CAVITY DEFINITION 
     ---------------------------
   ATOM               COORDINATES                RADIUS       EPS
      1      0.6470     -7.8910     -1.5360      0.0100     78.3900
      2      0.2970     -7.5610     -0.6870      1.5900     78.3900
      3      0.6720     -8.5120      0.3200      1.7700     78.3900
      4      1.7760     -8.6540      0.2940      0.0100     78.3900
      5      0.2020     -9.4960      0.0980      0.0100     78.3900
      6      0.2670     -8.0760      1.7300      1.7700     78.3900
      7      0.5450     -8.8510      2.4770      0.0100     78.3900
      8      0.9750     -6.8540      2.0890      1.5900     78.3900
      9      0.1120     -6.0180      2.8420      1.7700     78.3900
     10      0.6410     -5.7860      3.7980      0.0100     78.3900
     11     -0.1650     -4.7550      2.1420      1.6800     78.3900
     12     -0.6720     -3.6160      2.7080      1.7700     78.3900
     13     -1.8430     -1.9070      5.4810      1.6800     78.3900
     14     -1.7990     -2.5960      6.2010      0.0100     78.3900
     15     -2.1670     -0.9840      5.7090      0.0100     78.3900
     16     -1.0250     -3.4660      3.9970      1.6800     78.3900
     17     -1.4450     -2.2320      4.2660      1.7700     78.3900
     18     -1.4930     -1.2340      3.3270      1.6800     78.3900
     19     -1.8070     -0.3220      3.6190      0.0100     78.3900
     20     -1.1420     -1.3610      1.9880      1.7700     78.3900
     21     -1.2150     -0.4030      1.2110      1.5900     78.3900
     22     -0.7040     -2.6800      1.6910      1.7700     78.3900
     23     -0.2470     -3.2270      0.4980      1.6800     78.3900
     24      0.0590     -4.4660      0.8130      1.7700     78.3900
     25      0.4550     -5.2190      0.1270      0.0100     78.3900
     26     -1.1400     -6.8150      3.1340      1.7700     78.3900
     27     -2.0400     -6.1750      3.2220      0.0100     78.3900
     28     -0.9630     -7.5590      4.3250      1.5900     78.3900
     29     -1.7640     -8.0820      4.4480      0.0100     78.3900
     30     -1.2170     -7.7280      1.9150      1.7700     78.3900
     31     -1.5300     -7.1540      1.0130      0.0100     78.3900
     32     -1.9810     -8.9390      2.1050      1.5900     78.3900
     33     -3.5200     -8.9520      1.7760      2.1000     78.3900
     34     -3.7240     -8.3920      0.4250      1.5900     78.3900
     35     -4.0170    -10.3300      2.0040      1.5900     78.3900
     36     -4.1420     -7.9620      2.8310      1.5900     78.3900
     37     -4.2430     -8.3460      4.2220      1.7700     78.3900
     38     -3.2580     -8.6640      4.6260      0.0100     78.3900
     39     -4.9390     -9.2090      4.3420      0.0100     78.3900
     40     -4.7550     -7.1950      5.0930      1.7700     78.3900
     41     -4.7620     -7.4810      6.1670      0.0100     78.3900
     42     -3.8800     -6.0330      4.9620      1.5900     78.3900
     43     -4.6700     -4.8510      5.0000      1.7700     78.3900
     44     -4.2810     -4.2270      5.8380      0.0100     78.3900
     45     -4.5660     -4.0730      3.7570      1.6800     78.3900
     46     -4.9410     -2.7660      3.5920      1.7700     78.3900
     47     -6.2700      0.1640      4.8850      1.6800     78.3900
     48     -6.5450     -0.1140      5.8060      0.0100     78.3900
     49     -6.5540      1.0650      4.5450      0.0100     78.3900
     50     -5.4760     -1.9730      4.5350      1.6800     78.3900
     51     -5.7320     -0.7440      4.0910      1.7700     78.3900
     52     -5.4190     -0.3320      2.8250      1.6800     78.3900
     53     -5.6690      0.6080      2.5590      0.0100     78.3900
     54     -4.8480     -1.1200      1.8330      1.7700     78.3900
     55     -4.5950     -0.6630      0.7150      1.5900     78.3900
     56     -4.6240     -2.4490      2.2880      1.7700     78.3900
     57     -4.0970     -3.5510      1.6280      1.6800     78.3900
     58     -4.0760     -4.4920      2.5420      1.7700     78.3900
     59     -3.7270     -5.5150      2.3920      0.0100     78.3900
     60     -6.0900     -5.2680      5.2940      1.7700     78.3900
     61     -6.8270     -4.6160      4.7890      0.0100     78.3900
     62     -6.3070     -5.2740      6.6930      1.5900     78.3900
     63     -7.1560     -5.7100      6.8420      0.0100     78.3900
     64     -6.1450     -6.6750      4.7230      1.7700     78.3900
     65     -6.1720     -6.6420      3.6070      0.0100     78.3900
     66     -7.1770     -7.5140      5.3070      1.5900     78.3900
     67     -8.5420     -7.6430      4.5200      2.1000     78.3900
     68     -8.2400     -7.9860      3.1130      1.5900     78.3900
     69     -9.4120     -8.5870      5.2530      1.5900     78.3900
     70     -9.2000     -6.2110      4.5560      1.5900     78.3900
     71     -9.6570     -5.6190      5.7940      1.7700     78.3900
     72     -8.8990     -5.7140      6.6050      0.0100     78.3900
     73    -10.5850     -6.1310      6.1460      0.0100     78.3900
     74     -9.9760     -4.1270      5.6060      1.7700     78.3900
     75    -10.2780     -3.6560      6.5680      0.0100     78.3900
     76     -8.8000     -3.4170      5.1320      1.5900     78.3900
     77     -9.1930     -2.4260      4.2000      1.7700     78.3900
     78     -8.8080     -1.4750      4.6320      0.0100     78.3900
     79     -8.6080     -2.6040      2.8480      1.6800     78.3900
     80     -8.2090     -3.8410      2.4100      1.7700     78.3900
     81     -8.3360     -4.6580      3.1190      0.0100     78.3900
     82     -7.6590     -4.0060      1.1990      1.7700     78.3900
     83     -7.3090     -4.9740      0.8460      0.0100     78.3900
     84     -8.4910     -1.4990      2.0150      1.7700     78.3900
     85     -8.8780     -0.3990      2.4350      1.5900     78.3900
     86     -7.9470     -1.6450      0.7830      1.6800     78.3900
     87     -7.5200     -2.8510      0.3710      1.7700     78.3900
     88     -6.9570     -2.9580     -0.8290      1.6800     78.3900
     89     -6.8090     -2.1280     -1.3670      0.0100     78.3900
     90     -6.5890     -3.8210     -1.1750      0.0100     78.3900
     91    -10.7010     -2.3870      4.1890      1.7700     78.3900
     92    -11.1010     -2.1220      3.1930      0.0100     78.3900
     93    -11.1730     -1.4760      5.1670      1.5900     78.3900
     94    -12.1230     -1.6250      5.2510      0.0100     78.3900
     95    -11.0510     -3.8220      4.5530      1.7700     78.3900
     96    -10.8630     -4.5030      3.6910      0.0100     78.3900
     97    -12.3650     -3.9900      5.1220      1.5900     78.3900
     98    -13.5990     -4.3130      4.2030      2.1000     78.3900
     99    -13.3020     -5.5590      3.4660      1.5900     78.3900
    100    -14.8180     -4.3070      5.0400      1.5900     78.3900
    101    -13.6680     -3.1280      3.1840      1.5900     78.3900
    102    -14.1410     -1.8210      3.5720      1.7700     78.3900
    103    -13.6120     -1.4450      4.4780      0.0100     78.3900
    104    -15.2250     -1.8610      3.8200      0.0100     78.3900
    105    -13.9670     -0.8140      2.4250      1.7700     78.3900
    106    -14.2600      0.2020      2.7540      0.0100     78.3900
    107    -12.5780     -0.7340      2.0150      1.5900     78.3900
    108    -12.4920     -0.5820      0.6150      1.7700     78.3900
    109    -11.9320      0.3720      0.4750      0.0100     78.3900
    110    -11.7530     -1.7110     -0.0060      1.6800     78.3900
    111    -11.7170     -2.9580      0.5690      1.7700     78.3900
    112    -12.2150     -3.0360      1.5290      0.0100     78.3900
    113    -11.1330     -1.4740     -1.1970      1.7700     78.3900
    114    -11.2030     -0.3790     -1.7510      1.5900     78.3900
    115    -10.4490     -2.5410     -1.7280      1.6800     78.3900
    116    -10.0020     -2.3540     -2.6110      0.0100     78.3900
    117    -10.3590     -3.8170     -1.2050      1.7700     78.3900
    118     -9.7060     -4.6880     -1.7750      1.5900     78.3900
    119    -11.0630     -3.9950      0.0280      1.7700     78.3900
    120    -11.0240     -4.9680      0.5140      0.0100     78.3900
    121    -13.9140     -0.4300      0.0750      1.7700     78.3900
    122    -14.0540     -0.9320     -0.9090      0.0100     78.3900
    123    -14.2610      0.9450     -0.0300      1.5900     78.3900
    124    -13.8660      1.2600     -0.8520      0.0100     78.3900
    125    -14.7290     -1.1420      1.1390      1.7700     78.3900
    126    -14.6470     -2.2450      0.9970      0.0100     78.3900
    127    -16.0860     -0.6790      1.2380      1.5900     78.3900
    128    -17.2890     -1.5530      0.7630      2.1000     78.3900
    129    -17.2730     -2.8300      1.5050      1.5900     78.3900
    130    -18.5170     -0.7360      0.8980      1.5900     78.3900
    131    -17.0220     -1.8320     -0.7710      1.5900     78.3900
    132    -17.8530     -2.7790     -1.4880      1.7700     78.3900
    133    -18.8820     -2.8460     -1.0640      0.0100     78.3900
    134    -17.3990     -3.7940     -1.4280      0.0100     78.3900
    135    -17.9880     -2.4190     -2.9770      1.7700     78.3900
    136    -18.5500     -3.2040     -3.5250      0.0100     78.3900
    137    -18.7600     -1.1890     -3.1010      1.5900     78.3900
    138    -18.1820     -0.3660     -4.1100      1.7700     78.3900
    139    -19.0060     -0.1650     -4.8350      0.0100     78.3900
    140    -17.6900      0.9360     -3.5810      1.6800     78.3900
    141    -17.4340      1.0800     -2.2350      1.7700     78.3900
    142    -17.6390      0.2140     -1.6060      0.0100     78.3900
    143    -16.9990      2.2370     -1.7220      1.7700     78.3900
    144    -16.8130      2.3670     -0.6570      0.0100     78.3900
    145    -17.4610      2.0060     -4.4440      1.7700     78.3900
    146    -17.6530      1.8580     -5.6620      1.5900     78.3900
    147    -17.0570      3.1960     -3.9370      1.6800     78.3900
    148    -16.8060      3.3230     -2.6210      1.7700     78.3900
    149    -16.3970      4.5010     -2.1580      1.6800     78.3900
    150    -16.2800      5.2650     -2.7940      0.0100     78.3900
    151    -16.2270      4.6610     -1.1860      0.0100     78.3900
    152    -17.1020     -1.1690     -4.8150      1.7700     78.3900
    153    -16.2440     -0.5430     -5.1410      0.0100     78.3900
    154    -17.6570     -1.8410     -5.9310      1.5900     78.3900
    155    -17.0170     -2.5160     -6.2100      0.0100     78.3900
    156    -16.6740     -2.1480     -3.7310      1.7700     78.3900
    157    -15.9900     -1.6260     -3.0200      0.0100     78.3900
    158    -16.1380     -3.3810     -4.2560      1.5900     78.3900
    159    -14.7720     -3.9680     -3.7630      2.1000     78.3900
    160    -14.5660     -3.6020     -2.3480      1.5900     78.3900
    161    -14.7470     -5.4110     -4.0980      1.5900     78.3900
    162    -13.7170     -3.1950     -4.6420      1.5900     78.3900
    163    -13.1990     -3.7800     -5.8540      1.7700     78.3900
    164    -13.9830     -3.7700     -6.6450      0.0100     78.3900
    165    -12.8890     -4.8420     -5.7010      0.0100     78.3900
    166    -11.9790     -3.0340     -6.4160      1.7700     78.3900
    167    -11.6910     -3.5600     -7.3500      0.0100     78.3900
    168    -12.3200     -1.6730     -6.7820      1.5900     78.3900
    169    -11.6570     -0.7630     -5.9240      1.7700     78.3900
    170    -10.7950     -0.3460     -6.4890      0.0100     78.3900
    171    -12.5760      0.3020     -5.5470      1.6800     78.3900
    172    -13.6660      2.2090     -5.5250      1.7700     78.3900
    173    -14.2950      1.3780     -4.5960      1.6800     78.3900
    174    -13.6080      0.2610     -4.6490      1.7700     78.3900
    175    -13.8020     -0.6320     -4.0490      0.0100     78.3900
    176    -13.0940      4.0410     -6.9360      1.6800     78.3900
    177    -12.1140      3.2620     -7.4020      1.7700     78.3900
    178    -11.4650      3.6920     -8.1670      0.0100     78.3900
    179    -11.8250      2.0090     -7.0790      1.6800     78.3900
    180    -12.6270      1.5390     -6.1300      1.7700     78.3900
    181    -13.9070      3.5300     -5.9750      1.7700     78.3900
    182    -14.8960      4.3130     -5.5230      1.6800     78.3900
    183    -15.6240      3.9190     -4.9490      0.0100     78.3900
    184    -15.0350      5.2140     -5.9360      0.0100     78.3900
    185    -11.1290     -1.5510     -4.7500      1.7700     78.3900
    186    -11.9230     -1.7040     -3.9860      0.0100     78.3900
    187     -9.9910     -0.9490     -4.1560      1.5900     78.3900
    188    -10.2070     -0.0350     -3.8920      0.0100     78.3900
    189    -10.7980     -2.8880     -5.4130      1.7700     78.3900
    190    -10.8670     -3.7040     -4.6590      0.0100     78.3900
    191     -9.4910     -2.8880     -6.0180      1.5900     78.3900
    192     -9.0120     -3.9270     -7.0710      2.1000     78.3900
    193     -7.5350     -3.9330     -7.0670      1.5900     78.3900
    194     -9.6810     -5.2220     -6.8170      1.5900     78.3900
    195     -9.5300     -3.3410     -8.4400      1.5900     78.3900
    196     -8.7380     -3.3680     -9.6470      1.7700     78.3900
    197     -9.2610     -3.9980    -10.4010      0.0100     78.3900
    198     -7.7320     -3.8260     -9.4950      0.0100     78.3900
    199     -8.5180     -1.9640    -10.2460      1.7700     78.3900
    200     -7.7290     -2.0200    -11.0280      0.0100     78.3900
    201     -9.7410     -1.4910    -10.8960      1.5900     78.3900
    202    -10.1270     -0.2480    -10.3240      1.7700     78.3900
    203     -9.6560      0.5350    -10.9560      0.0100     78.3900
    204    -11.6010     -0.0850    -10.2790      1.6800     78.3900
    205    -12.3970     -1.1580     -9.9640      1.7700     78.3900
    206    -11.8540     -2.0810     -9.7500      0.0100     78.3900
    207    -12.1510      1.1600    -10.5020      1.7700     78.3900
    208    -11.4740      2.1560    -10.7620      1.5900     78.3900
    209    -13.5210      1.2030    -10.4590      1.6800     78.3900
    210    -13.9350      2.0970    -10.6560      0.0100     78.3900
    211    -14.3830      0.1460    -10.2610      1.7700     78.3900
    212    -15.5990      0.3150    -10.3490      1.5900     78.3900
    213    -13.7360     -1.0980     -9.9750      1.7700     78.3900
    214    -14.3520     -1.9800     -9.8230      0.0100     78.3900
    215     -9.5050     -0.2210     -8.9530      1.7700     78.3900
    216    -10.0860     -0.8760     -8.2710      0.0100     78.3900
    217     -9.3960      1.0780     -8.4200      1.5900     78.3900
    218     -8.5860      1.5060     -8.7320      0.0100     78.3900
    219     -8.1490     -0.8570     -9.2310      1.7700     78.3900
    220     -7.7990     -1.3760     -8.3100      0.0100     78.3900
    221     -7.1560      0.0580     -9.7580      1.5900     78.3900
    222     -6.0980      0.7240     -8.7860      2.1000     78.3900
    223     -5.8390     -0.1800     -7.6450      1.5900     78.3900
    224     -4.9180      1.1250     -9.5880      1.5900     78.3900
    225     -6.8070      2.0270     -8.2790      1.5900     78.3900
    226     -6.1940      2.8730     -7.2770      1.7700     78.3900
    227     -5.1540      3.1520     -7.5620      0.0100     78.3900
    228     -6.1470      2.3300     -6.3050      0.0100     78.3900
    229     -6.9920      4.1750     -7.0470      1.7700     78.3900
    230     -6.7860      4.9090     -7.8570      0.0100     78.3900
    231     -8.4240      3.9020     -7.0750      1.5900     78.3900
    232     -9.0770      4.6570     -6.0800      1.7700     78.3900
    233     -9.8900      5.2220     -6.5950      0.0100     78.3900
    234     -9.6750      3.7900     -5.0650      1.6800     78.3900
    235    -10.9630      3.0240     -3.4660      1.7700     78.3900
    236    -10.1540      1.9590     -3.8450      1.6800     78.3900
    237     -9.4130      2.4630     -4.8090      1.7700     78.3900
    238     -8.6580      1.9180     -5.3830      0.0100     78.3900
    239    -12.5960      4.3450     -2.3730      1.6800     78.3900
    240    -12.2300      5.3400     -3.1810      1.7700     78.3900
    241    -12.7650      6.2820     -3.0320      0.0100     78.3900
    242    -11.2620      5.3540     -4.1040      1.6800     78.3900
    243    -10.6740      4.1520     -4.2050      1.7700     78.3900
    244    -11.9830      3.1500     -2.5060      1.7700     78.3900
    245    -12.3810      2.1800     -1.6900      1.6800     78.3900
    246    -11.8870      1.2990     -1.6780      0.0100     78.3900
    247    -12.8620      2.5120     -0.8800      0.0100     78.3900
    248     -8.0710      5.6230     -5.5130      1.7700     78.3900
    249     -8.2630      5.8520     -4.4480      0.0100     78.3900
    250     -8.0710      6.8140     -6.2790      1.5900     78.3900
    251     -7.2880      7.3200     -6.0230      0.0100     78.3900
    252     -6.7660      4.8550     -5.6790      1.7700     78.3900
    253     -6.6830      4.0420     -4.9190      0.0100     78.3900
    254     -5.5970      5.6980     -5.7270      1.5900     78.3900
    255     -4.8010      6.0740     -4.4250      2.1000     78.3900
    256     -4.2470      4.8200     -3.8800      1.5900     78.3900
    257     -3.8370      7.1410     -4.7550      1.5900     78.3900
    258     -5.8690      6.6400     -3.4100      1.5900     78.3900
    259     -6.3720      7.9950     -3.5220      1.7700     78.3900
    260     -6.8010      8.1860     -4.5310      0.0100     78.3900
    261     -5.5630      8.7460     -3.3570      0.0100     78.3900
    262     -7.4690      8.2770     -2.4850      1.7700     78.3900
    263     -7.8840      9.2960     -2.6200      0.0100     78.3900
    264     -8.5740      7.3500     -2.6500      1.5900     78.3900
    265     -9.0720      6.9620     -1.3840      1.7700     78.3900
    266    -10.1670      7.1740     -1.3930      0.0100     78.3900
    267     -8.8610      5.5350     -1.1600      1.6800     78.3900
    268     -9.0470      3.4760     -0.4400      1.7700     78.3900
    269     -8.0560      3.4570     -1.4070      1.6800     78.3900
    270     -7.9780      4.6990     -1.7980      1.7700     78.3900
    271     -7.3010      5.0680     -2.5690      0.0100     78.3900
    272    -10.5440      2.8330      1.2680      1.6800     78.3900
    273    -10.9060      4.1190      1.3380      1.7700     78.3900
    274    -11.6640      4.3590      2.0960      0.0100     78.3900
    275    -10.4920      5.1500      0.5900      1.6800     78.3900
    276     -9.5460      4.7530     -0.2750      1.7700     78.3900
    277     -9.5990      2.4660      0.3650      1.7700     78.3900
    278     -9.2220      1.1880      0.2610      1.6800     78.3900
    279     -8.4900      0.9100     -0.3590      0.0100     78.3900
    280     -9.3870      0.5850      1.0510      0.0100     78.3900
    281     -8.3960      7.8250     -0.3440      1.7700     78.3900
    282     -8.2510      7.2990      0.6240      0.0100     78.3900
    283     -9.1610      8.9990     -0.1420      1.5900     78.3900
    284     -8.5950      9.6500      0.3020      0.0100     78.3900
    285     -7.0570      8.1240     -1.0130      1.7700     78.3900
    286     -6.4000      7.2230     -0.9730      0.0100     78.3900
    287     -6.4110      9.3320     -0.5390      1.5900     78.3900
    288     -5.2100      9.2030      0.4740      2.1000     78.3900
    289     -4.1100      8.4680     -0.1850      1.5900     78.3900
    290     -4.8950     10.5540      0.9860      1.5900     78.3900
    291     -5.7840      8.3210      1.6450      1.5900     78.3900
    292     -6.7150      8.8660      2.6050      1.7700     78.3900
    293     -7.6600      9.1810      2.1070      0.0100     78.3900
    294     -6.2770      9.7570      3.1080      0.0100     78.3900
    295     -7.0810      7.8430      3.6900      1.7700     78.3900
    296     -7.7420      8.3000      4.4580      0.0100     78.3900
    297     -7.8310      6.7430      3.0950      1.5900     78.3900
    298     -7.4260      5.5160      3.6940      1.7700     78.3900
    299     -8.3610      5.0330      4.0660      0.0100     78.3900
    300     -6.7520      4.5990      2.7310      1.6800     78.3900
    301     -6.2080      5.1090      1.5740      1.7700     78.3900
    302     -6.3360      6.1770      1.4200      0.0100     78.3900
    303     -5.6040      4.3260      0.6760      1.7700     78.3900
    304     -5.1950      4.7180     -0.2540      0.0100     78.3900
    305     -6.6340      3.2360      3.0040      1.7700     78.3900
    306     -7.1040      2.7840      4.0610      1.5900     78.3900
    307     -6.0140      2.4320      2.1100      1.6800     78.3900
    308     -5.5380      2.9330      0.9570      1.7700     78.3900
    309     -4.9860      2.1080      0.0730      1.6800     78.3900
    310     -4.9180      1.1300      0.2840      0.0100     78.3900
    311     -4.6120      2.4310     -0.7980      0.0100     78.3900
    312     -6.5440      5.8640      4.8780      1.7700     78.3900
    313     -5.7830      5.0850      5.0870      0.0100     78.3900
    314     -7.3390      6.0640      6.0290      1.5900     78.3900
    315     -6.7600      6.4190      6.7150      0.0100     78.3900
    316     -5.9040      7.1640      4.4040      1.7700     78.3900
    317     -5.1430      6.9450      3.6180      0.0100     78.3900
    318     -5.4120      8.0200      5.4600      1.5900     78.3900
    319     -3.8640      8.1110      5.7320      2.1000     78.3900
    320     -3.1230      8.1080      4.4550      1.5900     78.3900
    321     -3.6010      9.2420      6.6540      1.5900     78.3900
    322     -3.5780      6.7510      6.4730      1.5900     78.3900
    323     -4.1630      6.5110      7.7730      1.7700     78.3900
    324     -5.2680      6.6450      7.7580      0.0100     78.3900
    325     -3.7400      7.2210      8.5190      0.0100     78.3900
    326     -3.8530      5.0950      8.2710      1.7700     78.3900
    327     -4.2070      4.9600      9.3150      0.0100     78.3900
    328     -4.5430      4.1160      7.4450      1.5900     78.3900
    329     -3.6980      2.9860      7.2580      1.7700     78.3900
    330     -4.2900      2.1100      7.6110      0.0100     78.3900
    331     -3.3260      2.7820      5.8290      1.6800     78.3900
    332     -3.4140      3.8260      4.9370      1.7700     78.3900
    333     -3.7770      4.7710      5.3400      0.0100     78.3900
    334     -3.0920      3.6760      3.6460      1.7700     78.3900
    335     -3.1750      4.4890      2.9270      0.0100     78.3900
    336     -2.8390      1.5520      5.3970      1.7700     78.3900
    337     -2.7040      0.6330      6.2180      1.5900     78.3900
    338     -2.5150      1.3760      4.0960      1.6800     78.3900
    339     -2.6270      2.3980      3.2270      1.7700     78.3900
    340     -2.2810      2.2010      1.9570      1.6800     78.3900
    341     -1.9430      1.3020      1.6700      0.0100     78.3900
    342     -2.2940      2.9380      1.2770      0.0100     78.3900
    343     -2.4840      3.1640      8.1590      1.7700     78.3900
    344     -1.5630      2.7210      7.7130      0.0100     78.3900
    345     -2.7290      2.5850      9.4340      1.5900     78.3900
    346     -1.9940      2.8110     10.0300      0.0100     78.3900
    347     -2.3740      4.6860      8.2140      1.7700     78.3900
    348     -1.9380      5.0750      7.2670      0.0100     78.3900
    349     -1.6650      5.2040      9.3560      1.5900     78.3900
    350     -0.7290      4.9370      9.3180      0.0100     78.3900

     ----------------------------
     INPUT FOR TESSERA DEFINITION
     ----------------------------
     NTSALL  =        60     MTHALL  =         4
     MTHAUT  =         0     AUTFRE  =    2.0000
     NTSFRZ  =        60     KEEPSM  =         0
     AREAKP  =   10.0000     BONDRY  =    1.0000
     AREATL  =    0.0100

     SPHERE     INITS       METHOD
          1        60       FIXPVA
          2        60       FIXPVA
          3        60       FIXPVA
          4        60       FIXPVA
          5        60       FIXPVA
          6        60       FIXPVA
          7        60       FIXPVA
          8        60       FIXPVA
          9        60       FIXPVA
         10        60       FIXPVA
         11        60       FIXPVA
         12        60       FIXPVA
         13        60       FIXPVA
         14        60       FIXPVA
         15        60       FIXPVA
         16        60       FIXPVA
         17        60       FIXPVA
         18        60       FIXPVA
         19        60       FIXPVA
         20        60       FIXPVA
         21        60       FIXPVA
         22        60       FIXPVA
         23        60       FIXPVA
         24        60       FIXPVA
         25        60       FIXPVA
         26        60       FIXPVA
         27        60       FIXPVA
         28        60       FIXPVA
         29        60       FIXPVA
         30        60       FIXPVA
         31        60       FIXPVA
         32        60       FIXPVA
         33        60       FIXPVA
         34        60       FIXPVA
         35        60       FIXPVA
         36        60       FIXPVA
         37        60       FIXPVA
         38        60       FIXPVA
         39        60       FIXPVA
         40        60       FIXPVA
         41        60       FIXPVA
         42        60       FIXPVA
         43        60       FIXPVA
         44        60       FIXPVA
         45        60       FIXPVA
         46        60       FIXPVA
         47        60       FIXPVA
         48        60       FIXPVA
         49        60       FIXPVA
         50        60       FIXPVA
         51        60       FIXPVA
         52        60       FIXPVA
         53        60       FIXPVA
         54        60       FIXPVA
         55        60       FIXPVA
         56        60       FIXPVA
         57        60       FIXPVA
         58        60       FIXPVA
         59        60       FIXPVA
         60        60       FIXPVA
         61        60       FIXPVA
         62        60       FIXPVA
         63        60       FIXPVA
         64        60       FIXPVA
         65        60       FIXPVA
         66        60       FIXPVA
         67        60       FIXPVA
         68        60       FIXPVA
         69        60       FIXPVA
         70        60       FIXPVA
         71        60       FIXPVA
         72        60       FIXPVA
         73        60       FIXPVA
         74        60       FIXPVA
         75        60       FIXPVA
         76        60       FIXPVA
         77        60       FIXPVA
         78        60       FIXPVA
         79        60       FIXPVA
         80        60       FIXPVA
         81        60       FIXPVA
         82        60       FIXPVA
         83        60       FIXPVA
         84        60       FIXPVA
         85        60       FIXPVA
         86        60       FIXPVA
         87        60       FIXPVA
         88        60       FIXPVA
         89        60       FIXPVA
         90        60       FIXPVA
         91        60       FIXPVA
         92        60       FIXPVA
         93        60       FIXPVA
         94        60       FIXPVA
         95        60       FIXPVA
         96        60       FIXPVA
         97        60       FIXPVA
         98        60       FIXPVA
         99        60       FIXPVA
        100        60       FIXPVA
        101        60       FIXPVA
        102        60       FIXPVA
        103        60       FIXPVA
        104        60       FIXPVA
        105        60       FIXPVA
        106        60       FIXPVA
        107        60       FIXPVA
        108        60       FIXPVA
        109        60       FIXPVA
        110        60       FIXPVA
        111        60       FIXPVA
        112        60       FIXPVA
        113        60       FIXPVA
        114        60       FIXPVA
        115        60       FIXPVA
        116        60       FIXPVA
        117        60       FIXPVA
        118        60       FIXPVA
        119        60       FIXPVA
        120        60       FIXPVA
        121        60       FIXPVA
        122        60       FIXPVA
        123        60       FIXPVA
        124        60       FIXPVA
        125        60       FIXPVA
        126        60       FIXPVA
        127        60       FIXPVA
        128        60       FIXPVA
        129        60       FIXPVA
        130        60       FIXPVA
        131        60       FIXPVA
        132        60       FIXPVA
        133        60       FIXPVA
        134        60       FIXPVA
        135        60       FIXPVA
        136        60       FIXPVA
        137        60       FIXPVA
        138        60       FIXPVA
        139        60       FIXPVA
        140        60       FIXPVA
        141        60       FIXPVA
        142        60       FIXPVA
        143        60       FIXPVA
        144        60       FIXPVA
        145        60       FIXPVA
        146        60       FIXPVA
        147        60       FIXPVA
        148        60       FIXPVA
        149        60       FIXPVA
        150        60       FIXPVA
        151        60       FIXPVA
        152        60       FIXPVA
        153        60       FIXPVA
        154        60       FIXPVA
        155        60       FIXPVA
        156        60       FIXPVA
        157        60       FIXPVA
        158        60       FIXPVA
        159        60       FIXPVA
        160        60       FIXPVA
        161        60       FIXPVA
        162        60       FIXPVA
        163        60       FIXPVA
        164        60       FIXPVA
        165        60       FIXPVA
        166        60       FIXPVA
        167        60       FIXPVA
        168        60       FIXPVA
        169        60       FIXPVA
        170        60       FIXPVA
        171        60       FIXPVA
        172        60       FIXPVA
        173        60       FIXPVA
        174        60       FIXPVA
        175        60       FIXPVA
        176        60       FIXPVA
        177        60       FIXPVA
        178        60       FIXPVA
        179        60       FIXPVA
        180        60       FIXPVA
        181        60       FIXPVA
        182        60       FIXPVA
        183        60       FIXPVA
        184        60       FIXPVA
        185        60       FIXPVA
        186        60       FIXPVA
        187        60       FIXPVA
        188        60       FIXPVA
        189        60       FIXPVA
        190        60       FIXPVA
        191        60       FIXPVA
        192        60       FIXPVA
        193        60       FIXPVA
        194        60       FIXPVA
        195        60       FIXPVA
        196        60       FIXPVA
        197        60       FIXPVA
        198        60       FIXPVA
        199        60       FIXPVA
        200        60       FIXPVA
        201        60       FIXPVA
        202        60       FIXPVA
        203        60       FIXPVA
        204        60       FIXPVA
        205        60       FIXPVA
        206        60       FIXPVA
        207        60       FIXPVA
        208        60       FIXPVA
        209        60       FIXPVA
        210        60       FIXPVA
        211        60       FIXPVA
        212        60       FIXPVA
        213        60       FIXPVA
        214        60       FIXPVA
        215        60       FIXPVA
        216        60       FIXPVA
        217        60       FIXPVA
        218        60       FIXPVA
        219        60       FIXPVA
        220        60       FIXPVA
        221        60       FIXPVA
        222        60       FIXPVA
        223        60       FIXPVA
        224        60       FIXPVA
        225        60       FIXPVA
        226        60       FIXPVA
        227        60       FIXPVA
        228        60       FIXPVA
        229        60       FIXPVA
        230        60       FIXPVA
        231        60       FIXPVA
        232        60       FIXPVA
        233        60       FIXPVA
        234        60       FIXPVA
        235        60       FIXPVA
        236        60       FIXPVA
        237        60       FIXPVA
        238        60       FIXPVA
        239        60       FIXPVA
        240        60       FIXPVA
        241        60       FIXPVA
        242        60       FIXPVA
        243        60       FIXPVA
        244        60       FIXPVA
        245        60       FIXPVA
        246        60       FIXPVA
        247        60       FIXPVA
        248        60       FIXPVA
        249        60       FIXPVA
        250        60       FIXPVA
        251        60       FIXPVA
        252        60       FIXPVA
        253        60       FIXPVA
        254        60       FIXPVA
        255        60       FIXPVA
        256        60       FIXPVA
        257        60       FIXPVA
        258        60       FIXPVA
        259        60       FIXPVA
        260        60       FIXPVA
        261        60       FIXPVA
        262        60       FIXPVA
        263        60       FIXPVA
        264        60       FIXPVA
        265        60       FIXPVA
        266        60       FIXPVA
        267        60       FIXPVA
        268        60       FIXPVA
        269        60       FIXPVA
        270        60       FIXPVA
        271        60       FIXPVA
        272        60       FIXPVA
        273        60       FIXPVA
        274        60       FIXPVA
        275        60       FIXPVA
        276        60       FIXPVA
        277        60       FIXPVA
        278        60       FIXPVA
        279        60       FIXPVA
        280        60       FIXPVA
        281        60       FIXPVA
        282        60       FIXPVA
        283        60       FIXPVA
        284        60       FIXPVA
        285        60       FIXPVA
        286        60       FIXPVA
        287        60       FIXPVA
        288        60       FIXPVA
        289        60       FIXPVA
        290        60       FIXPVA
        291        60       FIXPVA
        292        60       FIXPVA
        293        60       FIXPVA
        294        60       FIXPVA
        295        60       FIXPVA
        296        60       FIXPVA
        297        60       FIXPVA
        298        60       FIXPVA
        299        60       FIXPVA
        300        60       FIXPVA
        301        60       FIXPVA
        302        60       FIXPVA
        303        60       FIXPVA
        304        60       FIXPVA
        305        60       FIXPVA
        306        60       FIXPVA
        307        60       FIXPVA
        308        60       FIXPVA
        309        60       FIXPVA
        310        60       FIXPVA
        311        60       FIXPVA
        312        60       FIXPVA
        313        60       FIXPVA
        314        60       FIXPVA
        315        60       FIXPVA
        316        60       FIXPVA
        317        60       FIXPVA
        318        60       FIXPVA
        319        60       FIXPVA
        320        60       FIXPVA
        321        60       FIXPVA
        322        60       FIXPVA
        323        60       FIXPVA
        324        60       FIXPVA
        325        60       FIXPVA
        326        60       FIXPVA
        327        60       FIXPVA
        328        60       FIXPVA
        329        60       FIXPVA
        330        60       FIXPVA
        331        60       FIXPVA
        332        60       FIXPVA
        333        60       FIXPVA
        334        60       FIXPVA
        335        60       FIXPVA
        336        60       FIXPVA
        337        60       FIXPVA
        338        60       FIXPVA
        339        60       FIXPVA
        340        60       FIXPVA
        341        60       FIXPVA
        342        60       FIXPVA
        343        60       FIXPVA
        344        60       FIXPVA
        345        60       FIXPVA
        346        60       FIXPVA
        347        60       FIXPVA
        348        60       FIXPVA
        349        60       FIXPVA
        350        60       FIXPVA

     ------------------------------
      FIXPVA TESSELLATION FOR PCM
         PEIFENG SU AND HUI LI
     UNIVERSITY OF NEBRASKA-LINCOLN
     ------------------------------


 PCM DIMENSIONS: MXSP=   350, MXTS=     14000, MEMORY=        143853

     INPUT FOR CAVITY DEFINITION 
     ---------------------------
   ATOM               COORDINATES                RADIUS       EPS
      1      0.6470     -7.8910     -1.5360      0.0100     78.3900
      2      0.2970     -7.5610     -0.6870      1.5900     78.3900
      3      0.6720     -8.5120      0.3200      1.7700     78.3900
      4      1.7760     -8.6540      0.2940      0.0100     78.3900
      5      0.2020     -9.4960      0.0980      0.0100     78.3900
      6      0.2670     -8.0760      1.7300      1.7700     78.3900
      7      0.5450     -8.8510      2.4770      0.0100     78.3900
      8      0.9750     -6.8540      2.0890      1.5900     78.3900
      9      0.1120     -6.0180      2.8420      1.7700     78.3900
     10      0.6410     -5.7860      3.7980      0.0100     78.3900
     11     -0.1650     -4.7550      2.1420      1.6800     78.3900
     12     -0.6720     -3.6160      2.7080      1.7700     78.3900
     13     -1.8430     -1.9070      5.4810      1.6800     78.3900
     14     -1.7990     -2.5960      6.2010      0.0100     78.3900
     15     -2.1670     -0.9840      5.7090      0.0100     78.3900
     16     -1.0250     -3.4660      3.9970      1.6800     78.3900
     17     -1.4450     -2.2320      4.2660      1.7700     78.3900
     18     -1.4930     -1.2340      3.3270      1.6800     78.3900
     19     -1.8070     -0.3220      3.6190      0.0100     78.3900
     20     -1.1420     -1.3610      1.9880      1.7700     78.3900
     21     -1.2150     -0.4030      1.2110      1.5900     78.3900
     22     -0.7040     -2.6800      1.6910      1.7700     78.3900
     23     -0.2470     -3.2270      0.4980      1.6800     78.3900
     24      0.0590     -4.4660      0.8130      1.7700     78.3900
     25      0.4550     -5.2190      0.1270      0.0100     78.3900
     26     -1.1400     -6.8150      3.1340      1.7700     78.3900
     27     -2.0400     -6.1750      3.2220      0.0100     78.3900
     28     -0.9630     -7.5590      4.3250      1.5900     78.3900
     29     -1.7640     -8.0820      4.4480      0.0100     78.3900
     30     -1.2170     -7.7280      1.9150      1.7700     78.3900
     31     -1.5300     -7.1540      1.0130      0.0100     78.3900
     32     -1.9810     -8.9390      2.1050      1.5900     78.3900
     33     -3.5200     -8.9520      1.7760      2.1000     78.3900
     34     -3.7240     -8.3920      0.4250      1.5900     78.3900
     35     -4.0170    -10.3300      2.0040      1.5900     78.3900
     36     -4.1420     -7.9620      2.8310      1.5900     78.3900
     37     -4.2430     -8.3460      4.2220      1.7700     78.3900
     38     -3.2580     -8.6640      4.6260      0.0100     78.3900
     39     -4.9390     -9.2090      4.3420      0.0100     78.3900
     40     -4.7550     -7.1950      5.0930      1.7700     78.3900
     41     -4.7620     -7.4810      6.1670      0.0100     78.3900
     42     -3.8800     -6.0330      4.9620      1.5900     78.3900
     43     -4.6700     -4.8510      5.0000      1.7700     78.3900
     44     -4.2810     -4.2270      5.8380      0.0100     78.3900
     45     -4.5660     -4.0730      3.7570      1.6800     78.3900
     46     -4.9410     -2.7660      3.5920      1.7700     78.3900
     47     -6.2700      0.1640      4.8850      1.6800     78.3900
     48     -6.5450     -0.1140      5.8060      0.0100     78.3900
     49     -6.5540      1.0650      4.5450      0.0100     78.3900
     50     -5.4760     -1.9730      4.5350      1.6800     78.3900
     51     -5.7320     -0.7440      4.0910      1.7700     78.3900
     52     -5.4190     -0.3320      2.8250      1.6800     78.3900
     53     -5.6690      0.6080      2.5590      0.0100     78.3900
     54     -4.8480     -1.1200      1.8330      1.7700     78.3900
     55     -4.5950     -0.6630      0.7150      1.5900     78.3900
     56     -4.6240     -2.4490      2.2880      1.7700     78.3900
     57     -4.0970     -3.5510      1.6280      1.6800     78.3900
     58     -4.0760     -4.4920      2.5420      1.7700     78.3900
     59     -3.7270     -5.5150      2.3920      0.0100     78.3900
     60     -6.0900     -5.2680      5.2940      1.7700     78.3900
     61     -6.8270     -4.6160      4.7890      0.0100     78.3900
     62     -6.3070     -5.2740      6.6930      1.5900     78.3900
     63     -7.1560     -5.7100      6.8420      0.0100     78.3900
     64     -6.1450     -6.6750      4.7230      1.7700     78.3900
     65     -6.1720     -6.6420      3.6070      0.0100     78.3900
     66     -7.1770     -7.5140      5.3070      1.5900     78.3900
     67     -8.5420     -7.6430      4.5200      2.1000     78.3900
     68     -8.2400     -7.9860      3.1130      1.5900     78.3900
     69     -9.4120     -8.5870      5.2530      1.5900     78.3900
     70     -9.2000     -6.2110      4.5560      1.5900     78.3900
     71     -9.6570     -5.6190      5.7940      1.7700     78.3900
     72     -8.8990     -5.7140      6.6050      0.0100     78.3900
     73    -10.5850     -6.1310      6.1460      0.0100     78.3900
     74     -9.9760     -4.1270      5.6060      1.7700     78.3900
     75    -10.2780     -3.6560      6.5680      0.0100     78.3900
     76     -8.8000     -3.4170      5.1320      1.5900     78.3900
     77     -9.1930     -2.4260      4.2000      1.7700     78.3900
     78     -8.8080     -1.4750      4.6320      0.0100     78.3900
     79     -8.6080     -2.6040      2.8480      1.6800     78.3900
     80     -8.2090     -3.8410      2.4100      1.7700     78.3900
     81     -8.3360     -4.6580      3.1190      0.0100     78.3900
     82     -7.6590     -4.0060      1.1990      1.7700     78.3900
     83     -7.3090     -4.9740      0.8460      0.0100     78.3900
     84     -8.4910     -1.4990      2.0150      1.7700     78.3900
     85     -8.8780     -0.3990      2.4350      1.5900     78.3900
     86     -7.9470     -1.6450      0.7830      1.6800     78.3900
     87     -7.5200     -2.8510      0.3710      1.7700     78.3900
     88     -6.9570     -2.9580     -0.8290      1.6800     78.3900
     89     -6.8090     -2.1280     -1.3670      0.0100     78.3900
     90     -6.5890     -3.8210     -1.1750      0.0100     78.3900
     91    -10.7010     -2.3870      4.1890      1.7700     78.3900
     92    -11.1010     -2.1220      3.1930      0.0100     78.3900
     93    -11.1730     -1.4760      5.1670      1.5900     78.3900
     94    -12.1230     -1.6250      5.2510      0.0100     78.3900
     95    -11.0510     -3.8220      4.5530      1.7700     78.3900
     96    -10.8630     -4.5030      3.6910      0.0100     78.3900
     97    -12.3650     -3.9900      5.1220      1.5900     78.3900
     98    -13.5990     -4.3130      4.2030      2.1000     78.3900
     99    -13.3020     -5.5590      3.4660      1.5900     78.3900
    100    -14.8180     -4.3070      5.0400      1.5900     78.3900
    101    -13.6680     -3.1280      3.1840      1.5900     78.3900
    102    -14.1410     -1.8210      3.5720      1.7700     78.3900
    103    -13.6120     -1.4450      4.4780      0.0100     78.3900
    104    -15.2250     -1.8610      3.8200      0.0100     78.3900
    105    -13.9670     -0.8140      2.4250      1.7700     78.3900
    106    -14.2600      0.2020      2.7540      0.0100     78.3900
    107    -12.5780     -0.7340      2.0150      1.5900     78.3900
    108    -12.4920     -0.5820      0.6150      1.7700     78.3900
    109    -11.9320      0.3720      0.4750      0.0100     78.3900
    110    -11.7530     -1.7110     -0.0060      1.6800     78.3900
    111    -11.7170     -2.9580      0.5690      1.7700     78.3900
    112    -12.2150     -3.0360      1.5290      0.0100     78.3900
    113    -11.1330     -1.4740     -1.1970      1.7700     78.3900
    114    -11.2030     -0.3790     -1.7510      1.5900     78.3900
    115    -10.4490     -2.5410     -1.7280      1.6800     78.3900
    116    -10.0020     -2.3540     -2.6110      0.0100     78.3900
    117    -10.3590     -3.8170     -1.2050      1.7700     78.3900
    118     -9.7060     -4.6880     -1.7750      1.5900     78.3900
    119    -11.0630     -3.9950      0.0280      1.7700     78.3900
    120    -11.0240     -4.9680      0.5140      0.0100     78.3900
    121    -13.9140     -0.4300      0.0750      1.7700     78.3900
    122    -14.0540     -0.9320     -0.9090      0.0100     78.3900
    123    -14.2610      0.9450     -0.0300      1.5900     78.3900
    124    -13.8660      1.2600     -0.8520      0.0100     78.3900
    125    -14.7290     -1.1420      1.1390      1.7700     78.3900
    126    -14.6470     -2.2450      0.9970      0.0100     78.3900
    127    -16.0860     -0.6790      1.2380      1.5900     78.3900
    128    -17.2890     -1.5530      0.7630      2.1000     78.3900
    129    -17.2730     -2.8300      1.5050      1.5900     78.3900
    130    -18.5170     -0.7360      0.8980      1.5900     78.3900
    131    -17.0220     -1.8320     -0.7710      1.5900     78.3900
    132    -17.8530     -2.7790     -1.4880      1.7700     78.3900
    133    -18.8820     -2.8460     -1.0640      0.0100     78.3900
    134    -17.3990     -3.7940     -1.4280      0.0100     78.3900
    135    -17.9880     -2.4190     -2.9770      1.7700     78.3900
    136    -18.5500     -3.2040     -3.5250      0.0100     78.3900
    137    -18.7600     -1.1890     -3.1010      1.5900     78.3900
    138    -18.1820     -0.3660     -4.1100      1.7700     78.3900
    139    -19.0060     -0.1650     -4.8350      0.0100     78.3900
    140    -17.6900      0.9360     -3.5810      1.6800     78.3900
    141    -17.4340      1.0800     -2.2350      1.7700     78.3900
    142    -17.6390      0.2140     -1.6060      0.0100     78.3900
    143    -16.9990      2.2370     -1.7220      1.7700     78.3900
    144    -16.8130      2.3670     -0.6570      0.0100     78.3900
    145    -17.4610      2.0060     -4.4440      1.7700     78.3900
    146    -17.6530      1.8580     -5.6620      1.5900     78.3900
    147    -17.0570      3.1960     -3.9370      1.6800     78.3900
    148    -16.8060      3.3230     -2.6210      1.7700     78.3900
    149    -16.3970      4.5010     -2.1580      1.6800     78.3900
    150    -16.2800      5.2650     -2.7940      0.0100     78.3900
    151    -16.2270      4.6610     -1.1860      0.0100     78.3900
    152    -17.1020     -1.1690     -4.8150      1.7700     78.3900
    153    -16.2440     -0.5430     -5.1410      0.0100     78.3900
    154    -17.6570     -1.8410     -5.9310      1.5900     78.3900
    155    -17.0170     -2.5160     -6.2100      0.0100     78.3900
    156    -16.6740     -2.1480     -3.7310      1.7700     78.3900
    157    -15.9900     -1.6260     -3.0200      0.0100     78.3900
    158    -16.1380     -3.3810     -4.2560      1.5900     78.3900
    159    -14.7720     -3.9680     -3.7630      2.1000     78.3900
    160    -14.5660     -3.6020     -2.3480      1.5900     78.3900
    161    -14.7470     -5.4110     -4.0980      1.5900     78.3900
    162    -13.7170     -3.1950     -4.6420      1.5900     78.3900
    163    -13.1990     -3.7800     -5.8540      1.7700     78.3900
    164    -13.9830     -3.7700     -6.6450      0.0100     78.3900
    165    -12.8890     -4.8420     -5.7010      0.0100     78.3900
    166    -11.9790     -3.0340     -6.4160      1.7700     78.3900
    167    -11.6910     -3.5600     -7.3500      0.0100     78.3900
    168    -12.3200     -1.6730     -6.7820      1.5900     78.3900
    169    -11.6570     -0.7630     -5.9240      1.7700     78.3900
    170    -10.7950     -0.3460     -6.4890      0.0100     78.3900
    171    -12.5760      0.3020     -5.5470      1.6800     78.3900
    172    -13.6660      2.2090     -5.5250      1.7700     78.3900
    173    -14.2950      1.3780     -4.5960      1.6800     78.3900
    174    -13.6080      0.2610     -4.6490      1.7700     78.3900
    175    -13.8020     -0.6320     -4.0490      0.0100     78.3900
    176    -13.0940      4.0410     -6.9360      1.6800     78.3900
    177    -12.1140      3.2620     -7.4020      1.7700     78.3900
    178    -11.4650      3.6920     -8.1670      0.0100     78.3900
    179    -11.8250      2.0090     -7.0790      1.6800     78.3900
    180    -12.6270      1.5390     -6.1300      1.7700     78.3900
    181    -13.9070      3.5300     -5.9750      1.7700     78.3900
    182    -14.8960      4.3130     -5.5230      1.6800     78.3900
    183    -15.6240      3.9190     -4.9490      0.0100     78.3900
    184    -15.0350      5.2140     -5.9360      0.0100     78.3900
    185    -11.1290     -1.5510     -4.7500      1.7700     78.3900
    186    -11.9230     -1.7040     -3.9860      0.0100     78.3900
    187     -9.9910     -0.9490     -4.1560      1.5900     78.3900
    188    -10.2070     -0.0350     -3.8920      0.0100     78.3900
    189    -10.7980     -2.8880     -5.4130      1.7700     78.3900
    190    -10.8670     -3.7040     -4.6590      0.0100     78.3900
    191     -9.4910     -2.8880     -6.0180      1.5900     78.3900
    192     -9.0120     -3.9270     -7.0710      2.1000     78.3900
    193     -7.5350     -3.9330     -7.0670      1.5900     78.3900
    194     -9.6810     -5.2220     -6.8170      1.5900     78.3900
    195     -9.5300     -3.3410     -8.4400      1.5900     78.3900
    196     -8.7380     -3.3680     -9.6470      1.7700     78.3900
    197     -9.2610     -3.9980    -10.4010      0.0100     78.3900
    198     -7.7320     -3.8260     -9.4950      0.0100     78.3900
    199     -8.5180     -1.9640    -10.2460      1.7700     78.3900
    200     -7.7290     -2.0200    -11.0280      0.0100     78.3900
    201     -9.7410     -1.4910    -10.8960      1.5900     78.3900
    202    -10.1270     -0.2480    -10.3240      1.7700     78.3900
    203     -9.6560      0.5350    -10.9560      0.0100     78.3900
    204    -11.6010     -0.0850    -10.2790      1.6800     78.3900
    205    -12.3970     -1.1580     -9.9640      1.7700     78.3900
    206    -11.8540     -2.0810     -9.7500      0.0100     78.3900
    207    -12.1510      1.1600    -10.5020      1.7700     78.3900
    208    -11.4740      2.1560    -10.7620      1.5900     78.3900
    209    -13.5210      1.2030    -10.4590      1.6800     78.3900
    210    -13.9350      2.0970    -10.6560      0.0100     78.3900
    211    -14.3830      0.1460    -10.2610      1.7700     78.3900
    212    -15.5990      0.3150    -10.3490      1.5900     78.3900
    213    -13.7360     -1.0980     -9.9750      1.7700     78.3900
    214    -14.3520     -1.9800     -9.8230      0.0100     78.3900
    215     -9.5050     -0.2210     -8.9530      1.7700     78.3900
    216    -10.0860     -0.8760     -8.2710      0.0100     78.3900
    217     -9.3960      1.0780     -8.4200      1.5900     78.3900
    218     -8.5860      1.5060     -8.7320      0.0100     78.3900
    219     -8.1490     -0.8570     -9.2310      1.7700     78.3900
    220     -7.7990     -1.3760     -8.3100      0.0100     78.3900
    221     -7.1560      0.0580     -9.7580      1.5900     78.3900
    222     -6.0980      0.7240     -8.7860      2.1000     78.3900
    223     -5.8390     -0.1800     -7.6450      1.5900     78.3900
    224     -4.9180      1.1250     -9.5880      1.5900     78.3900
    225     -6.8070      2.0270     -8.2790      1.5900     78.3900
    226     -6.1940      2.8730     -7.2770      1.7700     78.3900
    227     -5.1540      3.1520     -7.5620      0.0100     78.3900
    228     -6.1470      2.3300     -6.3050      0.0100     78.3900
    229     -6.9920      4.1750     -7.0470      1.7700     78.3900
    230     -6.7860      4.9090     -7.8570      0.0100     78.3900
    231     -8.4240      3.9020     -7.0750      1.5900     78.3900
    232     -9.0770      4.6570     -6.0800      1.7700     78.3900
    233     -9.8900      5.2220     -6.5950      0.0100     78.3900
    234     -9.6750      3.7900     -5.0650      1.6800     78.3900
    235    -10.9630      3.0240     -3.4660      1.7700     78.3900
    236    -10.1540      1.9590     -3.8450      1.6800     78.3900
    237     -9.4130      2.4630     -4.8090      1.7700     78.3900
    238     -8.6580      1.9180     -5.3830      0.0100     78.3900
    239    -12.5960      4.3450     -2.3730      1.6800     78.3900
    240    -12.2300      5.3400     -3.1810      1.7700     78.3900
    241    -12.7650      6.2820     -3.0320      0.0100     78.3900
    242    -11.2620      5.3540     -4.1040      1.6800     78.3900
    243    -10.6740      4.1520     -4.2050      1.7700     78.3900
    244    -11.9830      3.1500     -2.5060      1.7700     78.3900
    245    -12.3810      2.1800     -1.6900      1.6800     78.3900
    246    -11.8870      1.2990     -1.6780      0.0100     78.3900
    247    -12.8620      2.5120     -0.8800      0.0100     78.3900
    248     -8.0710      5.6230     -5.5130      1.7700     78.3900
    249     -8.2630      5.8520     -4.4480      0.0100     78.3900
    250     -8.0710      6.8140     -6.2790      1.5900     78.3900
    251     -7.2880      7.3200     -6.0230      0.0100     78.3900
    252     -6.7660      4.8550     -5.6790      1.7700     78.3900
    253     -6.6830      4.0420     -4.9190      0.0100     78.3900
    254     -5.5970      5.6980     -5.7270      1.5900     78.3900
    255     -4.8010      6.0740     -4.4250      2.1000     78.3900
    256     -4.2470      4.8200     -3.8800      1.5900     78.3900
    257     -3.8370      7.1410     -4.7550      1.5900     78.3900
    258     -5.8690      6.6400     -3.4100      1.5900     78.3900
    259     -6.3720      7.9950     -3.5220      1.7700     78.3900
    260     -6.8010      8.1860     -4.5310      0.0100     78.3900
    261     -5.5630      8.7460     -3.3570      0.0100     78.3900
    262     -7.4690      8.2770     -2.4850      1.7700     78.3900
    263     -7.8840      9.2960     -2.6200      0.0100     78.3900
    264     -8.5740      7.3500     -2.6500      1.5900     78.3900
    265     -9.0720      6.9620     -1.3840      1.7700     78.3900
    266    -10.1670      7.1740     -1.3930      0.0100     78.3900
    267     -8.8610      5.5350     -1.1600      1.6800     78.3900
    268     -9.0470      3.4760     -0.4400      1.7700     78.3900
    269     -8.0560      3.4570     -1.4070      1.6800     78.3900
    270     -7.9780      4.6990     -1.7980      1.7700     78.3900
    271     -7.3010      5.0680     -2.5690      0.0100     78.3900
    272    -10.5440      2.8330      1.2680      1.6800     78.3900
    273    -10.9060      4.1190      1.3380      1.7700     78.3900
    274    -11.6640      4.3590      2.0960      0.0100     78.3900
    275    -10.4920      5.1500      0.5900      1.6800     78.3900
    276     -9.5460      4.7530     -0.2750      1.7700     78.3900
    277     -9.5990      2.4660      0.3650      1.7700     78.3900
    278     -9.2220      1.1880      0.2610      1.6800     78.3900
    279     -8.4900      0.9100     -0.3590      0.0100     78.3900
    280     -9.3870      0.5850      1.0510      0.0100     78.3900
    281     -8.3960      7.8250     -0.3440      1.7700     78.3900
    282     -8.2510      7.2990      0.6240      0.0100     78.3900
    283     -9.1610      8.9990     -0.1420      1.5900     78.3900
    284     -8.5950      9.6500      0.3020      0.0100     78.3900
    285     -7.0570      8.1240     -1.0130      1.7700     78.3900
    286     -6.4000      7.2230     -0.9730      0.0100     78.3900
    287     -6.4110      9.3320     -0.5390      1.5900     78.3900
    288     -5.2100      9.2030      0.4740      2.1000     78.3900
    289     -4.1100      8.4680     -0.1850      1.5900     78.3900
    290     -4.8950     10.5540      0.9860      1.5900     78.3900
    291     -5.7840      8.3210      1.6450      1.5900     78.3900
    292     -6.7150      8.8660      2.6050      1.7700     78.3900
    293     -7.6600      9.1810      2.1070      0.0100     78.3900
    294     -6.2770      9.7570      3.1080      0.0100     78.3900
    295     -7.0810      7.8430      3.6900      1.7700     78.3900
    296     -7.7420      8.3000      4.4580      0.0100     78.3900
    297     -7.8310      6.7430      3.0950      1.5900     78.3900
    298     -7.4260      5.5160      3.6940      1.7700     78.3900
    299     -8.3610      5.0330      4.0660      0.0100     78.3900
    300     -6.7520      4.5990      2.7310      1.6800     78.3900
    301     -6.2080      5.1090      1.5740      1.7700     78.3900
    302     -6.3360      6.1770      1.4200      0.0100     78.3900
    303     -5.6040      4.3260      0.6760      1.7700     78.3900
    304     -5.1950      4.7180     -0.2540      0.0100     78.3900
    305     -6.6340      3.2360      3.0040      1.7700     78.3900
    306     -7.1040      2.7840      4.0610      1.5900     78.3900
    307     -6.0140      2.4320      2.1100      1.6800     78.3900
    308     -5.5380      2.9330      0.9570      1.7700     78.3900
    309     -4.9860      2.1080      0.0730      1.6800     78.3900
    310     -4.9180      1.1300      0.2840      0.0100     78.3900
    311     -4.6120      2.4310     -0.7980      0.0100     78.3900
    312     -6.5440      5.8640      4.8780      1.7700     78.3900
    313     -5.7830      5.0850      5.0870      0.0100     78.3900
    314     -7.3390      6.0640      6.0290      1.5900     78.3900
    315     -6.7600      6.4190      6.7150      0.0100     78.3900
    316     -5.9040      7.1640      4.4040      1.7700     78.3900
    317     -5.1430      6.9450      3.6180      0.0100     78.3900
    318     -5.4120      8.0200      5.4600      1.5900     78.3900
    319     -3.8640      8.1110      5.7320      2.1000     78.3900
    320     -3.1230      8.1080      4.4550      1.5900     78.3900
    321     -3.6010      9.2420      6.6540      1.5900     78.3900
    322     -3.5780      6.7510      6.4730      1.5900     78.3900
    323     -4.1630      6.5110      7.7730      1.7700     78.3900
    324     -5.2680      6.6450      7.7580      0.0100     78.3900
    325     -3.7400      7.2210      8.5190      0.0100     78.3900
    326     -3.8530      5.0950      8.2710      1.7700     78.3900
    327     -4.2070      4.9600      9.3150      0.0100     78.3900
[...]
    43   6.0   5.9339622
    44   7.0   7.5944978
    45   6.0   5.7091139
    46   1.0   0.7322588
    47   7.0   7.6989969
    48   6.0   5.7495309
    49   1.0   0.7728511
    50   7.0   7.6077597
    51   6.0   5.3210288
    52   6.0   5.3459418
    53   7.0   7.9633094
    54   1.0   0.5444459
    55   1.0   0.5778855
    56   6.0   5.8851768
    57   1.0   0.7706091
    58   8.0   8.8855074
    59   1.0   0.4429863
    60   6.0   5.8442721
    61   1.0   0.7873173
    62   8.0   8.7635748
    63  15.0  13.3926366
    64   8.0   8.8969657
    65   8.0   8.9201077
    66   8.0   8.9820251
    67   1.0   0.4099630
    68   1.0   0.4013025
 Redoing 1e ESP:                    -1

  iFrag=      8 jFrag=      6 EFMOc= -2870.940411600

  iFrag=      8 jFrag=      6 EFMOu= -2864.584703726 Tr=-0.000574882

 I,J=       9       8 Ees_I(J)=  -22.272 Ees_J(I)=  -26.793 Ees_IJ=  -49.065

 energy of the separated dimer    9    8, L1=  742 is     -2879.247473303

 CPU     0: STEP CPU TIME=   528.67 TOTAL CPU TIME=      16358.5 (    272.6 MIN)
 TOTAL WALL CLOCK TIME=      35341.0 SECONDS, CPU UTILIZATION IS    46.29%

 RHF      dimer      9      8 corr= MP2        , LL1=   742 ID=             7

          -----------------------
          MP2 CONTROL INFORMATION
          -----------------------
          NACORE =       52  NBCORE =       52
          LMOMP2 =        F  AOINTS = DUP     
          METHOD =        2  NWORD  =               0
          MP2PRP =        F  OSPT   = NONE    
          CUTOFF = 1.00E-12  CPHFBS = BASISAO 
          CODE   = IMS     

          NUMBER OF CORE -A-  ORBITALS =    52
          NUMBER OF CORE -B-  ORBITALS =    52
          NUMBER OF OCC. -A-  ORBITALS =   170
          NUMBER OF OCC. -B-  ORBITALS =   170
          NUMBER OF MOLECULAR ORBITALS =   727
          NUMBER OF   BASIS  FUNCTIONS =   727


 AO spaces for     9     8     0 n-mer: L1=   727, L0=   682

 DIRECT SCF CALCULATION, SCHWRZ=T   FDIFF=T,  DIRTHR=  0.00E+00 NITDIR=10

                                                                                   NONZERO     BLOCKS
 ITER EX DEM     TOTAL ENERGY        E CHANGE  DENSITY CHANGE     ORB. GRAD      INTEGRALS    SKIPPED
   1  0  0    -2776.2861667877 -2776.2861667877   0.151333376   0.000000000     6221242548  273269844
          ---------------START SECOND ORDER SCF---------------
   2  1  0    -2776.4302492696    -0.1440824819   0.042475732   0.006419024     5885872836  280498215
   3  2  0    -2776.4360607609    -0.0058114913   0.015761186   0.002097263     5446278360  285831428
   4  3  0    -2776.4370092476    -0.0009484867   0.004852517   0.000977801     5130945010  288805709
   5  4  0    -2776.4370051445     0.0000041031   0.000879895   0.000084499     4728371915  292540745
   6  5  0    -2776.4370064224    -0.0000012779   0.000232747   0.000044570     4303223606  296136984
   7  6  0    -2776.4370070572    -0.0000006347   0.000095401   0.000013170     3910449001  299369449
   8  7  0    -2776.4370053897     0.0000016675   0.000026445   0.000010688     3561018090  302214188
   9  8  0    -2776.4370057262    -0.0000003366   0.000010330   0.000002610     3229992987  304926610
  10  9  0    -2776.4370052709     0.0000004554   0.000002935   0.000001440     2876525678  307800454
  11 10  0    -2776.4370053850    -0.0000001142   0.000001111   0.000000581     2588860637  310110857
  12 11  0    -2776.4370053405     0.0000000446   0.000000493   0.000000218     2308155621  312375298
  13 12  0    -2776.4370053695    -0.0000000290   0.000000160   0.000000067     2128748698  313713661
  14 13  0    -2776.4370053561     0.0000000134   0.000000089   0.000000028     1814173974  316066832

          -----------------
          DENSITY CONVERGED
          -----------------
     TIME TO FORM FOCK OPERATORS=     270.6 SECONDS (      19.3 SEC/ITER)
     FOCK TIME ON FIRST ITERATION=      33.2, LAST ITERATION=       9.4
     TIME TO SOLVE SCF EQUATIONS=       1.9 SECONDS (       0.1 SEC/ITER)

 FINAL RHF ENERGY IS    -2776.4370053561 AFTER  14 ITERATIONS
 ...... END OF RHF CALCULATION ......
 CPU     0: STEP CPU TIME=   428.67 TOTAL CPU TIME=      16787.1 (    279.8 MIN)
 TOTAL WALL CLOCK TIME=      36229.0 SECONDS, CPU UTILIZATION IS    46.34%

 --------------------------   -----------------------------
 RHF-MP2 ENERGY CALCULATION   PROGRAM WRITTEN BY K.ISHIMURA
 --------------------------   -----------------------------
 NUMBER OF OCCUPIED ORBITALS            =  170
 NUMBER OF CORRELATED OCCUPIED ORBITALS =  118
 NUMBER OF VIRTUAL ORBITALS             =  507
 NUMBER OF BASIS FUNCTIONS              =  727
 NUMBER OF BASIS SHELLS                 =  226
 AO-TRANSFORMED INTEGRAL THRESHOLD      = 1.00E-12
 HALF-TRANSFORMED INTEGRAL THRESHOLD    = 2.93E-14

 NUMBER OF REDUNDANT MOS IN FMO         =    5
 TOTAL DISK REQUIRED (ALL PROCESSORS)=          20702 MBYTES
                  DISK SPACE PER CORE=           1293 MBYTES, USING P=   16
 MEMORY REQUIRED FOR TRANSFORMATION OF 1ST THREE INDICES=    34781401
 MEMORY REQUIRED FOR    4TH INDEX TRANSF. AND MP2 ENERGY=    56276114
 BEGINNING MP2 INTEGRAL TRANSFORMATION...
 BEGINNING    1ST SHELL LOOP...
 BEGINNING   26TH SHELL LOOP...
 BEGINNING   51ST SHELL LOOP...
 BEGINNING   76TH SHELL LOOP...
 BEGINNING  101ST SHELL LOOP...
 BEGINNING  126TH SHELL LOOP...
 BEGINNING  151ST SHELL LOOP...
 BEGINNING  176TH SHELL LOOP...
 BEGINNING  201ST SHELL LOOP...
 BEGINNING  226TH SHELL LOOP...

 RESULTS OF MOLLER-PLESSET 2ND ORDER CORRECTION ARE
               E(0)=     -2776.4370053561
               E(1)=         0.0
               E(2)=        -6.4075109902
             E(MP2)=     -2782.8445163463
 SPIN-COMPONENT-SCALED MP2 RESULTS ARE
              E(2S)=        -4.6242473007
              E(2T)=        -1.7832636895
             E(2ST)=        -6.1435179907 = 6/5 * E(2S) + 1/3 * E(2T)
            SCS-MP2=     -2782.5805233468

          ---------------------
          ELECTROSTATIC MOMENTS
          ---------------------

 POINT   1           X           Y           Z (BOHR)    CHARGE
               -16.166624    0.276022   -0.982885       -2.00 (A.U.)
         DX          DY          DZ         /D/  (DEBYE)
   -36.658602  -72.160136   16.767114   82.656363

 Atomic populations
     I    Z      Q
     1   6.0   6.0126547
     2   1.0   0.8329902
     3   1.0   0.7777297
     4   6.0   5.8289702
     5   1.0   0.7794092
     6   8.0   8.7301593
     7   6.0   5.5750089
     8   1.0   0.7482552
     9   7.0   7.8047603
    10   6.0   5.9408592
    11   7.0   7.6079901
    12   6.0   5.7243576
    13   1.0   0.7038354
    14   7.0   7.6867999
    15   6.0   5.7472246
    16   1.0   0.7722251
    17   7.0   7.6713096
    18   6.0   5.3167105
    19   6.0   5.3262563
    20   7.0   7.9226504
    21   1.0   0.5693273
    22   1.0   0.5593184
    23   6.0   5.8801420
    24   1.0   0.7765004
    25   8.0   8.8409950
    26   1.0   0.4914470
    27   6.0   5.8852483
    28   1.0   0.7696620
    29   8.0   8.7923391
    30  15.0  13.3909832
    31   8.0   8.8902973
    32   8.0   8.8970811
    33   8.0   8.9811083
    34   5.0   5.4024345
    35   1.0   0.7683865
    36   1.0   0.7884445
    37   6.0   5.8853084
    38   1.0   0.7809811
    39   8.0   8.7112520
    40   6.0   5.5708658
    41   1.0   0.7560836
    42   7.0   7.8020186
    43   6.0   5.9113083
    44   7.0   7.6829264
    45   6.0   5.6469547
    46   1.0   0.7160506
    47   7.0   7.6666071
    48   6.0   5.7334627
    49   1.0   0.7748422
    50   7.0   7.6610732
    51   6.0   5.3189520
    52   6.0   5.3116646
    53   7.0   8.0069417
    54   1.0   0.5450754
    55   1.0   0.5832532
    56   6.0   5.9092274
    57   1.0   0.7380612
    58   8.0   8.8460665
    59   1.0   0.4837359
    60   6.0   5.8695834
    61   1.0   0.7663724
    62   8.0   8.7880286
    63  15.0  13.3575077
    64   8.0   8.8938320
    65   8.0   8.8865487
    66   8.0   8.7927196
    67   1.0   0.4088239
 Redoing 1e ESP:                    -1

  iFrag=      9 jFrag=      8 EFMOc= -2885.991768749

  iFrag=      9 jFrag=      8 EFMOu= -2879.584257759 Tr= 0.000342594

 I,J=       3       2 Ees_I(J)=  -20.365 Ees_J(I)=  -13.675 Ees_IJ=  -34.040

 energy of the separated dimer    3    2, L1=  727 is     -2882.234342365

 CPU     0: STEP CPU TIME=   593.83 TOTAL CPU TIME=      17381.0 (    289.7 MIN)
 TOTAL WALL CLOCK TIME=      37591.3 SECONDS, CPU UTILIZATION IS    46.24%

 RHF      dimer      3      2 corr= MP2        , LL1=   727 ID=             8

          -----------------------
          MP2 CONTROL INFORMATION
          -----------------------
          NACORE =       51  NBCORE =       51
          LMOMP2 =        F  AOINTS = DUP     
          METHOD =        2  NWORD  =               0
          MP2PRP =        F  OSPT   = NONE    
          CUTOFF = 1.00E-12  CPHFBS = BASISAO 
          CODE   = IMS     

          NUMBER OF CORE -A-  ORBITALS =    51
          NUMBER OF CORE -B-  ORBITALS =    51
          NUMBER OF OCC. -A-  ORBITALS =   168
          NUMBER OF OCC. -B-  ORBITALS =   168
          NUMBER OF MOLECULAR ORBITALS =   712
          NUMBER OF   BASIS  FUNCTIONS =   712


 AO spaces for     3     2     0 n-mer: L1=   712, L0=   668

 DIRECT SCF CALCULATION, SCHWRZ=T   FDIFF=T,  DIRTHR=  0.00E+00 NITDIR=10

                                                                                   NONZERO     BLOCKS
 ITER EX DEM     TOTAL ENERGY        E CHANGE  DENSITY CHANGE     ORB. GRAD      INTEGRALS    SKIPPED
   1  0  0    -2771.3798704380 -2771.3798704380   0.148336741   0.000000000     5919593318  251292678
          ---------------START SECOND ORDER SCF---------------
   2  1  0    -2771.5234724904    -0.1436020524   0.042358381   0.006949152     5656592567  258109056
   3  2  0    -2771.5290535444    -0.0055810540   0.015252971   0.002317447     5266700871  263452937
   4  3  0    -2771.5301211825    -0.0010676381   0.004902058   0.001042045     4977870431  266442220
   5  4  0    -2771.5300818010     0.0000393815   0.000897968   0.000077250     4601502608  270147497
   6  5  0    -2771.5300808684     0.0000009327   0.000217106   0.000043376     4188323260  273805719
   7  6  0    -2771.5300842884    -0.0000034200   0.000088318   0.000013090     3799566220  277103221
   8  7  0    -2771.5300816355     0.0000026528   0.000025724   0.000010257     3450861992  280000936
   9  8  0    -2771.5300822722    -0.0000006367   0.000009418   0.000002276     3113860350  282814379
  10  9  0    -2771.5300818941     0.0000003782   0.000002735   0.000000828     2739578396  285872283
  11 10  0    -2771.5300819270    -0.0000000330   0.000000788   0.000000224     2436819807  288388739
  12 11  0    -2771.5300819075     0.0000000195   0.000000386   0.000000129     2136299954  290807318
  13 12  0    -2771.5300819220    -0.0000000145   0.000000098   0.000000043     1970659351  292089272
  14 13  0    -2771.5300819189     0.0000000030   0.000000041   0.000000019     1648664022  294536247

          -----------------
          DENSITY CONVERGED
          -----------------
     TIME TO FORM FOCK OPERATORS=     259.8 SECONDS (      18.6 SEC/ITER)
     FOCK TIME ON FIRST ITERATION=      32.1, LAST ITERATION=       8.6
     TIME TO SOLVE SCF EQUATIONS=       1.8 SECONDS (       0.1 SEC/ITER)

 FINAL RHF ENERGY IS    -2771.5300819189 AFTER  14 ITERATIONS
 ...... END OF RHF CALCULATION ......
 CPU     0: STEP CPU TIME=   380.06 TOTAL CPU TIME=      17761.0 (    296.0 MIN)
 TOTAL WALL CLOCK TIME=      38361.0 SECONDS, CPU UTILIZATION IS    46.30%

 --------------------------   -----------------------------
 RHF-MP2 ENERGY CALCULATION   PROGRAM WRITTEN BY K.ISHIMURA
 --------------------------   -----------------------------
 NUMBER OF OCCUPIED ORBITALS            =  168
 NUMBER OF CORRELATED OCCUPIED ORBITALS =  117
 NUMBER OF VIRTUAL ORBITALS             =  495
 NUMBER OF BASIS FUNCTIONS              =  712
 NUMBER OF BASIS SHELLS                 =  222
 AO-TRANSFORMED INTEGRAL THRESHOLD      = 1.00E-12
 HALF-TRANSFORMED INTEGRAL THRESHOLD    = 5.70E-14

 NUMBER OF REDUNDANT MOS IN FMO         =    5
 TOTAL DISK REQUIRED (ALL PROCESSORS)=          19463 MBYTES
                  DISK SPACE PER CORE=           1216 MBYTES, USING P=   16
 MEMORY REQUIRED FOR TRANSFORMATION OF 1ST THREE INDICES=    33586061
 MEMORY REQUIRED FOR    4TH INDEX TRANSF. AND MP2 ENERGY=    56574600
 BEGINNING MP2 INTEGRAL TRANSFORMATION...
 BEGINNING    1ST SHELL LOOP...
 BEGINNING   26TH SHELL LOOP...
 BEGINNING   51ST SHELL LOOP...
 BEGINNING   76TH SHELL LOOP...
 BEGINNING  101ST SHELL LOOP...
 BEGINNING  126TH SHELL LOOP...
 BEGINNING  151ST SHELL LOOP...
 BEGINNING  176TH SHELL LOOP...
 BEGINNING  201ST SHELL LOOP...

 RESULTS OF MOLLER-PLESSET 2ND ORDER CORRECTION ARE
               E(0)=     -2771.5300819189
               E(1)=         0.0
               E(2)=        -6.3018775513
             E(MP2)=     -2777.8319594702
 SPIN-COMPONENT-SCALED MP2 RESULTS ARE
              E(2S)=        -4.5529932795
              E(2T)=        -1.7488842718
             E(2ST)=        -6.0465533594 = 6/5 * E(2S) + 1/3 * E(2T)
            SCS-MP2=     -2777.5766352783

          ---------------------
          ELECTROSTATIC MOMENTS
          ---------------------

 POINT   1           X           Y           Z (BOHR)    CHARGE
               -16.166624    0.276022   -0.982885       -2.00 (A.U.)
         DX          DY          DZ         /D/  (DEBYE)
    19.646701   62.582407  -40.332880   77.001894

 Atomic populations
     I    Z      Q
     1   6.0   6.0205719
     2   1.0   0.8381387
     3   1.0   0.7700722
     4   6.0   5.8350431
     5   1.0   0.7750645
     6   8.0   8.7376936
     7   6.0   5.5688243
     8   1.0   0.7523232
     9   7.0   7.8230134
    10   6.0   5.8420674
    11   1.0   0.6756367
    12   6.0   6.3806553
    13   1.0   0.7383623
    14   6.0   4.9986975
    15   8.0   8.7602473
    16   7.0   7.7620749
    17   6.0   5.3054988
    18   7.0   7.9545501
    19   1.0   0.5622313
    20   1.0   0.5509161
    21   6.0   5.8669291
    22   1.0   0.7837476
    23   8.0   8.8344913
    24   1.0   0.4994382
    25   6.0   5.8751089
    26   1.0   0.7731168
    27   8.0   8.7914771
    28  15.0  13.4016026
    29   8.0   8.8988156
    30   8.0   8.8947355
    31   8.0   8.9728982
    32   5.0   5.3690906
    33   1.0   0.8680346
    34   1.0   0.7482239
    35   6.0   5.8973942
    36   1.0   0.7458720
    37   8.0   8.7302001
    38   6.0   5.5570133
    39   1.0   0.7533734
    40   7.0   7.8000255
    41   6.0   5.2974532
    42   7.0   7.9809118
    43   1.0   0.5578635
    44   1.0   0.5224209
    45   7.0   7.7551751
    46   6.0   5.0144066
    47   7.0   7.9271476
    48   1.0   0.5169718
    49   6.0   5.0966684
    50   8.0   8.7706465
    51   6.0   6.0601087
    52   7.0   7.5899865
    53   6.0   5.7206159
    54   1.0   0.7438135
    55   6.0   5.9151301
    56   1.0   0.7409154
    57   8.0   8.8432221
    58   1.0   0.4832317
    59   6.0   5.8787318
    60   1.0   0.7608160
    61   8.0   8.7944093
    62  15.0  13.3383950
    63   8.0   8.8961633
    64   8.0   8.8868787
    65   8.0   8.7892661
    66   1.0   0.4053795
 Redoing 1e ESP:                    -1

  iFrag=      3 jFrag=      2 EFMOc= -2888.872363498

  iFrag=      3 jFrag=      2 EFMOu= -2882.570485947 Tr= 0.000187603

 I,J=      10       2 Ees_I(J)=  -10.815 Ees_J(I)=   -3.980 Ees_IJ=  -14.794

 energy of the separated dimer   10    2, L1=  727 is     -2867.660482047

 CPU     0: STEP CPU TIME=   562.60 TOTAL CPU TIME=      18323.6 (    305.4 MIN)
 TOTAL WALL CLOCK TIME=      39598.9 SECONDS, CPU UTILIZATION IS    46.27%

 RHF      dimer     10      2 corr= MP2        , LL1=   727 ID=             9

          -----------------------
          MP2 CONTROL INFORMATION
          -----------------------
          NACORE =       51  NBCORE =       51
          LMOMP2 =        F  AOINTS = DUP     
          METHOD =        2  NWORD  =               0
          MP2PRP =        F  OSPT   = NONE    
          CUTOFF = 1.00E-12  CPHFBS = BASISAO 
          CODE   = IMS     

          NUMBER OF CORE -A-  ORBITALS =    51
          NUMBER OF CORE -B-  ORBITALS =    51
          NUMBER OF OCC. -A-  ORBITALS =   168
          NUMBER OF OCC. -B-  ORBITALS =   168
          NUMBER OF MOLECULAR ORBITALS =   727
          NUMBER OF   BASIS  FUNCTIONS =   727


 AO spaces for    10     2     0 n-mer: L1=   727, L0=   682

 DIRECT SCF CALCULATION, SCHWRZ=T   FDIFF=T,  DIRTHR=  0.00E+00 NITDIR=10

                                                                                   NONZERO     BLOCKS
 ITER EX DEM     TOTAL ENERGY        E CHANGE  DENSITY CHANGE     ORB. GRAD      INTEGRALS    SKIPPED
   1  0  0    -2771.6934119121 -2771.6934119121   0.113018971   0.000000000     3646090797  294936830
          ---------------START SECOND ORDER SCF---------------
   2  1  0    -2771.7080046500    -0.0145927379   0.019920304   0.002143900     3286278716  301723663
   3  2  0    -2771.7086130995    -0.0006084494   0.012303774   0.000912455     3140967647  303638779
   4  3  0    -2771.7087721054    -0.0001590059   0.001882762   0.000596796     2995349725  305077466
   5  4  0    -2771.7087182974     0.0000538079   0.000804977   0.000127511     2816915997  306933248
   6  5  0    -2771.7087235545    -0.0000052571   0.000281275   0.000048796     2661072801  308288041
   7  6  0    -2771.7087207857     0.0000027689   0.000107983   0.000025117     2525224616  309473039
   8  7  0    -2771.7087217627    -0.0000009770   0.000052469   0.000015418     2315902946  311247380
   9  8  0    -2771.7087210625     0.0000007002   0.000010783   0.000003791     2197217741  312291891
  10  9  0    -2771.7087212890    -0.0000002265   0.000003943   0.000002385     1977739966  314043561
  11 10  0    -2771.7087211673     0.0000001217   0.000002060   0.000000588     1813758126  315459225
  12 11  0    -2771.7087211481     0.0000000192   0.000000577   0.000000234     1670591414  316661915
  13 12  0    -2771.7087211553    -0.0000000071   0.000000380   0.000000083     1498363512  318059210
  14 13  0    -2771.7087211590    -0.0000000038   0.000000142   0.000000014     1360436913  319146490

          -----------------
          DENSITY CONVERGED
          -----------------
     TIME TO FORM FOCK OPERATORS=     178.9 SECONDS (      12.8 SEC/ITER)
     FOCK TIME ON FIRST ITERATION=      21.3, LAST ITERATION=       7.3
     TIME TO SOLVE SCF EQUATIONS=       1.9 SECONDS (       0.1 SEC/ITER)

 FINAL RHF ENERGY IS    -2771.7087211590 AFTER  14 ITERATIONS
 ...... END OF RHF CALCULATION ......
 CPU     0: STEP CPU TIME=   276.60 TOTAL CPU TIME=      18600.2 (    310.0 MIN)
 TOTAL WALL CLOCK TIME=      40168.2 SECONDS, CPU UTILIZATION IS    46.31%

 --------------------------   -----------------------------
 RHF-MP2 ENERGY CALCULATION   PROGRAM WRITTEN BY K.ISHIMURA
 --------------------------   -----------------------------
 NUMBER OF OCCUPIED ORBITALS            =  168
 NUMBER OF CORRELATED OCCUPIED ORBITALS =  117
 NUMBER OF VIRTUAL ORBITALS             =  504
 NUMBER OF BASIS FUNCTIONS              =  727
 NUMBER OF BASIS SHELLS                 =  226
 AO-TRANSFORMED INTEGRAL THRESHOLD      = 1.00E-12
 HALF-TRANSFORMED INTEGRAL THRESHOLD    = 3.10E-14

 NUMBER OF REDUNDANT MOS IN FMO         =   10
 TOTAL DISK REQUIRED (ALL PROCESSORS)=          20234 MBYTES
                  DISK SPACE PER CORE=           1264 MBYTES, USING P=   16
 MEMORY REQUIRED FOR TRANSFORMATION OF 1ST THREE INDICES=    34270233
 MEMORY REQUIRED FOR    4TH INDEX TRANSF. AND MP2 ENERGY=    56673744
 BEGINNING MP2 INTEGRAL TRANSFORMATION...
 BEGINNING    1ST SHELL LOOP...
 BEGINNING   26TH SHELL LOOP...
 BEGINNING   51ST SHELL LOOP...
 BEGINNING   76TH SHELL LOOP...
 BEGINNING  101ST SHELL LOOP...
 BEGINNING  126TH SHELL LOOP...
 BEGINNING  151ST SHELL LOOP...
 BEGINNING  176TH SHELL LOOP...
 BEGINNING  201ST SHELL LOOP...
