‘1SZY_1_fmo_input.inp’ -> ‘/scratch/hazwong/820825/./1SZY_1_fmo_input.inp’
‘rungms’ -> ‘/scratch/hazwong/820825/./rungms’
‘gms-files.csh’ -> ‘/scratch/hazwong/820825/./gms-files.csh’
----- GAMESS execution script 'rungms' -----
This job is running on host gollum051.lsa.umich.edu
under operating system Linux at Fri Dec 6 00:37:13 EST 2019
Available scratch disk space (Kbyte units) at beginning of the job is
Filesystem     1K-blocks   Used Available Use% Mounted on
/dev/sda4      426933580 363708 426569872   1% /scratch
GAMESS temporary binary files will be written to /scratch/hazwong/820825/1SZY_1/usrc
GAMESS supplementary output files will be written to /scratch/hazwong/820825/1SZY_1/src
Copying input file 1SZY_1_fmo_input.inp to your run's scratch directory...
cp 1SZY_1_fmo_input.inp /scratch/hazwong/820825/1SZY_1/usrc/1SZY_1_fmo_input.F05
unset echo
setenv OUTPUT /scratch/hazwong/820825/1SZY_1/usrc/1SZY_1_fmo_input.F06
This is a GDDI run, keeping various output files on local disks
setenv PUNCH /scratch/hazwong/820825/1SZY_1/usrc/1SZY_1_fmo_input.F07
unset echo
 
Assuming a single but multicore node.
 
/export/apps/CentOS7/gamess/src/build//ddikick.x /export/apps/CentOS7/gamess/src/build//gamess.R3.x 1SZY_1_fmo_input -ddi 1 16 gollum051.lsa.umich.edu:cpus=16 -scr /scratch/hazwong/820825/1SZY_1/usrc

 Distributed Data Interface kickoff program.
 Initiating 16 compute processes on 1 nodes to run the following command:
 /export/apps/CentOS7/gamess/src/build//gamess.R3.x 1SZY_1_fmo_input 

          ******************************************************
          *         GAMESS VERSION = 30 SEP 2018 (R3)         *
          *             FROM IOWA STATE UNIVERSITY             *
          * M.W.SCHMIDT, K.K.BALDRIDGE, J.A.BOATZ, S.T.ELBERT, *
          *   M.S.GORDON, J.H.JENSEN, S.KOSEKI, N.MATSUNAGA,   *
          *          K.A.NGUYEN, S.J.SU, T.L.WINDUS,           *
          *       TOGETHER WITH M.DUPUIS, J.A.MONTGOMERY       *
          *         J.COMPUT.CHEM.  14, 1347-1363(1993)        *
          **************** 64 BIT LINUX VERSION ****************

  SINCE 1993, STUDENTS AND POSTDOCS WORKING AT IOWA STATE UNIVERSITY
  AND ALSO IN THEIR VARIOUS JOBS AFTER LEAVING ISU HAVE MADE IMPORTANT
  CONTRIBUTIONS TO THE CODE:
     IVANA ADAMOVIC, CHRISTINE AIKENS, YURI ALEXEEV, POOJA ARORA,
     ANDREY ASADCHEV, ROB BELL, PRADIPTA BANDYOPADHYAY, JONATHAN BENTZ,
     BRETT BODE, KURT BRORSEN, CALEB CARLIN, GALINA CHABAN, WEI CHEN,
     CHEOL HO CHOI, PAUL DAY, ALBERT DEFUSCO, NUWAN DESILVA, TIM DUDLEY,
     DMITRI FEDOROV, ALEX FINDLATER, GRAHAM FLETCHER, MARK FREITAG,
     KURT GLAESEMANN, ANASTASIA GUNINA,
     DAN KEMP, GRANT MERRILL, NORIYUKI MINEZAWA, JONATHAN MULLIN,
     TAKESHI NAGATA, SEAN NEDD, HEATHER NETZLOFF, BOSILJKA NJEGIC, RYAN OLSON,
     MIKE PAK, BUU PHAM,
     SPENCER PRUITT, LUKE ROSKOP, JIM SHOEMAKER, LYUDMILA SLIPCHENKO,
     TONY SMITH, SAROM SOK LEANG, JIE SONG, TETSUYA TAKETSUGU, SIMON WEBB,
     PENG XU, SOOHAENG YOO, FEDERICO ZAHARIEV

  ADDITIONAL CODE HAS BEEN PROVIDED BY COLLABORATORS IN OTHER GROUPS:
     IOWA STATE UNIVERSITY:
          JOE IVANIC, AARON WEST, LAIMUTIS BYTAUTAS, KLAUS RUEDENBERG
     UNIVERSITY OF TOKYO: KIMIHIKO HIRAO, TAKAHITO NAKAJIMA,
          TAKAO TSUNEDA, MUNEAKI KAMIYA, SUSUMU YANAGISAWA,
          KIYOSHI YAGI, MAHITO CHIBA, SEIKEN TOKURA, NAOAKI KAWAKAMI
     UNIVERSITY OF AARHUS: FRANK JENSEN
     UNIVERSITY OF IOWA: VISVALDAS KAIRYS, HUI LI
     NATIONAL INST. OF STANDARDS AND TECHNOLOGY: WALT STEVENS, DAVID GARMER
     UNIVERSITY OF PISA: BENEDETTA MENNUCCI, JACOPO TOMASI
     UNIVERSITY OF MEMPHIS: HENRY KURTZ, PRAKASHAN KORAMBATH
     UNIVERSITY OF ALBERTA: TOBY ZENG, MARIUSZ KLOBUKOWSKI
     UNIVERSITY OF NEW ENGLAND: MARK SPACKMAN
     MIE UNIVERSITY: HIROAKI UMEDA
     NAT. INST. OF ADVANCED INDUSTRIAL SCIENCE AND TECHNOLOGY: KAZUO KITAURA
     MICHIGAN STATE UNIVERSITY:
          KAROL KOWALSKI, MARTA WLOCH, JEFFREY GOUR, JESSE LUTZ,
          WEI LI, JUN SHEN, J. EMILIANO DEUSTUA, PIOTR PIECUCH
     UNIVERSITY OF MINNESOTA:
          YINAN SHU
     UNIVERSITY OF SILESIA: MONIKA MUSIAL, STANISLAW KUCHARSKI
     FACULTES UNIVERSITAIRES NOTRE-DAME DE LA PAIX:
          OLIVIER QUINET, BENOIT CHAMPAGNE
     UNIVERSITY OF CALIFORNIA - SANTA BARBARA: BERNARD KIRTMAN
     INSTITUTE FOR MOLECULAR SCIENCE:
          KAZUYA ISHIMURA, MICHIO KATOUDA, AND SHIGERU NAGASE
     UNIVERSITY OF NOTRE DAME: ANNA POMOGAEVA, DAN CHIPMAN
     KYUSHU UNIVERSITY:
          HARUYUKI NAKANO,
          FENG LONG GU, JACEK KORCHOWIEC, MARCIN MAKOWSKI, AND YURIKO AOKI,
          HIROTOSHI MORI AND EISAKU MIYOSHI
     PENNSYLVANIA STATE UNIVERSITY:
          TZVETELIN IORDANOV, CHET SWALINA, JONATHAN SKONE,
          SHARON HAMMES-SCHIFFER
     WASEDA UNIVERSITY:
          MASATO KOBAYASHI, TOMOKO AKAMA, TSUGUKI TOUMA,
          TAKESHI YOSHIKAWA, YASUHIRO IKABATA, JUNJI SEINO,
          YUYA NAKAJIMA, HIROMI NAKAI
     NANJING UNIVERSITY: SHUHUA LI
     UNIVERSITY OF NEBRASKA:
          PEIFENG SU, DEJUN SI, NANDUN THELLAMUREGE, YALI WANG, HUI LI
     UNIVERSITY OF ZURICH: ROBERTO PEVERATI, KIM BALDRIDGE
     N. COPERNICUS UNIVERSITY AND JACKSON STATE UNIVERSITY:
          MARIA BARYSZ
     UNIVERSITY OF COPENHAGEN: Jimmy Kromann, CASPER STEINMANN
     TOKYO INSTITUTE OF TECHNOLOGY: HIROYA NAKATA
     NAGOYA UNIVERSITY: YOSHIO NISHIMOTO, STEPHAN IRLE
     MOSCOW STATE UNIVERSITY: VLADIMIR MIRONOV


 PARALLEL VERSION RUNNING ON       16 PROCESSORS IN        1 NODES.

 EXECUTION OF GAMESS BEGUN Fri Dec  6 00:37:13 2019

            ECHO OF THE FIRST FEW INPUT CARDS -
 INPUT CARD>!*** FMO 5.3 (Gamess) INPUT generated by Facio 22.1.1.32 ***                    
 INPUT CARD> $CONTRL RUNTYP=ENERGY NPRINT=-5 ISPHER=1 MAXIT=200 $END                        
 INPUT CARD> $SYSTEM MWORDS=63 MEMDDI=63 $END                                               
 INPUT CARD> $GDDI NGROUP=1 $END                                                            
 INPUT CARD> $SCF DIRSCF=.TRUE. NPUNCH=0 $END                                               
 INPUT CARD>!*** NumCPU : 2  MemPerNode : 512MB                                             
 INPUT CARD> $PCM SOLVNT=WATER IEF=-10 ICOMP=2 ICAV=1 IDISP=1 IFMO=-1 $END                  
 INPUT CARD> $PCMCAV RADII=SUAHF $END                                                       
 INPUT CARD> $TESCAV NTSALL=60 $END                                                         
 INPUT CARD> $FMOPRP                                                                        
 INPUT CARD>    NAODIR=200                                                                  
 INPUT CARD>    NGRFMO(1)=1, 1, 0, 0, 0,   0, 0, 0, 0, 0                                    
 INPUT CARD>    IPIEDA=1                                                                    
 INPUT CARD>    NPRINT=9                                                                    
 INPUT CARD> $END                                                                           
 INPUT CARD> $FMO                                                                           
 INPUT CARD>      SCFTYP(1)=RHF                                                             
 INPUT CARD>      MODGRD=10                                                                 
 INPUT CARD>      MODMUL=0                                                                  
 INPUT CARD>      MAXCAO=5                                                                  
 INPUT CARD>      MAXBND=13                                                                 
 INPUT CARD>      NLAYER=1                                                                  
 INPUT CARD>      MPLEVL(1)=2                                                               
 INPUT CARD>      NFRAG=11                                                                  
 INPUT CARD>      ICHARG(1)=-1, -1, -1, -1, -1, -1, -1, -1, -1, -1, 0                       
 INPUT CARD>      FRGNAM(1)=F1, F2, F3, F4, F5, F6, F7, F8, F9, F10, F11                    
 INPUT CARD>      indat(1)=0                                                                
 INPUT CARD>               1   -36   0                                                      
 INPUT CARD>               37   -70   0                                                     
 INPUT CARD>               71   -101   0                                                    
 INPUT CARD>               102   -131   0                                                   
 INPUT CARD>               132   -162   0                                                   
 INPUT CARD>               163   -195   0                                                   
 INPUT CARD>               196   -225   0                                                   
 INPUT CARD>               226   -258   0                                                   
 INPUT CARD>               259   -291   0                                                   
 INPUT CARD>               292   -322   0                                                   
 INPUT CARD>               323   -350   0                                                   
 INPUT CARD> $END                                                                           
 INPUT CARD>                                                                                
 INPUT CARD> $FMOBND                                                                        
 INPUT CARD>   -37   36       6-31G*    MINI                                                
 INPUT CARD>   -71   70       6-31G*    MINI                                                
 INPUT CARD>   -102   101       6-31G*    MINI                                              
 INPUT CARD>   -132   131       6-31G*    MINI                                              
 INPUT CARD>   -163   162       6-31G*    MINI                                              
 INPUT CARD>   -196   195       6-31G*    MINI                                              
 INPUT CARD>   -226   225       6-31G*    MINI                                              
 INPUT CARD>   -259   258       6-31G*    MINI                                              
 INPUT CARD>   -292   291       6-31G*    MINI                                              


 -------------------------------------------------------------
 GROUP DDI, PROGRAMMED BY: RYAN M. OLSON AND DMITRI G. FEDOROV
        FEDOROV ET AL., J. COMPUT. CHEM., 25 (2004) 872.
 -------------------------------------------------------------

 -------------------------------------------------------
 GDDI: INITIALIZATION COMPLETED FOR GROUP     1 OF     1
 WITH    16 PROCESSES BALTYP=DLB   global rank=        0
 -------------------------------------------------------

   63000000 WORDS OF MEMORY AVAILABLE


     RUN TITLE
     ---------
  FMO calculation                                                                

 THE POINT GROUP OF THE MOLECULE IS C1      
 THE ORDER OF THE PRINCIPAL AXIS IS     0

 ATOM   ATOMIC CHARGE
 H.1-1       1.0
 O.1-1       8.0
 C.1-1       6.0
 N.1-1       7.0
 P.1-1      15.0

     ATOMIC BASIS SET LIBRARY
     ----------------
 THE CONTRACTED PRIMITIVE FUNCTIONS HAVE BEEN UNNORMALIZED
 THE CONTRACTED BASIS FUNCTIONS ARE NOW NORMALIZED TO UNITY

  SHELL TYPE  PRIMITIVE        EXPONENT          CONTRACTION COEFFICIENT(S)

 H.1-1     

      1   S       1            18.7311370    0.033494604338
      1   S       2             2.8253944    0.234726953484
      1   S       3             0.6401217    0.813757326146

      2   S       4             0.1612778    1.000000000000

 O.1-1     

      3   S       5          5484.6716600    0.001831074430
      3   S       6           825.2349460    0.013950172200
      3   S       7           188.0469580    0.068445078098
      3   S       8            52.9645000    0.232714335992
      3   S       9            16.8975704    0.470192897984
      3   S      10             5.7996353    0.358520852987

      4   L      11            15.5396162   -0.110777549525    0.070874268231
      4   L      12             3.5999336   -0.148026262701    0.339752839147
      4   L      13             1.0137618    1.130767015354    0.727158577316

      5   L      14             0.2700058    1.000000000000    1.000000000000

      6   D      15             0.8000000    1.000000000000

 C.1-1     

      7   S      16          3047.5248800    0.001834737132
      7   S      17           457.3695180    0.014037322813
      7   S      18           103.9486850    0.068842622264
      7   S      19            29.2101553    0.232184443216
      7   S      20             9.2866630    0.467941348435
      7   S      21             3.1639270    0.362311985337

      8   L      22             7.8682723   -0.119332419775    0.068999066591
      8   L      23             1.8812885   -0.160854151696    0.316423960957
      8   L      24             0.5442493    1.143456437840    0.744308290898

      9   L      25             0.1687145    1.000000000000    1.000000000000

     10   D      26             0.8000000    1.000000000000

 N.1-1     

     11   S      27          4173.5114600    0.001834772160
     11   S      28           627.4579110    0.013994627002
     11   S      29           142.9020930    0.068586551812
     11   S      30            40.2343293    0.232240873040
     11   S      31            12.8202129    0.469069948082
     11   S      32             4.3904370    0.360455199063

     12   L      33            11.6263619   -0.114961181702    0.067579743878
     12   L      34             2.7162798   -0.169117478561    0.323907295893
     12   L      35             0.7722184    1.145851947027    0.740895139755

     13   L      36             0.2120315    1.000000000000    1.000000000000

     14   D      37             0.8000000    1.000000000000

 P.1-1     

     15   S      38         19413.3000000    0.001851598923
     15   S      39          2909.4200000    0.014206191735
     15   S      40           661.3640000    0.069999459277
     15   S      41           185.7590000    0.240078860331
     15   S      42            59.1943000    0.484761717984
     15   S      43            20.0310000    0.335199804993

     16   L      44           339.4780000   -0.002782170105    0.004564616191
     16   L      45            81.0101000   -0.036049901354    0.033693571881
     16   L      46            25.8780000   -0.116631004382    0.139754883368
     16   L      47             9.4522100    0.096832803638    0.339361716786
     16   L      48             3.6656600    0.614418023082    0.450920623685
     16   L      49             1.4674600    0.403798015170    0.238585800889

     17   L      50             2.1562300   -0.252924113863   -0.017765312733
     17   L      51             0.7489970    0.032851844678    0.274058196433
     17   L      52             0.2831450    1.081254761783    0.785421562957

     18   L      53             0.0998317    1.000000000000    1.000000000000

     19   D      54             0.5500000    1.000000000000

 TOTAL NUMBER OF BASIS SET SHELLS             =   19
 NUMBER OF CARTESIAN GAUSSIAN BASIS FUNCTIONS =   66

     $CONTRL OPTIONS
     ---------------
 SCFTYP=RHF          RUNTYP=ENERGY       EXETYP=RUN     
 MPLEVL=       0     CITYP =NONE         CCTYP =NONE         VBTYP =NONE    
 DFTTYP=NONE         TDDFT =NONE    
 MULT  =       1     ICHARG=       0     NZVAR =       0     COORD =UNIQUE  
 PP    =NONE         RELWFN=NONE         LOCAL =NONE         NUMGRD=       F
 ISPHER=       1     NOSYM =       0     MAXIT =     200     UNITS =ANGS    
 PLTORB=       F     MOLPLT=       F     AIMPAC=       F     FRIEND=        
 NPRINT=      -5     IREST =       0     GEOM  =INPUT   
 NORMF =       0     NORMP =       0     ITOL  =      24     ICUT  =      12
 INTTYP=BEST         GRDTYP=BEST         QMTTOL= 1.0E-06

     $SYSTEM OPTIONS
     ---------------
  REPLICATED MEMORY=    63000000 WORDS (ON EVERY NODE).
 DISTRIBUTED MEMDDI=          63 MILLION WORDS IN AGGREGATE,
 MEMDDI DISTRIBUTED OVER  16 PROCESSORS IS     3937500 WORDS/PROCESSOR.
 TOTAL MEMORY REQUESTED ON EACH PROCESSOR=    66937500 WORDS.
 TIMLIM=      525600.00 MINUTES, OR     365.0 DAYS.
 PARALL= T  BALTYP=  DLB     KDIAG=    0  COREFL= F
 MXSEQ2=     300 MXSEQ3=     150  mem10=         0

 ** LOOKING UP INTERNALLY STORED DATA FOR SOLVENT=WATER    **
 OPTICAL AND PHYSICAL CONSTANTS:
 EPS= 78.390; EPSINF=  1.776; RSOLV=  1.385 A; VMOL=  18.070 ML/MOL;
 TCE= .25700E-03 1/K; STEN= 71.810 DYN/CM;  DSTEN=  0.6500; CMF=  1.2770


     -----------------------------------
     INPUT FOR PCM SOLVATION CALCULATION 
     -----------------------------------
     IEF   =     -10
     ICOMP =       2     IFIELD=       0     ICAV  =       1
     IDISP =       1     IREP  =       0     IDP   =       0

     SOLVNT=WATER        EPS   = 78.3900     EPSINF=  1.7760
     VMOL  = 18.0700     TCE   =  0.00025700 STEN  = 71.8100
     DSTEN =  0.6500     CMF   =  1.2770     RSOLV =  1.3850

     NESFP =       0
     OMEGA = 40.0000     RET   =100.0000     FRO   =  0.7000

     TABS  =298.0000     IPRINT=       0

     --------------------------------
     INPUT FOR ITERATIVE C-PCM METHOD 
     --------------------------------
     IPCMIT  =         1     MXDIIS  =        50
     MXITR1  =       200     MXITR2  =       200
     THRES   = 0.100E-09     IMUL    =         3
     RCUT(1) =   20.0000     RCUT(2) =   50.0000

     IDIRCT  =         1
     IMGABI  =         0     RABI    =    4.0000
     IMGASC  =         0     RASC    =   20.0000
     THRSLS  = 0.500E-03     DENSLS  =    0.0100
     IEFPOL  =         1     REFPOL  =    0.0000

     INPUT FOR ISOTROPIC DIELECTRICS
     -------------------------------
     EPS=    78.39

          ----------------
          PROPERTIES INPUT
          ----------------

     MOMENTS            FIELD           POTENTIAL          DENSITY
 IEMOM =       1   IEFLD =       0   IEPOT =       0   IEDEN =       0
 WHERE =COMASS     WHERE =NUCLEI     WHERE =NUCLEI     WHERE =NUCLEI  
 OUTPUT=BOTH       OUTPUT=BOTH       OUTPUT=NONE       OUTPUT=BOTH    
 IEMINT=       0   IEFINT=       0                     IEDINT=       0
                                                       MORB  =       0
          EXTRAPOLATION IN EFFECT
          SOSCF IN EFFECT
 ORBITAL PRINTING OPTION: NPREO=     1 32767     2     1

     -------------------------------
     INTEGRAL TRANSFORMATION OPTIONS
     -------------------------------
     NWORD  =            0
     CUTOFF = 1.0E-10     MPTRAN =       0
     DIRTRF =       T     AOINTS =DUP     

          ----------------------
          INTEGRAL INPUT OPTIONS
          ----------------------
 NOPK  =       1 NORDER=       0 SCHWRZ=       T

 ..... DONE SETTING UP THE RUN .....
 CPU     0: STEP CPU TIME=     0.04 TOTAL CPU TIME=          0.0 (      0.0 MIN)
 TOTAL WALL CLOCK TIME=          0.1 SECONDS, CPU UTILIZATION IS    57.14%
 CPU     0: STEP CPU TIME=     0.00 TOTAL CPU TIME=          0.0 (      0.0 MIN)
 TOTAL WALL CLOCK TIME=          0.1 SECONDS, CPU UTILIZATION IS    57.14%

                    ----------------------
                    AO INTEGRAL TECHNOLOGY
                    ----------------------
     S,P,L SHELL ROTATED AXIS INTEGRALS, REPROGRAMMED BY
        KAZUYA ISHIMURA (IMS) AND JOSE SIERRA (SYNSTAR).
     S,P,D,L SHELL ROTATED AXIS INTEGRALS PROGRAMMED BY
        KAZUYA ISHIMURA (INSTITUTE FOR MOLECULAR SCIENCE).
     S,P,D,F,G SHELL TO TOTAL QUARTET ANGULAR MOMENTUM SUM 5,
        ERIC PROGRAM BY GRAHAM FLETCHER (ELORET AND NASA ADVANCED
        SUPERCOMPUTING DIVISION, AMES RESEARCH CENTER).
     S,P,D,F,G,L SHELL GENERAL RYS QUADRATURE PROGRAMMED BY
        MICHEL DUPUIS (PACIFIC NORTHWEST NATIONAL LABORATORY).
 Setting modorb=1 flag...
 Setting modorb=1 flag...

          -----------------------
          MP2 CONTROL INFORMATION
          -----------------------
          NACORE =        8  NBCORE =        8
          LMOMP2 =        F  AOINTS = DUP     
          METHOD =        2  NWORD  =               0
          MP2PRP =        F  OSPT   = NONE    
          CUTOFF = 1.00E-12  CPHFBS = BASISAO 
          CODE   = IMS     

          NUMBER OF CORE -A-  ORBITALS =     8
          NUMBER OF CORE -B-  ORBITALS =     8
          NUMBER OF OCC. -A-  ORBITALS =    18
          NUMBER OF OCC. -B-  ORBITALS =    18
          NUMBER OF MOLECULAR ORBITALS =    66
          NUMBER OF   BASIS  FUNCTIONS =    66

 CPU     0: STEP CPU TIME=     0.02 TOTAL CPU TIME=          0.1 (      0.0 MIN)
 TOTAL WALL CLOCK TIME=          0.1 SECONDS, CPU UTILIZATION IS    60.00%
 CPU     0: STEP CPU TIME=     0.00 TOTAL CPU TIME=          0.1 (      0.0 MIN)
 TOTAL WALL CLOCK TIME=          0.1 SECONDS, CPU UTILIZATION IS    60.00%

     INPUT FOR CAVITY DEFINITION 
     ---------------------------
   ATOM               COORDINATES                RADIUS       EPS
      1      0.9320     -7.9530     -1.1980      0.0100     78.3900
      2      0.5270     -7.5770     -0.3970      1.5900     78.3900
      3      0.7260     -8.5330      0.6550      1.7700     78.3900
      4      1.8220     -8.6840      0.7910      0.0100     78.3900
      5      0.2830     -9.5120      0.3620      0.0100     78.3900
      6      0.1170     -8.0940      1.9910      1.7700     78.3900
      7      0.2670     -8.8760      2.7690      0.0100     78.3900
      8      0.7750     -6.8790      2.4690      1.5900     78.3900
      9     -0.2050     -6.0270      3.0470      1.7700     78.3900
     10      0.1510     -5.7900      4.0750      0.0100     78.3900
     11     -0.3470     -4.7650      2.3120      1.6800     78.3900
     12     -0.9090     -3.6110      2.7920      1.7700     78.3900
     13     -2.4690     -1.8580      5.3380      1.6800     78.3900
     14     -2.5120     -2.5310      6.0740      0.0100     78.3900
     15     -2.8150     -0.9310      5.5070      0.0100     78.3900
     16     -1.4430     -3.4430      4.0170      1.6800     78.3900
     17     -1.8990     -2.2050      4.1990      1.7700     78.3900
     18     -1.7840     -1.2150      3.2600      1.6800     78.3900
     19     -2.1340     -0.2980      3.4890      0.0100     78.3900
     20     -1.2230     -1.3550      1.9960      1.7700     78.3900
     21     -1.1560     -0.3930      1.2210      1.5900     78.3900
     22     -0.7640     -2.6820      1.7790      1.7700     78.3900
     23     -0.1190     -3.2430      0.6840      1.6800     78.3900
     24      0.1010     -4.4850      1.0410      1.7700     78.3900
     25      0.5810     -5.2510      0.4260      0.0100     78.3900
     26     -1.4910     -6.8060      3.1380      1.7700     78.3900
     27     -2.3840     -6.1570      3.0720      0.0100     78.3900
     28     -1.5090     -7.5310      4.3540      1.5900     78.3900
     29     -2.3360     -8.0260      4.3660      0.0100     78.3900
     30     -1.3790     -7.7340      1.9330      1.7700     78.3900
     31     -1.5390     -7.1640      0.9870      0.0100     78.3900
     32     -2.1810     -8.9390      2.0000      1.5900     78.3900
     33     -3.6740     -8.8920      1.4810      2.1000     78.3900
     34     -3.7150     -8.3260      0.1150      1.5900     78.3900
     35     -4.2790    -10.2300      1.6440      1.5900     78.3900
     36     -4.3990     -7.8890      2.4490      1.5900     78.3900
     37     -4.7090     -8.2900      3.8070      1.7700     78.3900
     38     -3.8080     -8.6590      4.3460      0.0100     78.3900
     39     -5.4490     -9.1210      3.8100      0.0100     78.3900
     40     -5.3040     -7.1280      4.6060      1.7700     78.3900
     41     -5.4570     -7.4070      5.6720      0.0100     78.3900
     42     -4.3970     -5.9910      4.5690      1.5900     78.3900
     43     -5.1520     -4.7920      4.5330      1.7700     78.3900
     44     -4.8400     -4.1940      5.4190      0.0100     78.3900
     45     -4.8860     -4.0030      3.3230      1.6800     78.3900
     46     -5.2120     -2.6860      3.1190      1.7700     78.3900
     47     -6.6720      0.2720      4.2040      1.6800     78.3900
     48     -7.0630      0.0230      5.0870      0.0100     78.3900
     49     -6.8910      1.1660      3.8030      0.0100     78.3900
     50     -5.8540     -1.8840      3.9870      1.6800     78.3900
     51     -6.0380     -0.6540      3.5040      1.7700     78.3900
     52     -5.5810     -0.2610      2.2750      1.6800     78.3900
     53     -5.7950      0.6770      1.9730      0.0100     78.3900
     54     -4.9040     -1.0590      1.3630      1.7700     78.3900
     55     -4.5260     -0.6100      0.2770      1.5900     78.3900
     56     -4.7380     -2.3810      1.8570      1.7700     78.3900
     57     -4.1500     -3.4930      1.2680      1.6800     78.3900
     58     -4.2580     -4.4290      2.1770      1.7700     78.3900
     59     -3.9190     -5.4600      2.0630      0.0100     78.3900
     60     -6.6000     -5.1760      4.6590      1.7700     78.3900
     61     -7.2690     -4.4850      4.1110      0.0100     78.3900
     62     -6.9560     -5.2230      6.0280      1.5900     78.3900
     63     -7.8400     -5.6020      6.0490      0.0100     78.3900
     64     -6.6210     -6.5720      4.0510      1.7700     78.3900
     65     -6.5150     -6.5310      2.9390      0.0100     78.3900
     66     -7.7290     -7.3940      4.4860      1.5900     78.3900
     67     -9.0850     -7.3510      3.6770      2.1000     78.3900
     68     -8.7690     -7.4320      2.2350      1.5900     78.3900
     69     -9.9840     -8.3830      4.2270      1.5900     78.3900
     70     -9.6940     -5.9350      3.9560      1.5900     78.3900
     71    -10.1630     -5.4890      5.2450      1.7700     78.3900
     72     -9.4430     -5.7400      6.0530      0.0100     78.3900
     73    -11.1210     -5.9970      5.4910      0.0100     78.3900
     74    -10.4130     -3.9660      5.2640      1.7700     78.3900
     75    -10.6340     -3.6040      6.2890      0.0100     78.3900
     76     -9.2390     -3.2500      4.7880      1.5900     78.3900
     77     -9.6370     -2.1530      3.9810      1.7700     78.3900
     78     -9.1990     -1.2510      4.4670      0.0100     78.3900
     79     -9.1200     -2.2410      2.5810      1.6800     78.3900
     80     -8.6970     -3.4420      2.0560      1.7700     78.3900
     81     -8.7760     -4.3000      2.7170      0.0100     78.3900
     82     -8.1950     -3.5300      0.8160      1.7700     78.3900
     83     -7.8290     -4.4670      0.3950      0.0100     78.3900
     84     -9.0670     -1.0960      1.7950      1.7700     78.3900
     85     -9.4540     -0.0250      2.2760      1.5900     78.3900
     86     -8.5680     -1.1700      0.5420      1.6800     78.3900
     87     -8.1290     -2.3320      0.0490      1.7700     78.3900
     88     -7.6190     -2.3440     -1.1790      1.6800     78.3900
     89     -7.5500     -1.4630     -1.6540      0.0100     78.3900
     90     -7.2350     -3.1730     -1.5870      0.0100     78.3900
     91    -11.1490     -2.0600      4.0460      1.7700     78.3900
     92    -11.5830     -1.7180      3.0870      0.0100     78.3900
     93    -11.5610     -1.1940      5.0880      1.5900     78.3900
     94    -12.5260     -1.2680      5.1460      0.0100     78.3900
     95    -11.5430     -3.5020      4.3380      1.7700     78.3900
     96    -11.4580     -4.1190      3.4140      0.0100     78.3900
     97    -12.8170     -3.6680      5.0020      1.5900     78.3900
     98    -14.1280     -3.6430      4.1370      2.1000     78.3900
     99    -13.9050     -4.4910      2.9470      1.5900     78.3900
    100    -15.2910     -4.0050      4.9850      1.5900     78.3900
    101    -14.2890     -2.1480      3.6750      1.5900     78.3900
    102    -15.1680     -1.8290      2.5590      1.7700     78.3900
    103    -16.1780     -1.5530      2.9380      0.0100     78.3900
    104    -15.3160     -2.6970      1.8700      0.0100     78.3900
    105    -14.6360     -0.6610      1.6910      1.7700     78.3900
    106    -14.9010      0.3240      2.1410      0.0100     78.3900
    107    -13.1750     -0.7110      1.6110      1.5900     78.3900
    108    -12.7470     -0.5740      0.2660      1.7700     78.3900
    109    -11.9170      0.1690      0.2850      0.0100     78.3900
    110    -12.2120     -1.8490     -0.3010      1.6800     78.3900
    111    -12.1680     -2.9940      0.4660      1.7700     78.3900
    112    -12.6260     -2.9220      1.4560      0.0100     78.3900
    113    -11.6970     -1.8530     -1.5900      1.7700     78.3900
    114    -11.6700     -0.8570     -2.3020      1.5900     78.3900
    115    -11.1770     -3.0530     -2.0060      1.6800     78.3900
    116    -10.9370     -3.1330     -2.9920      0.0100     78.3900
    117    -11.0840     -4.2180     -1.2820      1.7700     78.3900
    118    -10.5170     -5.2000     -1.7570      1.5900     78.3900
    119    -11.6340     -4.1450      0.0360      1.7700     78.3900
    120    -11.5940     -5.0330      0.6640      0.0100     78.3900
    121    -13.9340     -0.0080     -0.4880      1.7700     78.3900
    122    -13.9420     -0.2630     -1.5680      0.0100     78.3900
    123    -13.9620      1.4050     -0.3060      1.5900     78.3900
    124    -13.0500      1.7300     -0.2920      0.0100     78.3900
    125    -15.0940     -0.6970      0.2190      1.7700     78.3900
    126    -15.1070     -1.7660     -0.1030      0.0100     78.3900
    127    -16.3640     -0.0260      0.0490      1.5900     78.3900
    128    -17.6760     -0.8360     -0.2200      2.1000     78.3900
    129    -17.9900     -1.6100      1.0010      1.5900     78.3900
    130    -18.7300      0.0830     -0.7150      1.5900     78.3900
    131    -17.3280     -1.8380     -1.3830      1.5900     78.3900
    132    -18.0770     -3.0770     -1.4920      1.7700     78.3900
    133    -19.0860     -3.0330     -0.9970      0.0100     78.3900
    134    -17.4980     -3.8860     -0.9940      0.0100     78.3900
    135    -18.2840     -3.4800     -2.9600      1.7700     78.3900
    136    -18.7240     -4.4990     -3.0290      0.0100     78.3900
    137    -19.2390     -2.5690     -3.5660      1.5900     78.3900
    138    -18.8720     -2.3210     -4.9180      1.7700     78.3900
    139    -19.7480     -2.6400     -5.5250      0.0100     78.3900
    140    -18.6010     -0.8870     -5.1930      1.6800     78.3900
    141    -18.3990     -0.0040     -4.1530      1.7700     78.3900
    142    -18.4070     -0.4220     -3.1400      0.0100     78.3900
    143    -18.2100      1.3000     -4.3830      1.7700     78.3900
    144    -18.0700      2.0140     -3.5730      0.0100     78.3900
    145    -18.5720     -0.4260     -6.5100      1.7700     78.3900
    146    -18.7800     -1.2200     -7.4400      1.5900     78.3900
    147    -18.3690      0.8860     -6.7550      1.6800     78.3900
    148    -18.2200      1.7470     -5.7360      1.7700     78.3900
    149    -18.0920      3.0420     -6.0120      1.6800     78.3900
    150    -17.9180      3.7220     -5.2990      0.0100     78.3900
    151    -18.0790      3.3410     -6.9660      0.0100     78.3900
    152    -17.6940     -3.2140     -5.2560      1.7700     78.3900
    153    -16.9740     -2.7290     -5.9520      0.0100     78.3900
    154    -18.1490     -4.4400     -5.8090      1.5900     78.3900
    155    -17.4040     -5.0600     -5.7830      0.0100     78.3900
    156    -17.0570     -3.4110     -3.8880      1.7700     78.3900
    157    -16.4860     -2.4970     -3.6010      0.0100     78.3900
    158    -16.2850     -4.6210     -3.7940      1.5900     78.3900
    159    -14.7190     -4.5940     -3.7120      2.1000     78.3900
    160    -14.3320     -4.0230     -2.4100      1.5900     78.3900
    161    -14.2590     -5.9680     -4.0090      1.5900     78.3900
    162    -14.2910     -3.6130     -4.8640      1.5900     78.3900
    163    -14.1130     -4.0540     -6.2250      1.7700     78.3900
    164    -15.0870     -4.3650     -6.6650      0.0100     78.3900
    165    -13.4090     -4.9150     -6.2750      0.0100     78.3900
    166    -13.5390     -2.9270     -7.0920      1.7700     78.3900
    167    -13.3450     -3.2810     -8.1260      0.0100     78.3900
    168    -14.5180     -1.8530     -7.1910      1.5900     78.3900
    169    -13.8540     -0.6030     -7.1640      1.7700     78.3900
    170    -14.1600     -0.0670     -8.0960      0.0100     78.3900
    171    -14.2710      0.1730     -5.9960      1.6800     78.3900
    172    -14.9290      1.8140     -4.6940      1.7700     78.3900
    173    -14.9750      0.6690     -3.9220      1.6800     78.3900
    174    -14.5690     -0.2790     -4.7290      1.7700     78.3900
    175    -14.4730     -1.3310     -4.4550      0.0100     78.3900
    176    -15.1190      4.0570     -5.4200      1.6800     78.3900
    177    -14.6630      3.6300     -6.6010      1.7700     78.3900
    178    -14.5690      4.4040     -7.3680      0.0100     78.3900
    179    -14.3200      2.3940     -6.9830      1.6800     78.3900
    180    -14.4890      1.5240     -5.9720      1.7700     78.3900
    181    -15.2710      3.1560     -4.4190      1.7700     78.3900
    182    -15.7770      3.5630     -3.2390      1.6800     78.3900
    183    -15.7830      2.9510     -2.4490      0.0100     78.3900
    184    -15.9110      4.5410     -3.0700      0.0100     78.3900
    185    -12.3580     -0.8630     -7.1970      1.7700     78.3900
    186    -11.7730     -0.1200     -6.6100      0.0100     78.3900
    187    -11.9070     -0.8740     -8.5380      1.5900     78.3900
    188    -11.0000     -1.2200     -8.5410      0.0100     78.3900
    189    -12.2670     -2.2480     -6.5680      1.7700     78.3900
    190    -12.3950     -2.1530     -5.4630      0.0100     78.3900
    191    -11.0970     -3.0130     -6.9590      1.5900     78.3900
    192     -9.9620     -3.2280     -5.8810      2.1000     78.3900
    193    -10.5820     -3.6660     -4.6160      1.5900     78.3900
    194     -8.9350     -4.1260     -6.4620      1.5900     78.3900
    195     -9.3210     -1.8050     -5.6730      1.5900     78.3900
    196     -8.4960     -1.6290     -4.4960      1.7700     78.3900
    197     -7.6470     -2.3530     -4.4880      0.0100     78.3900
    198     -9.1040     -1.7780     -3.5710      0.0100     78.3900
    199     -7.9110     -0.2190     -4.4430      1.7700     78.3900
    200     -8.7140      0.5410     -4.4300      0.0100     78.3900
    201     -7.1670     -0.0880     -3.1960      1.5900     78.3900
    202     -6.0000      0.7000     -3.4070      1.7700     78.3900
    203     -6.1010      1.5710     -2.7130      0.0100     78.3900
    204     -4.7510     -0.0500     -3.1070      1.6800     78.3900
    205     -4.7460     -1.4250     -3.0460      1.7700     78.3900
    206     -5.6870     -1.9160     -3.3020      0.0100     78.3900
    207     -3.5960      0.6620     -2.8610      1.7700     78.3900
    208     -3.5490      1.8850     -2.9070      1.5900     78.3900
    209     -2.4990     -0.0870     -2.5400      1.6800     78.3900
    210     -1.6640      0.4260     -2.3070      0.0100     78.3900
    211     -2.4360     -1.4560     -2.4190      1.7700     78.3900
    212     -1.3710     -1.9980     -2.1420      1.5900     78.3900
    213     -3.6630     -2.1340     -2.7020      1.7700     78.3900
    214     -3.6780     -3.2190     -2.6540      0.0100     78.3900
    215     -6.0440      1.2020     -4.8330      1.7700     78.3900
    216     -5.0340      1.2710     -5.2930      0.0100     78.3900
    217     -6.6510      2.4730     -4.8510      1.5900     78.3900
    218     -7.4610      2.4620     -4.3220      0.0100     78.3900
    219     -6.8940      0.1390     -5.5340      1.7700     78.3900
    220     -6.2920     -0.7800     -5.7160      0.0100     78.3900
    221     -7.5730      0.5580     -6.7420      1.5900     78.3900
    222     -6.7040      1.1620     -7.9090      2.1000     78.3900
    223     -5.3170      0.6580     -7.7690      1.5900     78.3900
    224     -7.3790      0.8700     -9.1890      1.5900     78.3900
    225     -6.7200      2.7170     -7.6810      1.5900     78.3900
    226     -6.8560      3.7180     -8.7050      1.7700     78.3900
    227     -7.2630      3.3080     -9.6600      0.0100     78.3900
    228     -5.8520      4.1410     -8.9260      0.0100     78.3900
    229     -7.7590      4.8750     -8.2420      1.7700     78.3900
    230     -7.7290      5.7080     -8.9750      0.0100     78.3900
    231     -9.1380      4.4000     -8.1890      1.5900     78.3900
    232     -9.8030      4.9950     -7.0850      1.7700     78.3900
    233    -10.7020      5.5080     -7.4980      0.0100     78.3900
    234    -10.2380      3.9870     -6.1150      1.6800     78.3900
    235    -11.2120      2.9760     -4.4290      1.7700     78.3900
    236    -10.5640      1.9910     -5.1450      1.6800     78.3900
    237     -9.9890      2.6360     -6.1260      1.7700     78.3900
    238     -9.3590      2.1860     -6.8970      0.0100     78.3900
    239    -12.5240      4.1000     -2.8150      1.6800     78.3900
    240    -12.2700      5.2190     -3.4940      1.7700     78.3900
    241    -12.7330      6.1280     -3.0910      0.0100     78.3900
    242    -11.5380      5.3790     -4.6030      1.6800     78.3900
    243    -11.0290      4.2080     -5.0180      1.7700     78.3900
    244    -12.0060      2.9360     -3.2710      1.7700     78.3900
    245    -12.3160      1.8110     -2.6330      1.6800     78.3900
    246    -11.8620      0.9350     -2.8340      0.0100     78.3900
    247    -13.1780      1.7590     -2.1300      0.0100     78.3900
    248     -8.8700      6.0180     -6.4740      1.7700     78.3900
    249     -8.9810      6.0910     -5.3720      0.0100     78.3900
    250     -9.0960      7.2880     -7.0560      1.5900     78.3900
    251     -8.3530      7.8440     -6.7850      0.0100     78.3900
    252     -7.4980      5.4650     -6.8370      1.7700     78.3900
    253     -7.2440      4.6060     -6.1680      0.0100     78.3900
    254     -6.4600      6.4760     -6.8890      1.5900     78.3900
    255     -5.4770      6.6690     -5.6690      2.1000     78.3900
    256     -4.8620      5.3720     -5.3470      1.5900     78.3900
    257     -4.5460      7.7780     -5.9760      1.5900     78.3900
    258     -6.4150      7.0950     -4.4780      1.5900     78.3900
    259     -7.0220      8.4080     -4.4230      1.7700     78.3900
    260     -7.6030      8.6250     -5.3490      0.0100     78.3900
    261     -6.2440      9.1980     -4.3210      0.0100     78.3900
    262     -7.9720      8.5230     -3.2220      1.7700     78.3900
    263     -8.4600      9.5190     -3.1870      0.0100     78.3900
    264     -9.0300      7.5360     -3.3620      1.5900     78.3900
    265     -9.3130      6.9590     -2.1050      1.7700     78.3900
    266    -10.4080      7.0840     -1.9410      0.0100     78.3900
    267     -9.0040      5.5340     -2.0940      1.6800     78.3900
    268     -8.9880      3.3980     -1.6190      1.7700     78.3900
    269     -8.1980      3.5480     -2.7420      1.6800     78.3900
    270     -8.2290      4.8280     -2.9820      1.7700     78.3900
    271     -7.7440      5.3140     -3.8260      0.0100     78.3900
    272    -10.2050      2.4540      0.1690      1.6800     78.3900
    273    -10.5790      3.6950      0.4700      1.7700     78.3900
    274    -11.2390      3.7760      1.3430      0.0100     78.3900
    275    -10.2810      4.8440     -0.1460      1.6800     78.3900
    276     -9.4860      4.6160     -1.2020      1.7700     78.3900
    277     -9.3780      2.2680     -0.8880      1.7700     78.3900
    278     -8.9570      1.0440     -1.2070      1.6800     78.3900
    279     -8.3470      0.8570     -1.9820      0.0100     78.3900
    280     -9.0700      0.3260     -0.5140      0.0100     78.3900
    281     -8.5540      7.7320     -1.0570      1.7700     78.3900
    282     -8.2430      7.0950     -0.2040      0.0100     78.3900
    283     -9.3550      8.8020     -0.5910      1.5900     78.3900
    284     -8.7820      9.3910     -0.0830      0.0100     78.3900
    285     -7.3480      8.2220     -1.8460      1.7700     78.3900
    286     -6.6270      7.3860     -2.0050      0.0100     78.3900
    287     -6.7240      9.4060     -1.3050      1.5900     78.3900
    288     -5.4700      9.2670     -0.3540      2.1000     78.3900
    289     -4.4500      8.4530     -1.0430      1.5900     78.3900
    290     -5.0590     10.6240      0.0710      1.5900     78.3900
    291     -5.9820      8.4540      0.8840      1.5900     78.3900
    292     -6.8940      9.0140      1.8510      1.7700     78.3900
    293     -7.8060      9.4180      1.3620      0.0100     78.3900
    294     -6.4070      9.8440      2.4110      0.0100     78.3900
    295     -7.3310      7.9480      2.8700      1.7700     78.3900
    296     -8.0600      8.3720      3.5940      0.0100     78.3900
    297     -7.9900      6.8350      2.2030      1.5900     78.3900
    298     -7.6290      5.6180      2.8420      1.7700     78.3900
    299     -8.5890      5.1410      3.1500      0.0100     78.3900
    300     -6.8880      4.6850      1.9470      1.6800     78.3900
    301     -6.2580      5.1680      0.8230      1.7700     78.3900
    302     -6.3730      6.2330      0.6330      0.0100     78.3900
    303     -5.5810      4.3600     -0.0010      1.7700     78.3900
    304     -5.0930      4.7250     -0.9030      0.0100     78.3900
    305     -6.7800      3.3340      2.2740      1.7700     78.3900
    306     -7.3090      2.9180      3.3180      1.5900     78.3900
    307     -6.0960      2.5040      1.4560      1.6800     78.3900
    308     -5.5210      2.9800      0.3400      1.7700     78.3900
    309     -4.8620      2.1390     -0.4370      1.6800     78.3900
    310     -4.8140      1.1690     -0.1790      0.0100     78.3900
    311     -4.4330      2.4160     -1.2980      0.0100     78.3900
    312     -6.8330      5.9810      4.0820      1.7700     78.3900
    313     -6.0710      5.2180      4.3320      0.0100     78.3900
    314     -7.6970      6.1540      5.1860      1.5900     78.3900
    315     -7.1400      6.4490      5.9170      0.0100     78.3900
    316     -6.1940      7.3030      3.6650      1.7700     78.3900
    317     -5.3750      7.1120      2.9330      0.0100     78.3900
    318     -5.8100      8.1810      4.7530      1.5900     78.3900
    319     -4.3080      8.1640      5.2320      2.1000     78.3900
    320     -3.4240      8.0880      4.0500      1.5900     78.3900
    321     -4.0640      9.2980      6.1550      1.5900     78.3900
    322     -4.2110      6.8160      6.0300      1.5900     78.3900
    323     -4.9560      6.6240      7.2540      1.7700     78.3900
    324     -6.0480      6.8050      7.1120      0.0100     78.3900
    325     -4.5990      7.3310      8.0390      0.0100     78.3900
    326     -4.7660      5.1960      7.7820      1.7700     78.3900
    327     -5.3040      5.0530      8.7470      0.0100     78.3900
    328     -5.3220      4.2380      6.8320      1.5900     78.3900
    329     -4.4800      3.0880      6.7820      1.7700     78.3900
    330     -5.1350      2.2210      7.0350      0.0100     78.3900
    331     -3.8860      2.8660      5.4310      1.6800     78.3900
    332     -3.8020      3.9050      4.5340      1.7700     78.3900
    333     -4.1900      4.8620      4.8780      0.0100     78.3900
    334     -3.3000      3.7360      3.3060      1.7700     78.3900
    335     -3.2610      4.5430      2.5760      0.0100     78.3900
    336     -3.3840      1.6160      5.0780      1.7700     78.3900
    337     -3.4350      0.6920      5.9040      1.5900     78.3900
    338     -2.8620      1.4250      3.8440      1.6800     78.3900
    339     -2.8240      2.4410      2.9610      1.7700     78.3900
    340     -2.3300      2.2220      1.7440      1.6800     78.3900
    341     -1.9690      1.3140      1.5160      0.0100     78.3900
    342     -2.2220      2.9570      1.0740      0.0100     78.3900
    343     -3.4230      3.2420      7.8660      1.7700     78.3900
    344     -2.4500      2.7890      7.5720      0.0100     78.3900
    345     -3.8830      2.6610      9.0770      1.5900     78.3900
    346     -3.2730      2.9010      9.7980      0.0100     78.3900
    347     -3.3050      4.7590      7.9550      1.7700     78.3900
    348     -2.7170      5.1430      7.0920      0.0100     78.3900
    349     -2.7590      5.2420      9.1960      1.5900     78.3900
    350     -1.8100      5.0240      9.2490      0.0100     78.3900

     ----------------------------
     INPUT FOR TESSERA DEFINITION
     ----------------------------
     NTSALL  =        60     MTHALL  =         4
     MTHAUT  =         0     AUTFRE  =    2.0000
     NTSFRZ  =        60     KEEPSM  =         0
     AREAKP  =   10.0000     BONDRY  =    1.0000
     AREATL  =    0.0100

     SPHERE     INITS       METHOD
          1        60       FIXPVA
          2        60       FIXPVA
          3        60       FIXPVA
          4        60       FIXPVA
          5        60       FIXPVA
          6        60       FIXPVA
          7        60       FIXPVA
          8        60       FIXPVA
          9        60       FIXPVA
         10        60       FIXPVA
         11        60       FIXPVA
         12        60       FIXPVA
         13        60       FIXPVA
         14        60       FIXPVA
         15        60       FIXPVA
         16        60       FIXPVA
         17        60       FIXPVA
         18        60       FIXPVA
         19        60       FIXPVA
         20        60       FIXPVA
         21        60       FIXPVA
         22        60       FIXPVA
         23        60       FIXPVA
         24        60       FIXPVA
         25        60       FIXPVA
         26        60       FIXPVA
         27        60       FIXPVA
         28        60       FIXPVA
         29        60       FIXPVA
         30        60       FIXPVA
         31        60       FIXPVA
         32        60       FIXPVA
         33        60       FIXPVA
         34        60       FIXPVA
         35        60       FIXPVA
         36        60       FIXPVA
         37        60       FIXPVA
         38        60       FIXPVA
         39        60       FIXPVA
         40        60       FIXPVA
         41        60       FIXPVA
         42        60       FIXPVA
         43        60       FIXPVA
         44        60       FIXPVA
         45        60       FIXPVA
         46        60       FIXPVA
         47        60       FIXPVA
         48        60       FIXPVA
         49        60       FIXPVA
         50        60       FIXPVA
         51        60       FIXPVA
         52        60       FIXPVA
         53        60       FIXPVA
         54        60       FIXPVA
         55        60       FIXPVA
         56        60       FIXPVA
         57        60       FIXPVA
         58        60       FIXPVA
         59        60       FIXPVA
         60        60       FIXPVA
         61        60       FIXPVA
         62        60       FIXPVA
         63        60       FIXPVA
         64        60       FIXPVA
         65        60       FIXPVA
         66        60       FIXPVA
         67        60       FIXPVA
         68        60       FIXPVA
         69        60       FIXPVA
         70        60       FIXPVA
         71        60       FIXPVA
         72        60       FIXPVA
         73        60       FIXPVA
         74        60       FIXPVA
         75        60       FIXPVA
         76        60       FIXPVA
         77        60       FIXPVA
         78        60       FIXPVA
         79        60       FIXPVA
         80        60       FIXPVA
         81        60       FIXPVA
         82        60       FIXPVA
         83        60       FIXPVA
         84        60       FIXPVA
         85        60       FIXPVA
         86        60       FIXPVA
         87        60       FIXPVA
         88        60       FIXPVA
         89        60       FIXPVA
         90        60       FIXPVA
         91        60       FIXPVA
         92        60       FIXPVA
         93        60       FIXPVA
         94        60       FIXPVA
         95        60       FIXPVA
         96        60       FIXPVA
         97        60       FIXPVA
         98        60       FIXPVA
         99        60       FIXPVA
        100        60       FIXPVA
        101        60       FIXPVA
        102        60       FIXPVA
        103        60       FIXPVA
        104        60       FIXPVA
        105        60       FIXPVA
        106        60       FIXPVA
        107        60       FIXPVA
        108        60       FIXPVA
        109        60       FIXPVA
        110        60       FIXPVA
        111        60       FIXPVA
        112        60       FIXPVA
        113        60       FIXPVA
        114        60       FIXPVA
        115        60       FIXPVA
        116        60       FIXPVA
        117        60       FIXPVA
        118        60       FIXPVA
        119        60       FIXPVA
        120        60       FIXPVA
        121        60       FIXPVA
        122        60       FIXPVA
        123        60       FIXPVA
        124        60       FIXPVA
        125        60       FIXPVA
        126        60       FIXPVA
        127        60       FIXPVA
        128        60       FIXPVA
        129        60       FIXPVA
        130        60       FIXPVA
        131        60       FIXPVA
        132        60       FIXPVA
        133        60       FIXPVA
        134        60       FIXPVA
        135        60       FIXPVA
        136        60       FIXPVA
        137        60       FIXPVA
        138        60       FIXPVA
        139        60       FIXPVA
        140        60       FIXPVA
        141        60       FIXPVA
        142        60       FIXPVA
        143        60       FIXPVA
        144        60       FIXPVA
        145        60       FIXPVA
        146        60       FIXPVA
        147        60       FIXPVA
        148        60       FIXPVA
        149        60       FIXPVA
        150        60       FIXPVA
        151        60       FIXPVA
        152        60       FIXPVA
        153        60       FIXPVA
        154        60       FIXPVA
        155        60       FIXPVA
        156        60       FIXPVA
        157        60       FIXPVA
        158        60       FIXPVA
        159        60       FIXPVA
        160        60       FIXPVA
        161        60       FIXPVA
        162        60       FIXPVA
        163        60       FIXPVA
        164        60       FIXPVA
        165        60       FIXPVA
        166        60       FIXPVA
        167        60       FIXPVA
        168        60       FIXPVA
        169        60       FIXPVA
        170        60       FIXPVA
        171        60       FIXPVA
        172        60       FIXPVA
        173        60       FIXPVA
        174        60       FIXPVA
        175        60       FIXPVA
        176        60       FIXPVA
        177        60       FIXPVA
        178        60       FIXPVA
        179        60       FIXPVA
        180        60       FIXPVA
        181        60       FIXPVA
        182        60       FIXPVA
        183        60       FIXPVA
        184        60       FIXPVA
        185        60       FIXPVA
        186        60       FIXPVA
        187        60       FIXPVA
        188        60       FIXPVA
        189        60       FIXPVA
        190        60       FIXPVA
        191        60       FIXPVA
        192        60       FIXPVA
        193        60       FIXPVA
        194        60       FIXPVA
        195        60       FIXPVA
        196        60       FIXPVA
        197        60       FIXPVA
        198        60       FIXPVA
        199        60       FIXPVA
        200        60       FIXPVA
        201        60       FIXPVA
        202        60       FIXPVA
        203        60       FIXPVA
        204        60       FIXPVA
        205        60       FIXPVA
        206        60       FIXPVA
        207        60       FIXPVA
        208        60       FIXPVA
        209        60       FIXPVA
        210        60       FIXPVA
        211        60       FIXPVA
        212        60       FIXPVA
        213        60       FIXPVA
        214        60       FIXPVA
        215        60       FIXPVA
        216        60       FIXPVA
        217        60       FIXPVA
        218        60       FIXPVA
        219        60       FIXPVA
        220        60       FIXPVA
        221        60       FIXPVA
        222        60       FIXPVA
        223        60       FIXPVA
        224        60       FIXPVA
        225        60       FIXPVA
        226        60       FIXPVA
        227        60       FIXPVA
        228        60       FIXPVA
        229        60       FIXPVA
        230        60       FIXPVA
        231        60       FIXPVA
        232        60       FIXPVA
        233        60       FIXPVA
        234        60       FIXPVA
        235        60       FIXPVA
        236        60       FIXPVA
        237        60       FIXPVA
        238        60       FIXPVA
        239        60       FIXPVA
        240        60       FIXPVA
        241        60       FIXPVA
        242        60       FIXPVA
        243        60       FIXPVA
        244        60       FIXPVA
        245        60       FIXPVA
        246        60       FIXPVA
        247        60       FIXPVA
        248        60       FIXPVA
        249        60       FIXPVA
        250        60       FIXPVA
        251        60       FIXPVA
        252        60       FIXPVA
        253        60       FIXPVA
        254        60       FIXPVA
        255        60       FIXPVA
        256        60       FIXPVA
        257        60       FIXPVA
        258        60       FIXPVA
        259        60       FIXPVA
        260        60       FIXPVA
        261        60       FIXPVA
        262        60       FIXPVA
        263        60       FIXPVA
        264        60       FIXPVA
        265        60       FIXPVA
        266        60       FIXPVA
        267        60       FIXPVA
        268        60       FIXPVA
        269        60       FIXPVA
        270        60       FIXPVA
        271        60       FIXPVA
        272        60       FIXPVA
        273        60       FIXPVA
        274        60       FIXPVA
        275        60       FIXPVA
        276        60       FIXPVA
        277        60       FIXPVA
        278        60       FIXPVA
        279        60       FIXPVA
        280        60       FIXPVA
        281        60       FIXPVA
        282        60       FIXPVA
        283        60       FIXPVA
        284        60       FIXPVA
        285        60       FIXPVA
        286        60       FIXPVA
        287        60       FIXPVA
        288        60       FIXPVA
        289        60       FIXPVA
        290        60       FIXPVA
        291        60       FIXPVA
        292        60       FIXPVA
        293        60       FIXPVA
        294        60       FIXPVA
        295        60       FIXPVA
        296        60       FIXPVA
        297        60       FIXPVA
        298        60       FIXPVA
        299        60       FIXPVA
        300        60       FIXPVA
        301        60       FIXPVA
        302        60       FIXPVA
        303        60       FIXPVA
        304        60       FIXPVA
        305        60       FIXPVA
        306        60       FIXPVA
        307        60       FIXPVA
        308        60       FIXPVA
        309        60       FIXPVA
        310        60       FIXPVA
        311        60       FIXPVA
        312        60       FIXPVA
        313        60       FIXPVA
        314        60       FIXPVA
        315        60       FIXPVA
        316        60       FIXPVA
        317        60       FIXPVA
        318        60       FIXPVA
        319        60       FIXPVA
        320        60       FIXPVA
        321        60       FIXPVA
        322        60       FIXPVA
        323        60       FIXPVA
        324        60       FIXPVA
        325        60       FIXPVA
        326        60       FIXPVA
        327        60       FIXPVA
        328        60       FIXPVA
        329        60       FIXPVA
        330        60       FIXPVA
        331        60       FIXPVA
        332        60       FIXPVA
        333        60       FIXPVA
        334        60       FIXPVA
        335        60       FIXPVA
        336        60       FIXPVA
        337        60       FIXPVA
        338        60       FIXPVA
        339        60       FIXPVA
        340        60       FIXPVA
        341        60       FIXPVA
        342        60       FIXPVA
        343        60       FIXPVA
        344        60       FIXPVA
        345        60       FIXPVA
        346        60       FIXPVA
        347        60       FIXPVA
        348        60       FIXPVA
        349        60       FIXPVA
        350        60       FIXPVA

     ------------------------------
      FIXPVA TESSELLATION FOR PCM
         PEIFENG SU AND HUI LI
     UNIVERSITY OF NEBRASKA-LINCOLN
     ------------------------------


 PCM DIMENSIONS: MXSP=   350, MXTS=     14000, MEMORY=        143853

     INPUT FOR CAVITY DEFINITION 
     ---------------------------
   ATOM               COORDINATES                RADIUS       EPS
      1      0.9320     -7.9530     -1.1980      0.0100     78.3900
      2      0.5270     -7.5770     -0.3970      1.5900     78.3900
      3      0.7260     -8.5330      0.6550      1.7700     78.3900
      4      1.8220     -8.6840      0.7910      0.0100     78.3900
      5      0.2830     -9.5120      0.3620      0.0100     78.3900
      6      0.1170     -8.0940      1.9910      1.7700     78.3900
      7      0.2670     -8.8760      2.7690      0.0100     78.3900
      8      0.7750     -6.8790      2.4690      1.5900     78.3900
      9     -0.2050     -6.0270      3.0470      1.7700     78.3900
     10      0.1510     -5.7900      4.0750      0.0100     78.3900
     11     -0.3470     -4.7650      2.3120      1.6800     78.3900
     12     -0.9090     -3.6110      2.7920      1.7700     78.3900
     13     -2.4690     -1.8580      5.3380      1.6800     78.3900
     14     -2.5120     -2.5310      6.0740      0.0100     78.3900
     15     -2.8150     -0.9310      5.5070      0.0100     78.3900
     16     -1.4430     -3.4430      4.0170      1.6800     78.3900
     17     -1.8990     -2.2050      4.1990      1.7700     78.3900
     18     -1.7840     -1.2150      3.2600      1.6800     78.3900
     19     -2.1340     -0.2980      3.4890      0.0100     78.3900
     20     -1.2230     -1.3550      1.9960      1.7700     78.3900
     21     -1.1560     -0.3930      1.2210      1.5900     78.3900
     22     -0.7640     -2.6820      1.7790      1.7700     78.3900
     23     -0.1190     -3.2430      0.6840      1.6800     78.3900
     24      0.1010     -4.4850      1.0410      1.7700     78.3900
     25      0.5810     -5.2510      0.4260      0.0100     78.3900
     26     -1.4910     -6.8060      3.1380      1.7700     78.3900
     27     -2.3840     -6.1570      3.0720      0.0100     78.3900
     28     -1.5090     -7.5310      4.3540      1.5900     78.3900
     29     -2.3360     -8.0260      4.3660      0.0100     78.3900
     30     -1.3790     -7.7340      1.9330      1.7700     78.3900
     31     -1.5390     -7.1640      0.9870      0.0100     78.3900
     32     -2.1810     -8.9390      2.0000      1.5900     78.3900
     33     -3.6740     -8.8920      1.4810      2.1000     78.3900
     34     -3.7150     -8.3260      0.1150      1.5900     78.3900
     35     -4.2790    -10.2300      1.6440      1.5900     78.3900
     36     -4.3990     -7.8890      2.4490      1.5900     78.3900
     37     -4.7090     -8.2900      3.8070      1.7700     78.3900
     38     -3.8080     -8.6590      4.3460      0.0100     78.3900
     39     -5.4490     -9.1210      3.8100      0.0100     78.3900
     40     -5.3040     -7.1280      4.6060      1.7700     78.3900
     41     -5.4570     -7.4070      5.6720      0.0100     78.3900
     42     -4.3970     -5.9910      4.5690      1.5900     78.3900
     43     -5.1520     -4.7920      4.5330      1.7700     78.3900
     44     -4.8400     -4.1940      5.4190      0.0100     78.3900
     45     -4.8860     -4.0030      3.3230      1.6800     78.3900
     46     -5.2120     -2.6860      3.1190      1.7700     78.3900
     47     -6.6720      0.2720      4.2040      1.6800     78.3900
     48     -7.0630      0.0230      5.0870      0.0100     78.3900
     49     -6.8910      1.1660      3.8030      0.0100     78.3900
     50     -5.8540     -1.8840      3.9870      1.6800     78.3900
     51     -6.0380     -0.6540      3.5040      1.7700     78.3900
     52     -5.5810     -0.2610      2.2750      1.6800     78.3900
     53     -5.7950      0.6770      1.9730      0.0100     78.3900
     54     -4.9040     -1.0590      1.3630      1.7700     78.3900
     55     -4.5260     -0.6100      0.2770      1.5900     78.3900
     56     -4.7380     -2.3810      1.8570      1.7700     78.3900
     57     -4.1500     -3.4930      1.2680      1.6800     78.3900
     58     -4.2580     -4.4290      2.1770      1.7700     78.3900
     59     -3.9190     -5.4600      2.0630      0.0100     78.3900
     60     -6.6000     -5.1760      4.6590      1.7700     78.3900
     61     -7.2690     -4.4850      4.1110      0.0100     78.3900
     62     -6.9560     -5.2230      6.0280      1.5900     78.3900
     63     -7.8400     -5.6020      6.0490      0.0100     78.3900
     64     -6.6210     -6.5720      4.0510      1.7700     78.3900
     65     -6.5150     -6.5310      2.9390      0.0100     78.3900
     66     -7.7290     -7.3940      4.4860      1.5900     78.3900
     67     -9.0850     -7.3510      3.6770      2.1000     78.3900
     68     -8.7690     -7.4320      2.2350      1.5900     78.3900
     69     -9.9840     -8.3830      4.2270      1.5900     78.3900
     70     -9.6940     -5.9350      3.9560      1.5900     78.3900
     71    -10.1630     -5.4890      5.2450      1.7700     78.3900
     72     -9.4430     -5.7400      6.0530      0.0100     78.3900
     73    -11.1210     -5.9970      5.4910      0.0100     78.3900
     74    -10.4130     -3.9660      5.2640      1.7700     78.3900
     75    -10.6340     -3.6040      6.2890      0.0100     78.3900
     76     -9.2390     -3.2500      4.7880      1.5900     78.3900
     77     -9.6370     -2.1530      3.9810      1.7700     78.3900
     78     -9.1990     -1.2510      4.4670      0.0100     78.3900
     79     -9.1200     -2.2410      2.5810      1.6800     78.3900
     80     -8.6970     -3.4420      2.0560      1.7700     78.3900
     81     -8.7760     -4.3000      2.7170      0.0100     78.3900
     82     -8.1950     -3.5300      0.8160      1.7700     78.3900
     83     -7.8290     -4.4670      0.3950      0.0100     78.3900
     84     -9.0670     -1.0960      1.7950      1.7700     78.3900
     85     -9.4540     -0.0250      2.2760      1.5900     78.3900
     86     -8.5680     -1.1700      0.5420      1.6800     78.3900
     87     -8.1290     -2.3320      0.0490      1.7700     78.3900
     88     -7.6190     -2.3440     -1.1790      1.6800     78.3900
     89     -7.5500     -1.4630     -1.6540      0.0100     78.3900
     90     -7.2350     -3.1730     -1.5870      0.0100     78.3900
     91    -11.1490     -2.0600      4.0460      1.7700     78.3900
     92    -11.5830     -1.7180      3.0870      0.0100     78.3900
     93    -11.5610     -1.1940      5.0880      1.5900     78.3900
     94    -12.5260     -1.2680      5.1460      0.0100     78.3900
     95    -11.5430     -3.5020      4.3380      1.7700     78.3900
     96    -11.4580     -4.1190      3.4140      0.0100     78.3900
     97    -12.8170     -3.6680      5.0020      1.5900     78.3900
     98    -14.1280     -3.6430      4.1370      2.1000     78.3900
     99    -13.9050     -4.4910      2.9470      1.5900     78.3900
    100    -15.2910     -4.0050      4.9850      1.5900     78.3900
    101    -14.2890     -2.1480      3.6750      1.5900     78.3900
    102    -15.1680     -1.8290      2.5590      1.7700     78.3900
    103    -16.1780     -1.5530      2.9380      0.0100     78.3900
    104    -15.3160     -2.6970      1.8700      0.0100     78.3900
    105    -14.6360     -0.6610      1.6910      1.7700     78.3900
    106    -14.9010      0.3240      2.1410      0.0100     78.3900
    107    -13.1750     -0.7110      1.6110      1.5900     78.3900
    108    -12.7470     -0.5740      0.2660      1.7700     78.3900
    109    -11.9170      0.1690      0.2850      0.0100     78.3900
    110    -12.2120     -1.8490     -0.3010      1.6800     78.3900
    111    -12.1680     -2.9940      0.4660      1.7700     78.3900
    112    -12.6260     -2.9220      1.4560      0.0100     78.3900
    113    -11.6970     -1.8530     -1.5900      1.7700     78.3900
    114    -11.6700     -0.8570     -2.3020      1.5900     78.3900
    115    -11.1770     -3.0530     -2.0060      1.6800     78.3900
    116    -10.9370     -3.1330     -2.9920      0.0100     78.3900
    117    -11.0840     -4.2180     -1.2820      1.7700     78.3900
    118    -10.5170     -5.2000     -1.7570      1.5900     78.3900
    119    -11.6340     -4.1450      0.0360      1.7700     78.3900
    120    -11.5940     -5.0330      0.6640      0.0100     78.3900
    121    -13.9340     -0.0080     -0.4880      1.7700     78.3900
    122    -13.9420     -0.2630     -1.5680      0.0100     78.3900
    123    -13.9620      1.4050     -0.3060      1.5900     78.3900
    124    -13.0500      1.7300     -0.2920      0.0100     78.3900
    125    -15.0940     -0.6970      0.2190      1.7700     78.3900
    126    -15.1070     -1.7660     -0.1030      0.0100     78.3900
    127    -16.3640     -0.0260      0.0490      1.5900     78.3900
    128    -17.6760     -0.8360     -0.2200      2.1000     78.3900
    129    -17.9900     -1.6100      1.0010      1.5900     78.3900
    130    -18.7300      0.0830     -0.7150      1.5900     78.3900
    131    -17.3280     -1.8380     -1.3830      1.5900     78.3900
    132    -18.0770     -3.0770     -1.4920      1.7700     78.3900
    133    -19.0860     -3.0330     -0.9970      0.0100     78.3900
    134    -17.4980     -3.8860     -0.9940      0.0100     78.3900
    135    -18.2840     -3.4800     -2.9600      1.7700     78.3900
    136    -18.7240     -4.4990     -3.0290      0.0100     78.3900
    137    -19.2390     -2.5690     -3.5660      1.5900     78.3900
    138    -18.8720     -2.3210     -4.9180      1.7700     78.3900
    139    -19.7480     -2.6400     -5.5250      0.0100     78.3900
    140    -18.6010     -0.8870     -5.1930      1.6800     78.3900
    141    -18.3990     -0.0040     -4.1530      1.7700     78.3900
    142    -18.4070     -0.4220     -3.1400      0.0100     78.3900
    143    -18.2100      1.3000     -4.3830      1.7700     78.3900
    144    -18.0700      2.0140     -3.5730      0.0100     78.3900
    145    -18.5720     -0.4260     -6.5100      1.7700     78.3900
    146    -18.7800     -1.2200     -7.4400      1.5900     78.3900
    147    -18.3690      0.8860     -6.7550      1.6800     78.3900
    148    -18.2200      1.7470     -5.7360      1.7700     78.3900
    149    -18.0920      3.0420     -6.0120      1.6800     78.3900
    150    -17.9180      3.7220     -5.2990      0.0100     78.3900
    151    -18.0790      3.3410     -6.9660      0.0100     78.3900
    152    -17.6940     -3.2140     -5.2560      1.7700     78.3900
    153    -16.9740     -2.7290     -5.9520      0.0100     78.3900
    154    -18.1490     -4.4400     -5.8090      1.5900     78.3900
    155    -17.4040     -5.0600     -5.7830      0.0100     78.3900
    156    -17.0570     -3.4110     -3.8880      1.7700     78.3900
    157    -16.4860     -2.4970     -3.6010      0.0100     78.3900
    158    -16.2850     -4.6210     -3.7940      1.5900     78.3900
    159    -14.7190     -4.5940     -3.7120      2.1000     78.3900
    160    -14.3320     -4.0230     -2.4100      1.5900     78.3900
    161    -14.2590     -5.9680     -4.0090      1.5900     78.3900
    162    -14.2910     -3.6130     -4.8640      1.5900     78.3900
    163    -14.1130     -4.0540     -6.2250      1.7700     78.3900
    164    -15.0870     -4.3650     -6.6650      0.0100     78.3900
    165    -13.4090     -4.9150     -6.2750      0.0100     78.3900
    166    -13.5390     -2.9270     -7.0920      1.7700     78.3900
    167    -13.3450     -3.2810     -8.1260      0.0100     78.3900
    168    -14.5180     -1.8530     -7.1910      1.5900     78.3900
    169    -13.8540     -0.6030     -7.1640      1.7700     78.3900
    170    -14.1600     -0.0670     -8.0960      0.0100     78.3900
    171    -14.2710      0.1730     -5.9960      1.6800     78.3900
    172    -14.9290      1.8140     -4.6940      1.7700     78.3900
    173    -14.9750      0.6690     -3.9220      1.6800     78.3900
    174    -14.5690     -0.2790     -4.7290      1.7700     78.3900
    175    -14.4730     -1.3310     -4.4550      0.0100     78.3900
    176    -15.1190      4.0570     -5.4200      1.6800     78.3900
    177    -14.6630      3.6300     -6.6010      1.7700     78.3900
    178    -14.5690      4.4040     -7.3680      0.0100     78.3900
    179    -14.3200      2.3940     -6.9830      1.6800     78.3900
    180    -14.4890      1.5240     -5.9720      1.7700     78.3900
    181    -15.2710      3.1560     -4.4190      1.7700     78.3900
    182    -15.7770      3.5630     -3.2390      1.6800     78.3900
    183    -15.7830      2.9510     -2.4490      0.0100     78.3900
    184    -15.9110      4.5410     -3.0700      0.0100     78.3900
    185    -12.3580     -0.8630     -7.1970      1.7700     78.3900
    186    -11.7730     -0.1200     -6.6100      0.0100     78.3900
    187    -11.9070     -0.8740     -8.5380      1.5900     78.3900
    188    -11.0000     -1.2200     -8.5410      0.0100     78.3900
    189    -12.2670     -2.2480     -6.5680      1.7700     78.3900
    190    -12.3950     -2.1530     -5.4630      0.0100     78.3900
    191    -11.0970     -3.0130     -6.9590      1.5900     78.3900
    192     -9.9620     -3.2280     -5.8810      2.1000     78.3900
    193    -10.5820     -3.6660     -4.6160      1.5900     78.3900
    194     -8.9350     -4.1260     -6.4620      1.5900     78.3900
    195     -9.3210     -1.8050     -5.6730      1.5900     78.3900
    196     -8.4960     -1.6290     -4.4960      1.7700     78.3900
    197     -7.6470     -2.3530     -4.4880      0.0100     78.3900
    198     -9.1040     -1.7780     -3.5710      0.0100     78.3900
    199     -7.9110     -0.2190     -4.4430      1.7700     78.3900
    200     -8.7140      0.5410     -4.4300      0.0100     78.3900
    201     -7.1670     -0.0880     -3.1960      1.5900     78.3900
    202     -6.0000      0.7000     -3.4070      1.7700     78.3900
    203     -6.1010      1.5710     -2.7130      0.0100     78.3900
    204     -4.7510     -0.0500     -3.1070      1.6800     78.3900
    205     -4.7460     -1.4250     -3.0460      1.7700     78.3900
    206     -5.6870     -1.9160     -3.3020      0.0100     78.3900
    207     -3.5960      0.6620     -2.8610      1.7700     78.3900
    208     -3.5490      1.8850     -2.9070      1.5900     78.3900
    209     -2.4990     -0.0870     -2.5400      1.6800     78.3900
    210     -1.6640      0.4260     -2.3070      0.0100     78.3900
    211     -2.4360     -1.4560     -2.4190      1.7700     78.3900
    212     -1.3710     -1.9980     -2.1420      1.5900     78.3900
    213     -3.6630     -2.1340     -2.7020      1.7700     78.3900
    214     -3.6780     -3.2190     -2.6540      0.0100     78.3900
    215     -6.0440      1.2020     -4.8330      1.7700     78.3900
    216     -5.0340      1.2710     -5.2930      0.0100     78.3900
    217     -6.6510      2.4730     -4.8510      1.5900     78.3900
    218     -7.4610      2.4620     -4.3220      0.0100     78.3900
    219     -6.8940      0.1390     -5.5340      1.7700     78.3900
    220     -6.2920     -0.7800     -5.7160      0.0100     78.3900
    221     -7.5730      0.5580     -6.7420      1.5900     78.3900
    222     -6.7040      1.1620     -7.9090      2.1000     78.3900
    223     -5.3170      0.6580     -7.7690      1.5900     78.3900
    224     -7.3790      0.8700     -9.1890      1.5900     78.3900
    225     -6.7200      2.7170     -7.6810      1.5900     78.3900
    226     -6.8560      3.7180     -8.7050      1.7700     78.3900
    227     -7.2630      3.3080     -9.6600      0.0100     78.3900
    228     -5.8520      4.1410     -8.9260      0.0100     78.3900
    229     -7.7590      4.8750     -8.2420      1.7700     78.3900
    230     -7.7290      5.7080     -8.9750      0.0100     78.3900
    231     -9.1380      4.4000     -8.1890      1.5900     78.3900
    232     -9.8030      4.9950     -7.0850      1.7700     78.3900
    233    -10.7020      5.5080     -7.4980      0.0100     78.3900
    234    -10.2380      3.9870     -6.1150      1.6800     78.3900
    235    -11.2120      2.9760     -4.4290      1.7700     78.3900
    236    -10.5640      1.9910     -5.1450      1.6800     78.3900
    237     -9.9890      2.6360     -6.1260      1.7700     78.3900
    238     -9.3590      2.1860     -6.8970      0.0100     78.3900
    239    -12.5240      4.1000     -2.8150      1.6800     78.3900
    240    -12.2700      5.2190     -3.4940      1.7700     78.3900
    241    -12.7330      6.1280     -3.0910      0.0100     78.3900
    242    -11.5380      5.3790     -4.6030      1.6800     78.3900
    243    -11.0290      4.2080     -5.0180      1.7700     78.3900
    244    -12.0060      2.9360     -3.2710      1.7700     78.3900
    245    -12.3160      1.8110     -2.6330      1.6800     78.3900
    246    -11.8620      0.9350     -2.8340      0.0100     78.3900
    247    -13.1780      1.7590     -2.1300      0.0100     78.3900
    248     -8.8700      6.0180     -6.4740      1.7700     78.3900
    249     -8.9810      6.0910     -5.3720      0.0100     78.3900
    250     -9.0960      7.2880     -7.0560      1.5900     78.3900
    251     -8.3530      7.8440     -6.7850      0.0100     78.3900
    252     -7.4980      5.4650     -6.8370      1.7700     78.3900
    253     -7.2440      4.6060     -6.1680      0.0100     78.3900
    254     -6.4600      6.4760     -6.8890      1.5900     78.3900
    255     -5.4770      6.6690     -5.6690      2.1000     78.3900
    256     -4.8620      5.3720     -5.3470      1.5900     78.3900
    257     -4.5460      7.7780     -5.9760      1.5900     78.3900
    258     -6.4150      7.0950     -4.4780      1.5900     78.3900
    259     -7.0220      8.4080     -4.4230      1.7700     78.3900
    260     -7.6030      8.6250     -5.3490      0.0100     78.3900
    261     -6.2440      9.1980     -4.3210      0.0100     78.3900
    262     -7.9720      8.5230     -3.2220      1.7700     78.3900
    263     -8.4600      9.5190     -3.1870      0.0100     78.3900
    264     -9.0300      7.5360     -3.3620      1.5900     78.3900
    265     -9.3130      6.9590     -2.1050      1.7700     78.3900
    266    -10.4080      7.0840     -1.9410      0.0100     78.3900
    267     -9.0040      5.5340     -2.0940      1.6800     78.3900
    268     -8.9880      3.3980     -1.6190      1.7700     78.3900
    269     -8.1980      3.5480     -2.7420      1.6800     78.3900
    270     -8.2290      4.8280     -2.9820      1.7700     78.3900
    271     -7.7440      5.3140     -3.8260      0.0100     78.3900
    272    -10.2050      2.4540      0.1690      1.6800     78.3900
    273    -10.5790      3.6950      0.4700      1.7700     78.3900
    274    -11.2390      3.7760      1.3430      0.0100     78.3900
    275    -10.2810      4.8440     -0.1460      1.6800     78.3900
    276     -9.4860      4.6160     -1.2020      1.7700     78.3900
    277     -9.3780      2.2680     -0.8880      1.7700     78.3900
    278     -8.9570      1.0440     -1.2070      1.6800     78.3900
    279     -8.3470      0.8570     -1.9820      0.0100     78.3900
    280     -9.0700      0.3260     -0.5140      0.0100     78.3900
    281     -8.5540      7.7320     -1.0570      1.7700     78.3900
    282     -8.2430      7.0950     -0.2040      0.0100     78.3900
    283     -9.3550      8.8020     -0.5910      1.5900     78.3900
    284     -8.7820      9.3910     -0.0830      0.0100     78.3900
    285     -7.3480      8.2220     -1.8460      1.7700     78.3900
    286     -6.6270      7.3860     -2.0050      0.0100     78.3900
    287     -6.7240      9.4060     -1.3050      1.5900     78.3900
    288     -5.4700      9.2670     -0.3540      2.1000     78.3900
    289     -4.4500      8.4530     -1.0430      1.5900     78.3900
    290     -5.0590     10.6240      0.0710      1.5900     78.3900
    291     -5.9820      8.4540      0.8840      1.5900     78.3900
    292     -6.8940      9.0140      1.8510      1.7700     78.3900
    293     -7.8060      9.4180      1.3620      0.0100     78.3900
    294     -6.4070      9.8440      2.4110      0.0100     78.3900
    295     -7.3310      7.9480      2.8700      1.7700     78.3900
    296     -8.0600      8.3720      3.5940      0.0100     78.3900
    297     -7.9900      6.8350      2.2030      1.5900     78.3900
    298     -7.6290      5.6180      2.8420      1.7700     78.3900
    299     -8.5890      5.1410      3.1500      0.0100     78.3900
    300     -6.8880      4.6850      1.9470      1.6800     78.3900
    301     -6.2580      5.1680      0.8230      1.7700     78.3900
    302     -6.3730      6.2330      0.6330      0.0100     78.3900
    303     -5.5810      4.3600     -0.0010      1.7700     78.3900
    304     -5.0930      4.7250     -0.9030      0.0100     78.3900
    305     -6.7800      3.3340      2.2740      1.7700     78.3900
    306     -7.3090      2.9180      3.3180      1.5900     78.3900
    307     -6.0960      2.5040      1.4560      1.6800     78.3900
    308     -5.5210      2.9800      0.3400      1.7700     78.3900
    309     -4.8620      2.1390     -0.4370      1.6800     78.3900
    310     -4.8140      1.1690     -0.1790      0.0100     78.3900
    311     -4.4330      2.4160     -1.2980      0.0100     78.3900
    312     -6.8330      5.9810      4.0820      1.7700     78.3900
    313     -6.0710      5.2180      4.3320      0.0100     78.3900
    314     -7.6970      6.1540      5.1860      1.5900     78.3900
    315     -7.1400      6.4490      5.9170      0.0100     78.3900
    316     -6.1940      7.3030      3.6650      1.7700     78.3900
    317     -5.3750      7.1120      2.9330      0.0100     78.3900
    318     -5.8100      8.1810      4.7530      1.5900     78.3900
    319     -4.3080      8.1640      5.2320      2.1000     78.3900
    320     -3.4240      8.0880      4.0500      1.5900     78.3900
    321     -4.0640      9.2980      6.1550      1.5900     78.3900
    322     -4.2110      6.8160      6.0300      1.5900     78.3900
    323     -4.9560      6.6240      7.2540      1.7700     78.3900
    324     -6.0480      6.8050      7.1120      0.0100     78.3900
    325     -4.5990      7.3310      8.0390      0.0100     78.3900
    326     -4.7660      5.1960      7.7820      1.7700     78.3900
    327     -5.3040      5.0530      8.7470      0.0100     78.3900
[...]
  13 12  0    -2715.4942876507     0.0000000018   0.000000088   0.000000048     1342779556  264842472
  14 13  0    -2715.4942876483     0.0000000024   0.000000055   0.000000020     1174516486  266233825

          -----------------
          DENSITY CONVERGED
          -----------------
     TIME TO FORM FOCK OPERATORS=     106.3 SECONDS (       7.6 SEC/ITER)
     FOCK TIME ON FIRST ITERATION=      12.8, LAST ITERATION=       3.9
     TIME TO SOLVE SCF EQUATIONS=       1.4 SECONDS (       0.1 SEC/ITER)

 FINAL RHF ENERGY IS    -2715.4942876483 AFTER  14 ITERATIONS
 ...... END OF RHF CALCULATION ......
 CPU     0: STEP CPU TIME=   194.86 TOTAL CPU TIME=      17377.8 (    289.6 MIN)
 TOTAL WALL CLOCK TIME=      38533.5 SECONDS, CPU UTILIZATION IS    45.10%

 --------------------------   -----------------------------
 RHF-MP2 ENERGY CALCULATION   PROGRAM WRITTEN BY K.ISHIMURA
 --------------------------   -----------------------------
 NUMBER OF OCCUPIED ORBITALS            =  164
 NUMBER OF CORRELATED OCCUPIED ORBITALS =  114
 NUMBER OF VIRTUAL ORBITALS             =  483
 NUMBER OF BASIS FUNCTIONS              =  695
 NUMBER OF BASIS SHELLS                 =  216
 AO-TRANSFORMED INTEGRAL THRESHOLD      = 1.00E-12
 HALF-TRANSFORMED INTEGRAL THRESHOLD    = 3.68E-14

 NUMBER OF REDUNDANT MOS IN FMO         =    5
 TOTAL DISK REQUIRED (ALL PROCESSORS)=          17603 MBYTES
                  DISK SPACE PER CORE=           1100 MBYTES, USING P=   16
 MEMORY REQUIRED FOR TRANSFORMATION OF 1ST THREE INDICES=    31360206
 MEMORY REQUIRED FOR    4TH INDEX TRANSF. AND MP2 ENERGY=    56587516
 BEGINNING MP2 INTEGRAL TRANSFORMATION...
 BEGINNING    1ST SHELL LOOP...
 BEGINNING   26TH SHELL LOOP...
 BEGINNING   51ST SHELL LOOP...
 BEGINNING   76TH SHELL LOOP...
 BEGINNING  101ST SHELL LOOP...
 BEGINNING  126TH SHELL LOOP...
 BEGINNING  151ST SHELL LOOP...
 BEGINNING  176TH SHELL LOOP...
 BEGINNING  201ST SHELL LOOP...

 RESULTS OF MOLLER-PLESSET 2ND ORDER CORRECTION ARE
               E(0)=     -2715.4942876483
               E(1)=         0.0
               E(2)=        -6.1179671404
             E(MP2)=     -2721.6122547886
 SPIN-COMPONENT-SCALED MP2 RESULTS ARE
              E(2S)=        -4.4247748225
              E(2T)=        -1.6931923179
             E(2ST)=        -5.8741272263 = 6/5 * E(2S) + 1/3 * E(2T)
            SCS-MP2=     -2721.3684148745

          ---------------------
          ELECTROSTATIC MOMENTS
          ---------------------

 POINT   1           X           Y           Z (BOHR)    CHARGE
               -16.348028    0.324630   -1.059322       -2.00 (A.U.)
         DX          DY          DZ         /D/  (DEBYE)
    -8.281049   16.128357   65.615432   68.074111

 Atomic populations
     I    Z      Q
     1   6.0   5.9871762
     2   1.0   0.8163495
     3   1.0   0.7951325
     4   6.0   5.8759762
     5   1.0   0.7445900
     6   8.0   8.8111779
     7   6.0   5.5788115
     8   1.0   0.7479363
     9   7.0   7.8321846
    10   6.0   5.7858368
    11   1.0   0.7196376
    12   6.0   4.8876331
    13   8.0   8.7131787
    14   7.0   7.9430893
    15   1.0   0.5390725
    16   6.0   5.1073113
    17   8.0   8.6861977
    18   6.0   6.4271867
    19   1.0   0.7389365
    20   6.0   5.8869757
    21   1.0   0.7585528
    22   8.0   8.7876897
    23   1.0   0.5027025
    24   6.0   5.8118327
    25   1.0   0.7928069
    26   8.0   8.7756831
    27  15.0  13.3842186
    28   8.0   8.9252425
    29   8.0   8.9071718
    30   8.0   8.9606972
    31   5.0   5.3725078
    32   1.0   0.8139970
    33   1.0   0.7700904
    34   6.0   5.9132982
    35   1.0   0.7660237
    36   8.0   8.7229019
    37   6.0   5.6031478
    38   1.0   0.7491606
    39   7.0   7.7896933
    40   6.0   5.9369818
    41   7.0   7.5953736
    42   6.0   5.7113695
    43   1.0   0.6974557
    44   7.0   7.6889472
    45   6.0   5.7304247
    46   1.0   0.7711799
    47   7.0   7.6722175
    48   6.0   5.3039988
    49   6.0   5.3377654
    50   7.0   7.9729360
    51   1.0   0.5684183
    52   1.0   0.5651566
    53   6.0   5.8822502
    54   1.0   0.7475799
    55   8.0   8.8449944
    56   1.0   0.4933985
    57   6.0   5.8642783
    58   1.0   0.7391270
    59   8.0   8.7821666
    60  15.0  13.3640484
    61   8.0   8.9348349
    62   8.0   8.8881146
    63   8.0   8.7677801
    64   1.0   0.4073925
 Redoing 1e ESP:                    -1

  iFrag=      7 jFrag=      6 EFMOc= -2833.659957503

  iFrag=      7 jFrag=      6 EFMOu= -2827.541990363 Tr= 0.000882672

 I,J=       8       4 Ees_I(J)=  -11.986 Ees_J(I)=  -12.715 Ees_IJ=  -24.702

 energy of the separated dimer    8    4, L1=  710 is     -2812.566336252

 CPU     0: STEP CPU TIME=   234.29 TOTAL CPU TIME=      17612.1 (    293.5 MIN)
 TOTAL WALL CLOCK TIME=      39011.7 SECONDS, CPU UTILIZATION IS    45.15%

 RHF      dimer      8      4 corr= MP2        , LL1=   710 ID=            21

          -----------------------
          MP2 CONTROL INFORMATION
          -----------------------
          NACORE =       50  NBCORE =       50
          LMOMP2 =        F  AOINTS = DUP     
          METHOD =        2  NWORD  =               0
          MP2PRP =        F  OSPT   = NONE    
          CUTOFF = 1.00E-12  CPHFBS = BASISAO 
          CODE   = IMS     

          NUMBER OF CORE -A-  ORBITALS =    50
          NUMBER OF CORE -B-  ORBITALS =    50
          NUMBER OF OCC. -A-  ORBITALS =   164
          NUMBER OF OCC. -B-  ORBITALS =   164
          NUMBER OF MOLECULAR ORBITALS =   710
          NUMBER OF   BASIS  FUNCTIONS =   710


 AO spaces for     8     4     0 n-mer: L1=   710, L0=   666

 DIRECT SCF CALCULATION, SCHWRZ=T   FDIFF=T,  DIRTHR=  0.00E+00 NITDIR=10

                                                                                   NONZERO     BLOCKS
 ITER EX DEM     TOTAL ENERGY        E CHANGE  DENSITY CHANGE     ORB. GRAD      INTEGRALS    SKIPPED
   1  0  0    -2704.1216245068 -2704.1216245068   0.062065983   0.000000000     3388945981  263739082
          ---------------START SECOND ORDER SCF---------------
   2  1  0    -2704.1285147386    -0.0068902318   0.017593226   0.001018470     3004874328  270325502
   3  2  0    -2704.1290246681    -0.0005099295   0.009499891   0.000329092     2802673093  272559889
   4  3  0    -2704.1291287655    -0.0001040974   0.001147823   0.000307972     2696804214  273545965
   5  4  0    -2704.1291482684    -0.0000195029   0.000580049   0.000074073     2503035686  275430165
   6  5  0    -2704.1291498694    -0.0000016010   0.000183625   0.000024864     2326902721  276962224
   7  6  0    -2704.1291485307     0.0000013387   0.000060770   0.000015691     2183216973  278272457
   8  7  0    -2704.1291504988    -0.0000019682   0.000014557   0.000005940     1996637363  279933116
   9  8  0    -2704.1291506495    -0.0000001506   0.000010307   0.000003237     1884182177  280965484
  10  9  0    -2704.1291507131    -0.0000000637   0.000003542   0.000001363     1759305330  281983564
  11 10  0    -2704.1291506656     0.0000000475   0.000001752   0.000000302     1580515124  283504124
  12 11  0    -2704.1291506480     0.0000000176   0.000000388   0.000000159     1466925267  284444420
  13 12  0    -2704.1291506547    -0.0000000066   0.000000177   0.000000050     1301907675  285823373
  14 13  0    -2704.1291506544     0.0000000002   0.000000065   0.000000020     1174993876  286870608

          -----------------
          DENSITY CONVERGED
          -----------------
     TIME TO FORM FOCK OPERATORS=     100.9 SECONDS (       7.2 SEC/ITER)
     FOCK TIME ON FIRST ITERATION=      12.3, LAST ITERATION=       4.1
     TIME TO SOLVE SCF EQUATIONS=       1.5 SECONDS (       0.1 SEC/ITER)

 FINAL RHF ENERGY IS    -2704.1291506544 AFTER  14 ITERATIONS
 ...... END OF RHF CALCULATION ......
 CPU     0: STEP CPU TIME=   170.91 TOTAL CPU TIME=      17783.0 (    296.4 MIN)
 TOTAL WALL CLOCK TIME=      39365.4 SECONDS, CPU UTILIZATION IS    45.17%

 --------------------------   -----------------------------
 RHF-MP2 ENERGY CALCULATION   PROGRAM WRITTEN BY K.ISHIMURA
 --------------------------   -----------------------------
 NUMBER OF OCCUPIED ORBITALS            =  164
 NUMBER OF CORRELATED OCCUPIED ORBITALS =  114
 NUMBER OF VIRTUAL ORBITALS             =  492
 NUMBER OF BASIS FUNCTIONS              =  710
 NUMBER OF BASIS SHELLS                 =  220
 AO-TRANSFORMED INTEGRAL THRESHOLD      = 1.00E-12
 HALF-TRANSFORMED INTEGRAL THRESHOLD    = 3.48E-14

 NUMBER OF REDUNDANT MOS IN FMO         =   10
 TOTAL DISK REQUIRED (ALL PROCESSORS)=          18318 MBYTES
                  DISK SPACE PER CORE=           1144 MBYTES, USING P=   16
 MEMORY REQUIRED FOR TRANSFORMATION OF 1ST THREE INDICES=    32011653
 MEMORY REQUIRED FOR    4TH INDEX TRANSF. AND MP2 ENERGY=    56844304
 BEGINNING MP2 INTEGRAL TRANSFORMATION...
 BEGINNING    1ST SHELL LOOP...
 BEGINNING   26TH SHELL LOOP...
 BEGINNING   51ST SHELL LOOP...
 BEGINNING   76TH SHELL LOOP...
 BEGINNING  101ST SHELL LOOP...
 BEGINNING  126TH SHELL LOOP...
 BEGINNING  151ST SHELL LOOP...
 BEGINNING  176TH SHELL LOOP...
 BEGINNING  201ST SHELL LOOP...

 RESULTS OF MOLLER-PLESSET 2ND ORDER CORRECTION ARE
               E(0)=     -2704.1291506544
               E(1)=         0.0
               E(2)=        -6.0796635104
             E(MP2)=     -2710.2088141648
 SPIN-COMPONENT-SCALED MP2 RESULTS ARE
              E(2S)=        -4.4012078513
              E(2T)=        -1.6784556591
             E(2ST)=        -5.8409346413 = 6/5 * E(2S) + 1/3 * E(2T)
            SCS-MP2=     -2709.9700852957

          ---------------------
          ELECTROSTATIC MOMENTS
          ---------------------

 POINT   1           X           Y           Z (BOHR)    CHARGE
               -16.348028    0.324630   -1.059322       -2.00 (A.U.)
         DX          DY          DZ         /D/  (DEBYE)
    26.916273  -31.369894   26.949730   49.344138

 Atomic populations
     I    Z      Q
     1   5.0   5.3697332
     2   1.0   0.7718596
     3   1.0   0.7983518
     4   6.0   5.9159437
     5   1.0   0.7707781
     6   8.0   8.7340052
     7   6.0   5.5560563
     8   1.0   0.7619450
     9   7.0   7.8066574
    10   6.0   5.9282297
    11   7.0   7.6164063
    12   6.0   5.6846182
    13   1.0   0.7267270
    14   7.0   7.6703121
    15   6.0   5.7422394
    16   1.0   0.7793802
    17   7.0   7.6676366
    18   6.0   5.3296560
    19   6.0   5.3205369
    20   7.0   8.0494495
    21   1.0   0.5091569
    22   1.0   0.5580982
    23   6.0   5.8865472
    24   1.0   0.7777405
    25   8.0   8.8348481
    26   1.0   0.5052908
    27   6.0   5.8678669
    28   1.0   0.7156327
    29   8.0   8.8022991
    30  15.0  13.4115245
    31   8.0   8.8669239
    32   8.0   8.9029921
    33   8.0   8.9766806
    34   5.0   5.4137719
    35   1.0   0.7691824
    36   1.0   0.7815837
    37   6.0   5.8852197
    38   1.0   0.7826944
    39   8.0   8.7251593
    40   6.0   5.6011277
    41   1.0   0.7369536
    42   7.0   7.8543124
    43   6.0   5.8108532
    44   1.0   0.6984961
    45   6.0   4.8411311
    46   8.0   8.6962290
    47   7.0   7.9297633
    48   1.0   0.5056781
    49   6.0   5.0983953
    50   8.0   8.7201846
    51   6.0   6.4431832
    52   1.0   0.7504975
    53   6.0   5.8659682
    54   1.0   0.7409041
    55   8.0   8.8415501
    56   1.0   0.5117364
    57   6.0   5.8455888
    58   1.0   0.7522867
    59   8.0   8.7585635
    60  15.0  13.4131378
    61   8.0   8.9315073
    62   8.0   8.8914585
    63   8.0   8.9650284
    64   1.0   0.4145510
    65   1.0   0.4071792
 Redoing 1e ESP:                    -1

  iFrag=      8 jFrag=      4 EFMOc= -2818.627027991

  iFrag=      8 jFrag=      4 EFMOu= -2812.547364481 Tr=-0.000813387

 I,J=       9       7 Ees_I(J)=  -14.937 Ees_J(I)=  -14.894 Ees_IJ=  -29.831

 energy of the separated dimer    9    7, L1=  710 is     -2812.578004650

 CPU     0: STEP CPU TIME=   236.02 TOTAL CPU TIME=      18019.1 (    300.3 MIN)
 TOTAL WALL CLOCK TIME=      39836.2 SECONDS, CPU UTILIZATION IS    45.23%

 RHF      dimer      9      7 corr= MP2        , LL1=   710 ID=            22

          -----------------------
          MP2 CONTROL INFORMATION
          -----------------------
          NACORE =       50  NBCORE =       50
          LMOMP2 =        F  AOINTS = DUP     
          METHOD =        2  NWORD  =               0
          MP2PRP =        F  OSPT   = NONE    
          CUTOFF = 1.00E-12  CPHFBS = BASISAO 
          CODE   = IMS     

          NUMBER OF CORE -A-  ORBITALS =    50
          NUMBER OF CORE -B-  ORBITALS =    50
          NUMBER OF OCC. -A-  ORBITALS =   164
          NUMBER OF OCC. -B-  ORBITALS =   164
          NUMBER OF MOLECULAR ORBITALS =   710
          NUMBER OF   BASIS  FUNCTIONS =   710


 AO spaces for     9     7     0 n-mer: L1=   710, L0=   666

 DIRECT SCF CALCULATION, SCHWRZ=T   FDIFF=T,  DIRTHR=  0.00E+00 NITDIR=10

                                                                                   NONZERO     BLOCKS
 ITER EX DEM     TOTAL ENERGY        E CHANGE  DENSITY CHANGE     ORB. GRAD      INTEGRALS    SKIPPED
   1  0  0    -2703.7503582843 -2703.7503582843   0.100763081   0.000000000     3761126730  259575869
          ---------------START SECOND ORDER SCF---------------
   2  1  0    -2713.7436307450    -9.9932724607   0.016097551   0.001076306     3410217391  266454807
   3  2  0    -2713.7439532445    -0.0003224995   0.005105031   0.000446598     3140162487  269594416
   4  3  0    -2713.7439938845    -0.0000406400   0.001549177   0.000307336     2996304634  271042610
   5  4  0    -2713.7439930135     0.0000008710   0.000740663   0.000094877     2797385085  273054398
   6  5  0    -2713.7439965611    -0.0000035476   0.000200258   0.000034093     2606625160  274726516
   7  6  0    -2713.7439959711     0.0000005900   0.000057061   0.000015745     2430458827  276290866
   8  7  0    -2713.7439964332    -0.0000004621   0.000010535   0.000004476     2222741527  278091216
   9  8  0    -2713.7439962908     0.0000001424   0.000005458   0.000002145     2013209213  279988955
  10  9  0    -2713.7439963532    -0.0000000624   0.000002032   0.000000902     1835353668  281384006
  11 10  0    -2713.7439963220     0.0000000311   0.000000749   0.000000228     1639692663  283107703
  12 11  0    -2713.7439963213     0.0000000007   0.000000290   0.000000090     1501743991  284206336
  13 12  0    -2713.7439963186     0.0000000027   0.000000092   0.000000051     1328660792  285675007

          -----------------
          DENSITY CONVERGED
          -----------------
     TIME TO FORM FOCK OPERATORS=     104.2 SECONDS (       8.0 SEC/ITER)
     FOCK TIME ON FIRST ITERATION=      13.3, LAST ITERATION=       4.5
     TIME TO SOLVE SCF EQUATIONS=       1.4 SECONDS (       0.1 SEC/ITER)

 FINAL RHF ENERGY IS    -2713.7439963186 AFTER  13 ITERATIONS
 ...... END OF RHF CALCULATION ......
 CPU     0: STEP CPU TIME=   180.41 TOTAL CPU TIME=      18199.5 (    303.3 MIN)
 TOTAL WALL CLOCK TIME=      40224.6 SECONDS, CPU UTILIZATION IS    45.24%

 --------------------------   -----------------------------
 RHF-MP2 ENERGY CALCULATION   PROGRAM WRITTEN BY K.ISHIMURA
 --------------------------   -----------------------------
 NUMBER OF OCCUPIED ORBITALS            =  164
 NUMBER OF CORRELATED OCCUPIED ORBITALS =  114
 NUMBER OF VIRTUAL ORBITALS             =  492
 NUMBER OF BASIS FUNCTIONS              =  710
 NUMBER OF BASIS SHELLS                 =  220
 AO-TRANSFORMED INTEGRAL THRESHOLD      = 1.00E-12
 HALF-TRANSFORMED INTEGRAL THRESHOLD    = 2.76E-14

 NUMBER OF REDUNDANT MOS IN FMO         =   10
 TOTAL DISK REQUIRED (ALL PROCESSORS)=          18318 MBYTES
                  DISK SPACE PER CORE=           1144 MBYTES, USING P=   16
 MEMORY REQUIRED FOR TRANSFORMATION OF 1ST THREE INDICES=    32011653
 MEMORY REQUIRED FOR    4TH INDEX TRANSF. AND MP2 ENERGY=    56844304
 BEGINNING MP2 INTEGRAL TRANSFORMATION...
 BEGINNING    1ST SHELL LOOP...
 BEGINNING   26TH SHELL LOOP...
 BEGINNING   51ST SHELL LOOP...
 BEGINNING   76TH SHELL LOOP...
 BEGINNING  101ST SHELL LOOP...
 BEGINNING  126TH SHELL LOOP...
 BEGINNING  151ST SHELL LOOP...
 BEGINNING  176TH SHELL LOOP...
 BEGINNING  201ST SHELL LOOP...

 RESULTS OF MOLLER-PLESSET 2ND ORDER CORRECTION ARE
               E(0)=     -2713.7439963186
               E(1)=         0.0
               E(2)=        -6.0810418961
             E(MP2)=     -2719.8250382147
 SPIN-COMPONENT-SCALED MP2 RESULTS ARE
              E(2S)=        -4.4008876620
              E(2T)=        -1.6801542340
             E(2ST)=        -5.8411166058 = 6/5 * E(2S) + 1/3 * E(2T)
            SCS-MP2=     -2719.5851129244

          ---------------------
          ELECTROSTATIC MOMENTS
          ---------------------

 POINT   1           X           Y           Z (BOHR)    CHARGE
               -16.348028    0.324630   -1.059322       -2.00 (A.U.)
         DX          DY          DZ         /D/  (DEBYE)
   -34.735467  -47.892442   35.312399   68.899958

 Atomic populations
     I    Z      Q
     1   5.0   5.3562125
     2   1.0   0.8496242
     3   1.0   0.7645069
     4   6.0   5.9060630
     5   1.0   0.7534732
     6   8.0   8.7229302
     7   6.0   5.5637728
     8   1.0   0.7580556
     9   7.0   7.7993993
    10   6.0   5.9201956
    11   7.0   7.6650596
    12   6.0   5.6784176
    13   1.0   0.7251596
    14   7.0   7.6605916
    15   6.0   5.7471560
    16   1.0   0.7841607
    17   7.0   7.6763200
    18   6.0   5.3240285
    19   6.0   5.2968127
    20   7.0   8.0051775
    21   1.0   0.5116855
    22   1.0   0.5419353
    23   6.0   5.8788744
    24   1.0   0.7804858
    25   8.0   8.8327313
    26   1.0   0.5013378
    27   6.0   5.8652614
    28   1.0   0.7534032
    29   8.0   8.7926980
    30  15.0  13.4008378
    31   8.0   8.8915276
    32   8.0   8.8950889
    33   8.0   8.9718570
    34   5.0   5.3904145
    35   1.0   0.8003473
    36   1.0   0.7755161
    37   6.0   5.9022301
    38   1.0   0.7379128
    39   8.0   8.7805881
    40   6.0   5.5833613
    41   1.0   0.7552090
    42   7.0   7.8325889
    43   6.0   5.7857598
    44   1.0   0.7175585
    45   6.0   4.8872608
    46   8.0   8.7133835
    47   7.0   7.9433122
    48   1.0   0.5391550
    49   6.0   5.1074486
    50   8.0   8.6864069
    51   6.0   6.4268636
    52   1.0   0.7394264
    53   6.0   5.8916055
    54   1.0   0.7597192
    55   8.0   8.8124420
    56   1.0   0.4866629
    57   6.0   5.8101559
    58   1.0   0.7927123
    59   8.0   8.7756673
    60  15.0  13.3836189
    61   8.0   8.9248888
    62   8.0   8.9059332
    63   8.0   8.9603405
    64   1.0   0.4095800
    65   1.0   0.4070888
 Redoing 1e ESP:                    -1

  iFrag=      9 jFrag=      7 EFMOc= -2818.642448938

  iFrag=      9 jFrag=      7 EFMOu= -2812.561407042 Tr= 0.000376618

 I,J=       9       4 Ees_I(J)=  -12.483 Ees_J(I)=  -10.786 Ees_IJ=  -23.269

 energy of the separated dimer    9    4, L1=  710 is     -2812.545612745

 CPU     0: STEP CPU TIME=   260.02 TOTAL CPU TIME=      18459.5 (    307.7 MIN)
 TOTAL WALL CLOCK TIME=      40742.4 SECONDS, CPU UTILIZATION IS    45.31%

 RHF      dimer      9      4 corr= MP2        , LL1=   710 ID=            23

          -----------------------
          MP2 CONTROL INFORMATION
          -----------------------
          NACORE =       50  NBCORE =       50
          LMOMP2 =        F  AOINTS = DUP     
          METHOD =        2  NWORD  =               0
          MP2PRP =        F  OSPT   = NONE    
          CUTOFF = 1.00E-12  CPHFBS = BASISAO 
          CODE   = IMS     

          NUMBER OF CORE -A-  ORBITALS =    50
          NUMBER OF CORE -B-  ORBITALS =    50
          NUMBER OF OCC. -A-  ORBITALS =   164
          NUMBER OF OCC. -B-  ORBITALS =   164
          NUMBER OF MOLECULAR ORBITALS =   710
          NUMBER OF   BASIS  FUNCTIONS =   710

