‘1SZY_4_fmo_input.inp’ -> ‘/scratch/hazwong/820828/./1SZY_4_fmo_input.inp’
‘rungms’ -> ‘/scratch/hazwong/820828/./rungms’
‘gms-files.csh’ -> ‘/scratch/hazwong/820828/./gms-files.csh’
----- GAMESS execution script 'rungms' -----
This job is running on host gollum088.lsa.umich.edu
under operating system Linux at Fri Dec 6 00:37:13 EST 2019
Available scratch disk space (Kbyte units) at beginning of the job is
Filesystem     1K-blocks  Used Available Use% Mounted on
/dev/sda4      426933580 33432 426900148   1% /scratch
GAMESS temporary binary files will be written to /scratch/hazwong/820828/1SZY_4/usrc
GAMESS supplementary output files will be written to /scratch/hazwong/820828/1SZY_4/src
Copying input file 1SZY_4_fmo_input.inp to your run's scratch directory...
cp 1SZY_4_fmo_input.inp /scratch/hazwong/820828/1SZY_4/usrc/1SZY_4_fmo_input.F05
unset echo
This is a GDDI run, keeping various output files on local disks
setenv OUTPUT /scratch/hazwong/820828/1SZY_4/usrc/1SZY_4_fmo_input.F06
setenv PUNCH /scratch/hazwong/820828/1SZY_4/usrc/1SZY_4_fmo_input.F07
unset echo
 
Assuming a single but multicore node.
 
/export/apps/CentOS7/gamess/src/build//ddikick.x /export/apps/CentOS7/gamess/src/build//gamess.R3.x 1SZY_4_fmo_input -ddi 1 16 gollum088.lsa.umich.edu:cpus=16 -scr /scratch/hazwong/820828/1SZY_4/usrc

 Distributed Data Interface kickoff program.
 Initiating 16 compute processes on 1 nodes to run the following command:
 /export/apps/CentOS7/gamess/src/build//gamess.R3.x 1SZY_4_fmo_input 

          ******************************************************
          *         GAMESS VERSION = 30 SEP 2018 (R3)         *
          *             FROM IOWA STATE UNIVERSITY             *
          * M.W.SCHMIDT, K.K.BALDRIDGE, J.A.BOATZ, S.T.ELBERT, *
          *   M.S.GORDON, J.H.JENSEN, S.KOSEKI, N.MATSUNAGA,   *
          *          K.A.NGUYEN, S.J.SU, T.L.WINDUS,           *
          *       TOGETHER WITH M.DUPUIS, J.A.MONTGOMERY       *
          *         J.COMPUT.CHEM.  14, 1347-1363(1993)        *
          **************** 64 BIT LINUX VERSION ****************

  SINCE 1993, STUDENTS AND POSTDOCS WORKING AT IOWA STATE UNIVERSITY
  AND ALSO IN THEIR VARIOUS JOBS AFTER LEAVING ISU HAVE MADE IMPORTANT
  CONTRIBUTIONS TO THE CODE:
     IVANA ADAMOVIC, CHRISTINE AIKENS, YURI ALEXEEV, POOJA ARORA,
     ANDREY ASADCHEV, ROB BELL, PRADIPTA BANDYOPADHYAY, JONATHAN BENTZ,
     BRETT BODE, KURT BRORSEN, CALEB CARLIN, GALINA CHABAN, WEI CHEN,
     CHEOL HO CHOI, PAUL DAY, ALBERT DEFUSCO, NUWAN DESILVA, TIM DUDLEY,
     DMITRI FEDOROV, ALEX FINDLATER, GRAHAM FLETCHER, MARK FREITAG,
     KURT GLAESEMANN, ANASTASIA GUNINA,
     DAN KEMP, GRANT MERRILL, NORIYUKI MINEZAWA, JONATHAN MULLIN,
     TAKESHI NAGATA, SEAN NEDD, HEATHER NETZLOFF, BOSILJKA NJEGIC, RYAN OLSON,
     MIKE PAK, BUU PHAM,
     SPENCER PRUITT, LUKE ROSKOP, JIM SHOEMAKER, LYUDMILA SLIPCHENKO,
     TONY SMITH, SAROM SOK LEANG, JIE SONG, TETSUYA TAKETSUGU, SIMON WEBB,
     PENG XU, SOOHAENG YOO, FEDERICO ZAHARIEV

  ADDITIONAL CODE HAS BEEN PROVIDED BY COLLABORATORS IN OTHER GROUPS:
     IOWA STATE UNIVERSITY:
          JOE IVANIC, AARON WEST, LAIMUTIS BYTAUTAS, KLAUS RUEDENBERG
     UNIVERSITY OF TOKYO: KIMIHIKO HIRAO, TAKAHITO NAKAJIMA,
          TAKAO TSUNEDA, MUNEAKI KAMIYA, SUSUMU YANAGISAWA,
          KIYOSHI YAGI, MAHITO CHIBA, SEIKEN TOKURA, NAOAKI KAWAKAMI
     UNIVERSITY OF AARHUS: FRANK JENSEN
     UNIVERSITY OF IOWA: VISVALDAS KAIRYS, HUI LI
     NATIONAL INST. OF STANDARDS AND TECHNOLOGY: WALT STEVENS, DAVID GARMER
     UNIVERSITY OF PISA: BENEDETTA MENNUCCI, JACOPO TOMASI
     UNIVERSITY OF MEMPHIS: HENRY KURTZ, PRAKASHAN KORAMBATH
     UNIVERSITY OF ALBERTA: TOBY ZENG, MARIUSZ KLOBUKOWSKI
     UNIVERSITY OF NEW ENGLAND: MARK SPACKMAN
     MIE UNIVERSITY: HIROAKI UMEDA
     NAT. INST. OF ADVANCED INDUSTRIAL SCIENCE AND TECHNOLOGY: KAZUO KITAURA
     MICHIGAN STATE UNIVERSITY:
          KAROL KOWALSKI, MARTA WLOCH, JEFFREY GOUR, JESSE LUTZ,
          WEI LI, JUN SHEN, J. EMILIANO DEUSTUA, PIOTR PIECUCH
     UNIVERSITY OF MINNESOTA:
          YINAN SHU
     UNIVERSITY OF SILESIA: MONIKA MUSIAL, STANISLAW KUCHARSKI
     FACULTES UNIVERSITAIRES NOTRE-DAME DE LA PAIX:
          OLIVIER QUINET, BENOIT CHAMPAGNE
     UNIVERSITY OF CALIFORNIA - SANTA BARBARA: BERNARD KIRTMAN
     INSTITUTE FOR MOLECULAR SCIENCE:
          KAZUYA ISHIMURA, MICHIO KATOUDA, AND SHIGERU NAGASE
     UNIVERSITY OF NOTRE DAME: ANNA POMOGAEVA, DAN CHIPMAN
     KYUSHU UNIVERSITY:
          HARUYUKI NAKANO,
          FENG LONG GU, JACEK KORCHOWIEC, MARCIN MAKOWSKI, AND YURIKO AOKI,
          HIROTOSHI MORI AND EISAKU MIYOSHI
     PENNSYLVANIA STATE UNIVERSITY:
          TZVETELIN IORDANOV, CHET SWALINA, JONATHAN SKONE,
          SHARON HAMMES-SCHIFFER
     WASEDA UNIVERSITY:
          MASATO KOBAYASHI, TOMOKO AKAMA, TSUGUKI TOUMA,
          TAKESHI YOSHIKAWA, YASUHIRO IKABATA, JUNJI SEINO,
          YUYA NAKAJIMA, HIROMI NAKAI
     NANJING UNIVERSITY: SHUHUA LI
     UNIVERSITY OF NEBRASKA:
          PEIFENG SU, DEJUN SI, NANDUN THELLAMUREGE, YALI WANG, HUI LI
     UNIVERSITY OF ZURICH: ROBERTO PEVERATI, KIM BALDRIDGE
     N. COPERNICUS UNIVERSITY AND JACKSON STATE UNIVERSITY:
          MARIA BARYSZ
     UNIVERSITY OF COPENHAGEN: Jimmy Kromann, CASPER STEINMANN
     TOKYO INSTITUTE OF TECHNOLOGY: HIROYA NAKATA
     NAGOYA UNIVERSITY: YOSHIO NISHIMOTO, STEPHAN IRLE
     MOSCOW STATE UNIVERSITY: VLADIMIR MIRONOV


 PARALLEL VERSION RUNNING ON       16 PROCESSORS IN        1 NODES.

 EXECUTION OF GAMESS BEGUN Fri Dec  6 00:37:14 2019

            ECHO OF THE FIRST FEW INPUT CARDS -
 INPUT CARD>!*** FMO 5.3 (Gamess) INPUT generated by Facio 22.1.1.32 ***                    
 INPUT CARD> $CONTRL RUNTYP=ENERGY NPRINT=-5 ISPHER=1 MAXIT=200 $END                        
 INPUT CARD> $SYSTEM MWORDS=63 MEMDDI=63 $END                                               
 INPUT CARD> $GDDI NGROUP=1 $END                                                            
 INPUT CARD> $SCF DIRSCF=.TRUE. NPUNCH=0 $END                                               
 INPUT CARD>!*** NumCPU : 2  MemPerNode : 512MB                                             
 INPUT CARD> $PCM SOLVNT=WATER IEF=-10 ICOMP=2 ICAV=1 IDISP=1 IFMO=-1 $END                  
 INPUT CARD> $PCMCAV RADII=SUAHF $END                                                       
 INPUT CARD> $TESCAV NTSALL=60 $END                                                         
 INPUT CARD> $FMOPRP                                                                        
 INPUT CARD>    NAODIR=200                                                                  
 INPUT CARD>    NGRFMO(1)=1, 1, 0, 0, 0,   0, 0, 0, 0, 0                                    
 INPUT CARD>    IPIEDA=1                                                                    
 INPUT CARD>    NPRINT=9                                                                    
 INPUT CARD> $END                                                                           
 INPUT CARD> $FMO                                                                           
 INPUT CARD>      SCFTYP(1)=RHF                                                             
 INPUT CARD>      MODGRD=10                                                                 
 INPUT CARD>      MODMUL=0                                                                  
 INPUT CARD>      MAXCAO=5                                                                  
 INPUT CARD>      MAXBND=13                                                                 
 INPUT CARD>      NLAYER=1                                                                  
 INPUT CARD>      MPLEVL(1)=2                                                               
 INPUT CARD>      NFRAG=11                                                                  
 INPUT CARD>      ICHARG(1)=-1, -1, -1, -1, -1, -1, -1, -1, -1, -1, 0                       
 INPUT CARD>      FRGNAM(1)=F1, F2, F3, F4, F5, F6, F7, F8, F9, F10, F11                    
 INPUT CARD>      indat(1)=0                                                                
 INPUT CARD>               1   -36   0                                                      
 INPUT CARD>               37   -70   0                                                     
 INPUT CARD>               71   -101   0                                                    
 INPUT CARD>               102   -131   0                                                   
 INPUT CARD>               132   -162   0                                                   
 INPUT CARD>               163   -195   0                                                   
 INPUT CARD>               196   -225   0                                                   
 INPUT CARD>               226   -258   0                                                   
 INPUT CARD>               259   -291   0                                                   
 INPUT CARD>               292   -322   0                                                   
 INPUT CARD>               323   -350   0                                                   
 INPUT CARD> $END                                                                           
 INPUT CARD>                                                                                
 INPUT CARD> $FMOBND                                                                        
 INPUT CARD>   -37   36       6-31G*    MINI                                                
 INPUT CARD>   -71   70       6-31G*    MINI                                                
 INPUT CARD>   -102   101       6-31G*    MINI                                              
 INPUT CARD>   -132   131       6-31G*    MINI                                              
 INPUT CARD>   -163   162       6-31G*    MINI                                              
 INPUT CARD>   -196   195       6-31G*    MINI                                              
 INPUT CARD>   -226   225       6-31G*    MINI                                              
 INPUT CARD>   -259   258       6-31G*    MINI                                              
 INPUT CARD>   -292   291       6-31G*    MINI                                              


 -------------------------------------------------------------
 GROUP DDI, PROGRAMMED BY: RYAN M. OLSON AND DMITRI G. FEDOROV
        FEDOROV ET AL., J. COMPUT. CHEM., 25 (2004) 872.
 -------------------------------------------------------------

 -------------------------------------------------------
 GDDI: INITIALIZATION COMPLETED FOR GROUP     1 OF     1
 WITH    16 PROCESSES BALTYP=DLB   global rank=        0
 -------------------------------------------------------

   63000000 WORDS OF MEMORY AVAILABLE


     RUN TITLE
     ---------
  FMO calculation                                                                

 THE POINT GROUP OF THE MOLECULE IS C1      
 THE ORDER OF THE PRINCIPAL AXIS IS     0

 ATOM   ATOMIC CHARGE
 H.1-1       1.0
 O.1-1       8.0
 C.1-1       6.0
 N.1-1       7.0
 P.1-1      15.0

     ATOMIC BASIS SET LIBRARY
     ----------------
 THE CONTRACTED PRIMITIVE FUNCTIONS HAVE BEEN UNNORMALIZED
 THE CONTRACTED BASIS FUNCTIONS ARE NOW NORMALIZED TO UNITY

  SHELL TYPE  PRIMITIVE        EXPONENT          CONTRACTION COEFFICIENT(S)

 H.1-1     

      1   S       1            18.7311370    0.033494604338
      1   S       2             2.8253944    0.234726953484
      1   S       3             0.6401217    0.813757326146

      2   S       4             0.1612778    1.000000000000

 O.1-1     

      3   S       5          5484.6716600    0.001831074430
      3   S       6           825.2349460    0.013950172200
      3   S       7           188.0469580    0.068445078098
      3   S       8            52.9645000    0.232714335992
      3   S       9            16.8975704    0.470192897984
      3   S      10             5.7996353    0.358520852987

      4   L      11            15.5396162   -0.110777549525    0.070874268231
      4   L      12             3.5999336   -0.148026262701    0.339752839147
      4   L      13             1.0137618    1.130767015354    0.727158577316

      5   L      14             0.2700058    1.000000000000    1.000000000000

      6   D      15             0.8000000    1.000000000000

 C.1-1     

      7   S      16          3047.5248800    0.001834737132
      7   S      17           457.3695180    0.014037322813
      7   S      18           103.9486850    0.068842622264
      7   S      19            29.2101553    0.232184443216
      7   S      20             9.2866630    0.467941348435
      7   S      21             3.1639270    0.362311985337

      8   L      22             7.8682723   -0.119332419775    0.068999066591
      8   L      23             1.8812885   -0.160854151696    0.316423960957
      8   L      24             0.5442493    1.143456437840    0.744308290898

      9   L      25             0.1687145    1.000000000000    1.000000000000

     10   D      26             0.8000000    1.000000000000

 N.1-1     

     11   S      27          4173.5114600    0.001834772160
     11   S      28           627.4579110    0.013994627002
     11   S      29           142.9020930    0.068586551812
     11   S      30            40.2343293    0.232240873040
     11   S      31            12.8202129    0.469069948082
     11   S      32             4.3904370    0.360455199063

     12   L      33            11.6263619   -0.114961181702    0.067579743878
     12   L      34             2.7162798   -0.169117478561    0.323907295893
     12   L      35             0.7722184    1.145851947027    0.740895139755

     13   L      36             0.2120315    1.000000000000    1.000000000000

     14   D      37             0.8000000    1.000000000000

 P.1-1     

     15   S      38         19413.3000000    0.001851598923
     15   S      39          2909.4200000    0.014206191735
     15   S      40           661.3640000    0.069999459277
     15   S      41           185.7590000    0.240078860331
     15   S      42            59.1943000    0.484761717984
     15   S      43            20.0310000    0.335199804993

     16   L      44           339.4780000   -0.002782170105    0.004564616191
     16   L      45            81.0101000   -0.036049901354    0.033693571881
     16   L      46            25.8780000   -0.116631004382    0.139754883368
     16   L      47             9.4522100    0.096832803638    0.339361716786
     16   L      48             3.6656600    0.614418023082    0.450920623685
     16   L      49             1.4674600    0.403798015170    0.238585800889

     17   L      50             2.1562300   -0.252924113863   -0.017765312733
     17   L      51             0.7489970    0.032851844678    0.274058196433
     17   L      52             0.2831450    1.081254761783    0.785421562957

     18   L      53             0.0998317    1.000000000000    1.000000000000

     19   D      54             0.5500000    1.000000000000

 TOTAL NUMBER OF BASIS SET SHELLS             =   19
 NUMBER OF CARTESIAN GAUSSIAN BASIS FUNCTIONS =   66

     $CONTRL OPTIONS
     ---------------
 SCFTYP=RHF          RUNTYP=ENERGY       EXETYP=RUN     
 MPLEVL=       0     CITYP =NONE         CCTYP =NONE         VBTYP =NONE    
 DFTTYP=NONE         TDDFT =NONE    
 MULT  =       1     ICHARG=       0     NZVAR =       0     COORD =UNIQUE  
 PP    =NONE         RELWFN=NONE         LOCAL =NONE         NUMGRD=       F
 ISPHER=       1     NOSYM =       0     MAXIT =     200     UNITS =ANGS    
 PLTORB=       F     MOLPLT=       F     AIMPAC=       F     FRIEND=        
 NPRINT=      -5     IREST =       0     GEOM  =INPUT   
 NORMF =       0     NORMP =       0     ITOL  =      24     ICUT  =      12
 INTTYP=BEST         GRDTYP=BEST         QMTTOL= 1.0E-06

     $SYSTEM OPTIONS
     ---------------
  REPLICATED MEMORY=    63000000 WORDS (ON EVERY NODE).
 DISTRIBUTED MEMDDI=          63 MILLION WORDS IN AGGREGATE,
 MEMDDI DISTRIBUTED OVER  16 PROCESSORS IS     3937500 WORDS/PROCESSOR.
 TOTAL MEMORY REQUESTED ON EACH PROCESSOR=    66937500 WORDS.
 TIMLIM=      525600.00 MINUTES, OR     365.0 DAYS.
 PARALL= T  BALTYP=  DLB     KDIAG=    0  COREFL= F
 MXSEQ2=     300 MXSEQ3=     150  mem10=         0

 ** LOOKING UP INTERNALLY STORED DATA FOR SOLVENT=WATER    **
 OPTICAL AND PHYSICAL CONSTANTS:
 EPS= 78.390; EPSINF=  1.776; RSOLV=  1.385 A; VMOL=  18.070 ML/MOL;
 TCE= .25700E-03 1/K; STEN= 71.810 DYN/CM;  DSTEN=  0.6500; CMF=  1.2770


     -----------------------------------
     INPUT FOR PCM SOLVATION CALCULATION 
     -----------------------------------
     IEF   =     -10
     ICOMP =       2     IFIELD=       0     ICAV  =       1
     IDISP =       1     IREP  =       0     IDP   =       0

     SOLVNT=WATER        EPS   = 78.3900     EPSINF=  1.7760
     VMOL  = 18.0700     TCE   =  0.00025700 STEN  = 71.8100
     DSTEN =  0.6500     CMF   =  1.2770     RSOLV =  1.3850

     NESFP =       0
     OMEGA = 40.0000     RET   =100.0000     FRO   =  0.7000

     TABS  =298.0000     IPRINT=       0

     --------------------------------
     INPUT FOR ITERATIVE C-PCM METHOD 
     --------------------------------
     IPCMIT  =         1     MXDIIS  =        50
     MXITR1  =       200     MXITR2  =       200
     THRES   = 0.100E-09     IMUL    =         3
     RCUT(1) =   20.0000     RCUT(2) =   50.0000

     IDIRCT  =         1
     IMGABI  =         0     RABI    =    4.0000
     IMGASC  =         0     RASC    =   20.0000
     THRSLS  = 0.500E-03     DENSLS  =    0.0100
     IEFPOL  =         1     REFPOL  =    0.0000

     INPUT FOR ISOTROPIC DIELECTRICS
     -------------------------------
     EPS=    78.39

          ----------------
          PROPERTIES INPUT
          ----------------

     MOMENTS            FIELD           POTENTIAL          DENSITY
 IEMOM =       1   IEFLD =       0   IEPOT =       0   IEDEN =       0
 WHERE =COMASS     WHERE =NUCLEI     WHERE =NUCLEI     WHERE =NUCLEI  
 OUTPUT=BOTH       OUTPUT=BOTH       OUTPUT=NONE       OUTPUT=BOTH    
 IEMINT=       0   IEFINT=       0                     IEDINT=       0
                                                       MORB  =       0
          EXTRAPOLATION IN EFFECT
          SOSCF IN EFFECT
 ORBITAL PRINTING OPTION: NPREO=     1 32767     2     1

     -------------------------------
     INTEGRAL TRANSFORMATION OPTIONS
     -------------------------------
     NWORD  =            0
     CUTOFF = 1.0E-10     MPTRAN =       0
     DIRTRF =       T     AOINTS =DUP     

          ----------------------
          INTEGRAL INPUT OPTIONS
          ----------------------
 NOPK  =       1 NORDER=       0 SCHWRZ=       T

 ..... DONE SETTING UP THE RUN .....
 CPU     0: STEP CPU TIME=     0.04 TOTAL CPU TIME=          0.0 (      0.0 MIN)
 TOTAL WALL CLOCK TIME=          0.1 SECONDS, CPU UTILIZATION IS    50.00%
 CPU     0: STEP CPU TIME=     0.00 TOTAL CPU TIME=          0.0 (      0.0 MIN)
 TOTAL WALL CLOCK TIME=          0.1 SECONDS, CPU UTILIZATION IS    44.44%

                    ----------------------
                    AO INTEGRAL TECHNOLOGY
                    ----------------------
     S,P,L SHELL ROTATED AXIS INTEGRALS, REPROGRAMMED BY
        KAZUYA ISHIMURA (IMS) AND JOSE SIERRA (SYNSTAR).
     S,P,D,L SHELL ROTATED AXIS INTEGRALS PROGRAMMED BY
        KAZUYA ISHIMURA (INSTITUTE FOR MOLECULAR SCIENCE).
     S,P,D,F,G SHELL TO TOTAL QUARTET ANGULAR MOMENTUM SUM 5,
        ERIC PROGRAM BY GRAHAM FLETCHER (ELORET AND NASA ADVANCED
        SUPERCOMPUTING DIVISION, AMES RESEARCH CENTER).
     S,P,D,F,G,L SHELL GENERAL RYS QUADRATURE PROGRAMMED BY
        MICHEL DUPUIS (PACIFIC NORTHWEST NATIONAL LABORATORY).
 Setting modorb=1 flag...
 Setting modorb=1 flag...

          -----------------------
          MP2 CONTROL INFORMATION
          -----------------------
          NACORE =        8  NBCORE =        8
          LMOMP2 =        F  AOINTS = DUP     
          METHOD =        2  NWORD  =               0
          MP2PRP =        F  OSPT   = NONE    
          CUTOFF = 1.00E-12  CPHFBS = BASISAO 
          CODE   = IMS     

          NUMBER OF CORE -A-  ORBITALS =     8
          NUMBER OF CORE -B-  ORBITALS =     8
          NUMBER OF OCC. -A-  ORBITALS =    18
          NUMBER OF OCC. -B-  ORBITALS =    18
          NUMBER OF MOLECULAR ORBITALS =    66
          NUMBER OF   BASIS  FUNCTIONS =    66

 CPU     0: STEP CPU TIME=     0.03 TOTAL CPU TIME=          0.1 (      0.0 MIN)
 TOTAL WALL CLOCK TIME=          0.1 SECONDS, CPU UTILIZATION IS    58.33%
 CPU     0: STEP CPU TIME=     0.00 TOTAL CPU TIME=          0.1 (      0.0 MIN)
 TOTAL WALL CLOCK TIME=          0.1 SECONDS, CPU UTILIZATION IS    58.33%

     INPUT FOR CAVITY DEFINITION 
     ---------------------------
   ATOM               COORDINATES                RADIUS       EPS
      1     -2.5230     -9.6600     -1.6260      0.0100     78.3900
      2     -2.6100     -9.2190     -0.7600      1.5900     78.3900
      3     -2.3870    -10.2170      0.2470      1.7700     78.3900
      4     -1.3930    -10.6970      0.0880      0.0100     78.3900
      5     -3.1720    -10.9990      0.1560      0.0100     78.3900
      6     -2.4340     -9.6370      1.6620      1.7700     78.3900
      7     -2.2700    -10.4340      2.4230      0.0100     78.3900
      8     -1.3700     -8.6540      1.8330      1.5900     78.3900
      9     -1.8530     -7.5870      2.6380      1.7700     78.3900
     10     -1.1580     -7.4900      3.5040      0.0100     78.3900
     11     -1.8670     -6.3170      1.8980      1.6800     78.3900
     12     -1.9490     -5.0680      2.4500      1.7700     78.3900
     13     -2.1770     -3.0280      5.2340      1.6800     78.3900
     14     -2.1990     -3.6820      5.9900      0.0100     78.3900
     15     -2.1810     -2.0450      5.4430      0.0100     78.3900
     16     -2.0430     -4.7930      3.7640      1.6800     78.3900
     17     -2.0740     -3.4850      4.0020      1.7700     78.3900
     18     -1.9740     -2.5380      3.0170      1.6800     78.3900
     19     -1.9740     -1.5680      3.2890      0.0100     78.3900
     20     -1.8640     -2.7930      1.6550      1.7700     78.3900
     21     -1.7780     -1.8710      0.8370      1.5900     78.3900
     22     -1.8700     -4.1880      1.3860      1.7700     78.3900
     23     -1.7580     -4.8750      0.1790      1.6800     78.3900
     24     -1.7710     -6.1400      0.5340      1.7700     78.3900
     25     -1.7040     -6.9950     -0.1430      0.0100     78.3900
     26     -3.2220     -7.9760      3.1360      1.7700     78.3900
     27     -3.8870     -7.1030      3.2920      0.0100     78.3900
     28     -3.0940     -8.6980      4.3430      1.5900     78.3900
     29     -3.9810     -8.9910      4.5860      0.0100     78.3900
     30     -3.7170     -8.8690      2.0090      1.7700     78.3900
     31     -3.9860     -8.2590      1.1120      0.0100     78.3900
     32     -4.7490     -9.8010      2.3940      1.5900     78.3900
     33     -6.2550     -9.3780      2.2480      2.1000     78.3900
     34     -6.4460     -8.8270      0.8920      1.5900     78.3900
     35     -7.0860    -10.5480      2.6140      1.5900     78.3900
     36     -6.4580     -8.2240      3.3090      1.5900     78.3900
     37     -6.4560     -8.5560      4.7200      1.7700     78.3900
     38     -5.5370     -9.1110      5.0100      0.0100     78.3900
     39     -7.3310     -9.2000      4.9700      0.0100     78.3900
     40     -6.5270     -7.2940      5.5900      1.7700     78.3900
     41     -6.4690     -7.5480      6.6700      0.0100     78.3900
     42     -5.4040     -6.4140      5.2870      1.5900     78.3900
     43     -5.8360     -5.0600      5.3420      1.7700     78.3900
     44     -5.1890     -4.5480      6.0900      0.0100     78.3900
     45     -5.6850     -4.3830      4.0430      1.6800     78.3900
     46     -5.6960     -3.0280      3.8300      1.7700     78.3900
     47     -5.9980      0.2100      5.0240      1.6800     78.3900
     48     -6.1970      0.0710      5.9920      0.0100     78.3900
     49     -6.0490      1.1370      4.6420      0.0100     78.3900
     50     -5.8650     -2.0800      4.7680      1.6800     78.3900
     51     -5.8310     -0.8500      4.2560      1.7700     78.3900
     52     -5.6120     -0.5950      2.9300      1.6800     78.3900
     53     -5.6050      0.3670      2.6300      0.0100     78.3900
     54     -5.4220     -1.5500      1.9410      1.7700     78.3900
     55     -5.2340     -1.2420      0.7590      1.5900     78.3900
     56     -5.4900     -2.8650      2.4740      1.7700     78.3900
     57     -5.3840     -4.0950      1.8400      1.6800     78.3900
     58     -5.5140     -4.9690      2.8090      1.7700     78.3900
     59     -5.4900     -6.0540      2.6920      0.0100     78.3900
     60     -7.2720     -5.0560      5.8230      1.7700     78.3900
     61     -7.8670     -4.2380      5.3690      0.0100     78.3900
     62     -7.3150     -4.9530      7.2300      1.5900     78.3900
     63     -8.2240     -5.1480      7.4970      0.0100     78.3900
     64     -7.7630     -6.4160      5.3620      1.7700     78.3900
     65     -7.9070     -6.3920      4.2530      0.0100     78.3900
     66     -8.9030     -6.9250      6.1130      1.5900     78.3900
     67    -10.2760     -7.0640      5.3360      2.1000     78.3900
     68    -10.0290     -7.3410      3.9090      1.5900     78.3900
     69    -11.1150     -8.0370      6.0730      1.5900     78.3900
     70    -10.9550     -5.6450      5.4330      1.5900     78.3900
     71    -11.1520     -4.9570      6.6890      1.7700     78.3900
     72    -10.3460     -5.1800      7.4250      0.0100     78.3900
     73    -12.1200     -5.2670      7.1380      0.0100     78.3900
     74    -11.2120     -3.4370      6.4910      1.7700     78.3900
     75    -11.3870     -2.9170      7.4570      0.0100     78.3900
     76     -9.9380     -2.9710      5.9730      1.5900     78.3900
     77    -10.1650     -1.9280      5.0380      1.7700     78.3900
     78     -9.5880     -1.0580      5.4290      0.0100     78.3900
     79     -9.6750     -2.2590      3.6700      1.6800     78.3900
     80     -9.4950     -3.5660      3.2910      1.7700     78.3900
     81     -9.7290     -4.3190      4.0420      0.0100     78.3900
     82     -9.0250     -3.8830      2.0790      1.7700     78.3900
     83     -8.8530     -4.9130      1.7740      0.0100     78.3900
     84     -9.4240     -1.2360      2.7610      1.7700     78.3900
     85     -9.6290     -0.0710      3.1210      1.5900     78.3900
     86     -8.9570     -1.5380      1.5230      1.6800     78.3900
     87     -8.7410     -2.8160      1.1790      1.7700     78.3900
     88     -8.2520     -3.0930     -0.0270      1.6800     78.3900
     89     -8.0430     -2.3430     -0.6530      0.0100     78.3900
     90     -8.0270     -4.0250     -0.3110      0.0100     78.3900
     91    -11.6440     -1.5910      5.0740      1.7700     78.3900
     92    -12.0220     -1.2570      4.0850      0.0100     78.3900
     93    -11.8950     -0.5970      6.0540      1.5900     78.3900
     94    -12.8510     -0.5760      6.2210      0.0100     78.3900
     95    -12.2510     -2.9290      5.4750      1.7700     78.3900
     96    -12.2280     -3.6330      4.6110      0.0100     78.3900
     97    -13.5530     -2.8210      6.0930      1.5900     78.3900
     98    -14.8540     -3.1470      5.2690      2.1000     78.3900
     99    -14.9080     -4.6020      5.0290      1.5900     78.3900
    100    -16.0220     -2.5520      5.9570      1.5900     78.3900
    101    -14.6460     -2.4320      3.8870      1.5900     78.3900
    102    -14.8810     -1.0150      3.7550      1.7700     78.3900
    103    -14.1980     -0.4330      4.4130      0.0100     78.3900
    104    -15.9230     -0.7510      4.0380      0.0100     78.3900
    105    -14.6480     -0.5660      2.3140      1.7700     78.3900
    106    -14.8460      0.5260      2.2300      0.0100     78.3900
    107    -13.2450     -0.7980      1.9530      1.5900     78.3900
    108    -13.1590     -1.1590      0.5860      1.7700     78.3900
    109    -12.4850     -0.4070      0.1140      0.0100     78.3900
    110    -12.5930     -2.5140      0.3690      1.6800     78.3900
    111    -12.6950     -3.4810      1.3400      1.7700     78.3900
    112    -13.2330     -3.1780      2.2360      0.0100     78.3900
    113    -11.9330     -2.7660     -0.8180      1.7700     78.3900
    114    -11.7960     -1.9260     -1.7000      1.5900     78.3900
    115    -11.4150     -4.0280     -0.9290      1.6800     78.3900
    116    -10.9270     -4.2200     -1.7890      0.0100     78.3900
    117    -11.4360     -5.0290      0.0150      1.7700     78.3900
    118    -10.8620     -6.0920     -0.2040      1.5900     78.3900
    119    -12.1440     -4.6960      1.2150      1.7700     78.3900
    120    -12.1920     -5.4360      2.0110      0.0100     78.3900
    121    -14.5480     -0.9970      0.0240      1.7700     78.3900
    122    -14.7470     -1.6570     -0.8330      0.0100     78.3900
    123    -14.7060      0.3560     -0.3080      1.5900     78.3900
    124    -14.5370      0.8260      0.5110      0.0100     78.3900
    125    -15.4500     -1.2930      1.2110      1.7700     78.3900
    126    -15.4710     -2.3770      1.4550      0.0100     78.3900
    127    -16.7860     -0.7410      1.1110      1.5900     78.3900
    128    -17.7960     -1.1990     -0.0160      2.1000     78.3900
    129    -18.0110     -2.6510      0.1620      1.5900     78.3900
    130    -18.9970     -0.3300      0.0290      1.5900     78.3900
    131    -17.1120     -0.9710     -1.4090      1.5900     78.3900
    132    -17.5400     -1.6090     -2.6300      1.7700     78.3900
    133    -18.1990     -0.9060     -3.1920      0.0100     78.3900
    134    -18.1370     -2.5340     -2.4300      0.0100     78.3900
    135    -16.3330     -1.9280     -3.5450      1.7700     78.3900
    136    -15.9080     -0.9770     -3.9300      0.0100     78.3900
    137    -15.2700     -2.6310     -2.8410      1.5900     78.3900
    138    -15.1770     -3.9640     -3.2960      1.7700     78.3900
    139    -14.2960     -3.9670     -3.9810      0.0100     78.3900
    140    -14.9660     -4.9220     -2.1830      1.6800     78.3900
    141    -15.4850     -4.6440     -0.9390      1.7700     78.3900
    142    -16.0170     -3.6930     -0.8450      0.0100     78.3900
    143    -15.2960     -5.4780      0.0920      1.7700     78.3900
    144    -15.6830     -5.2680      1.0880      0.0100     78.3900
    145    -14.2710     -6.1080     -2.4030      1.7700     78.3900
    146    -13.8360     -6.3560     -3.5400      1.5900     78.3900
    147    -14.0690     -6.9600     -1.3700      1.6800     78.3900
    148    -14.5560     -6.6750     -0.1510      1.7700     78.3900
    149    -14.3240     -7.5280      0.8430      1.6800     78.3900
    150    -13.8190     -8.3650      0.6320      0.0100     78.3900
    151    -14.6560     -7.3840      1.7770      0.0100     78.3900
    152    -16.4260     -4.2410     -4.1020      1.7700     78.3900
    153    -17.2710     -4.5230     -3.4370      0.0100     78.3900
    154    -16.2270     -5.2150     -5.1080      1.5900     78.3900
    155    -15.6140     -4.8240     -5.7510      0.0100     78.3900
    156    -16.6650     -2.8670     -4.7140      1.7700     78.3900
    157    -17.7550     -2.7540     -4.9300      0.0100     78.3900
    158    -15.8170     -2.6040     -5.8590      1.5900     78.3900
    159    -16.4260     -2.2330     -7.2570      2.1000     78.3900
    160    -16.1210     -3.3230     -8.2170      1.5900     78.3900
    161    -17.8480     -1.8600     -7.0900      1.5900     78.3900
    162    -15.6530     -0.9490     -7.7010      1.5900     78.3900
    163    -14.2160     -0.8600     -7.7610      1.7700     78.3900
    164    -13.8420     -1.3980     -8.6560      0.0100     78.3900
    165    -13.7520     -1.3340     -6.8670      0.0100     78.3900
    166    -13.7290      0.6060     -7.8240      1.7700     78.3900
    167    -13.7310      0.9850     -8.8680      0.0100     78.3900
    168    -14.6300      1.4710     -7.0600      1.5900     78.3900
    169    -13.8960      2.4690     -6.3920      1.7700     78.3900
    170    -14.3120      3.4440     -6.7400      0.0100     78.3900
    171    -14.0730      2.3450     -4.9490      1.6800     78.3900
    172    -14.4560      2.7720     -2.8330      1.7700     78.3900
    173    -14.4320      1.4010     -2.9640      1.6800     78.3900
    174    -14.1800      1.1880     -4.2220      1.7700     78.3900
    175    -14.1100      0.2020     -4.6880      0.0100     78.3900
    176    -14.6830      4.9570     -1.9490      1.6800     78.3900
    177    -14.4080      5.3880     -3.1820      1.7700     78.3900
    178    -14.3830      6.4750     -3.2920      0.0100     78.3900
    179    -14.1610      4.6890     -4.2980      1.6800     78.3900
    180    -14.2280      3.3720     -4.0520      1.7700     78.3900
    181    -14.7040      3.6210     -1.7320      1.7700     78.3900
    182    -14.9660      3.1550     -0.5050      1.6800     78.3900
    183    -15.0270      2.1570     -0.4090      0.0100     78.3900
    184    -15.0170      3.7660      0.2880      0.0100     78.3900
    185    -12.4560      2.3470     -6.8200      1.7700     78.3900
    186    -11.7510      2.5900     -6.0040      0.0100     78.3900
    187    -12.2070      3.1870     -7.9280      1.5900     78.3900
    188    -11.2630      3.1150     -8.1030      0.0100     78.3900
    189    -12.3510      0.8750     -7.1960      1.7700     78.3900
    190    -12.3260      0.2630     -6.2630      0.0100     78.3900
    191    -11.2730      0.5750     -8.1260      1.5900     78.3900
    192    -10.0760     -0.3130     -7.6140      2.1000     78.3900
    193     -9.8360     -0.0040     -6.1890      1.5900     78.3900
    194    -10.3470     -1.7320     -7.9470      1.5900     78.3900
    195     -8.8390      0.2020     -8.4450      1.5900     78.3900
    196     -8.5870     -0.3160     -9.7650      1.7700     78.3900
    197     -9.5130     -0.3650    -10.3830      0.0100     78.3900
    198     -8.1710     -1.3470     -9.6830      0.0100     78.3900
    199     -7.5520      0.5780    -10.4440      1.7700     78.3900
    200     -6.6900      0.7670     -9.7690      0.0100     78.3900
    201     -7.0610     -0.0670    -11.6570      1.5900     78.3900
    202     -7.5850      0.6060    -12.7970      1.7700     78.3900
    203     -6.7370      1.2170    -13.1880      0.0100     78.3900
    204     -8.0830     -0.3560    -13.8160      1.6800     78.3900
    205     -8.6930     -1.5240    -13.4220      1.7700     78.3900
    206     -8.7700     -1.6670    -12.3420      0.0100     78.3900
    207     -7.9110     -0.0680    -15.1520      1.7700     78.3900
    208     -7.3530      0.9520    -15.5440      1.5900     78.3900
    209     -8.3920     -1.0160    -16.0190      1.6800     78.3900
    210     -8.2530     -0.8100    -16.9990      0.0100     78.3900
    211     -8.9570     -2.2340    -15.6970      1.7700     78.3900
    212     -9.2830     -3.0230    -16.5840      1.5900     78.3900
    213     -9.1170     -2.4550    -14.2900      1.7700     78.3900
    214     -9.5610     -3.3910    -13.9580      0.0100     78.3900
    215     -8.6740      1.5430    -12.3040      1.7700     78.3900
    216     -9.6450      1.0080    -12.2140      0.0100     78.3900
    217     -8.8130      2.6850    -13.1250      1.5900     78.3900
    218     -8.0040      3.2100    -13.0120      0.0100     78.3900
    219     -8.1530      1.9100    -10.9180      1.7700     78.3900
    220     -9.0220      2.1460    -10.2600      0.0100     78.3900
    221     -7.1730      2.9650    -10.9240      1.5900     78.3900
    222     -7.3090      4.2840    -10.0860      2.1000     78.3900
    223     -6.1450      5.1310    -10.4550      1.5900     78.3900
    224     -8.6600      4.8590    -10.2850      1.5900     78.3900
    225     -7.1350      3.8430     -8.5840      1.5900     78.3900
    226     -8.2590      3.5810     -7.7260      1.7700     78.3900
    227     -7.9770      2.8040     -6.9830      0.0100     78.3900
    228     -9.1170      3.1630     -8.3020      0.0100     78.3900
    229     -8.7190      4.8340     -6.9720      1.7700     78.3900
    230     -8.8690      5.6980     -7.6580      0.0100     78.3900
    231    -10.0120      4.5130     -6.3990      1.5900     78.3900
    232    -10.1560      5.1380     -5.1370      1.7700     78.3900
    233    -11.0610      5.7870     -5.2050      0.0100     78.3900
    234    -10.3590      4.1460     -4.0710      1.6800     78.3900
    235    -10.9120      3.1720     -2.1810      1.7700     78.3900
    236    -10.4830      2.1600     -3.0250      1.6800     78.3900
    237    -10.1710      2.7840     -4.1310      1.7700     78.3900
    238     -9.8020      2.2970     -5.0380      0.0100     78.3900
    239    -11.6910      4.3600     -0.2940      1.6800     78.3900
    240    -11.5210      5.4700     -1.0130      1.7700     78.3900
    241    -11.7760      6.4040     -0.5010      0.0100     78.3900
    242    -11.1020      5.5970     -2.2740      1.6800     78.3900
    243    -10.8200      4.4010     -2.8070      1.7700     78.3900
    244    -11.4000      3.1630     -0.8590      1.7700     78.3900
    245    -11.5780      2.0430     -0.1430      1.6800     78.3900
    246    -11.4420      1.1340     -0.5290      0.0100     78.3900
    247    -11.8070      2.1230      0.8270      0.0100     78.3900
    248     -8.9340      5.9940     -4.9140      1.7700     78.3900
    249     -8.6320      6.0270     -3.8500      0.0100     78.3900
    250     -9.1770      7.3060     -5.3820      1.5900     78.3900
    251     -8.3240      7.7600     -5.4000      0.0100     78.3900
    252     -7.8830      5.2810     -5.7570      1.7700     78.3900
    253     -7.5430      4.3440     -5.2560      0.0100     78.3900
    254     -6.7920      6.1340     -6.1670      1.5900     78.3900
    255     -5.4690      6.1790     -5.3000      2.1000     78.3900
    256     -4.9510      4.8060     -5.1220      1.5900     78.3900
    257     -4.5520      7.1690     -5.9070      1.5900     78.3900
    258     -5.9000      6.7110     -3.8860      1.5900     78.3900
    259     -6.2910      8.0850     -3.6570      1.7700     78.3900
    260     -7.0930      8.4050     -4.3590      0.0100     78.3900
    261     -5.4330      8.7750     -3.8150      0.0100     78.3900
    262     -6.8090      8.2830     -2.2240      1.7700     78.3900
    263     -7.1100      9.3370     -2.0520      0.0100     78.3900
    264     -7.9960      7.4620     -2.0310      1.5900     78.3900
    265     -7.9830      6.8970     -0.7360      1.7700     78.3900
    266     -8.9510      7.1770     -0.2580      0.0100     78.3900
    267     -7.8800      5.4350     -0.7940      1.6800     78.3900
    268     -8.0220      3.2950     -0.3190      1.7700     78.3900
    269     -7.4900      3.3730     -1.5990      1.6800     78.3900
    270     -7.4250      4.6580     -1.8300      1.7700     78.3900
    271     -7.0580      5.1020     -2.7540      0.0100     78.3900
    272     -8.8560      2.4820      1.7290      1.6800     78.3900
    273     -9.0050      3.7520      2.0910      1.7700     78.3900
    274     -9.4070      3.9050      3.0970      0.0100     78.3900
    275     -8.7330      4.8650      1.4020      1.6800     78.3900
    276     -8.2530      4.5620      0.1910      1.7700     78.3900
    277     -8.3640      2.2010      0.4980      1.7700     78.3900
    278     -8.2240      0.9220      0.0980      1.6800     78.3900
    279     -7.8800      0.6720     -0.8110      0.0100     78.3900
    280     -8.5330      0.2010      0.7330      0.0100     78.3900
    281     -6.8420      7.5270      0.0220      1.7700     78.3900
    282     -6.3910      6.8260      0.7500      0.0100     78.3900
    283     -7.2920      8.6950      0.6790      1.5900     78.3900
    284     -6.5030      9.1440      1.0040      0.0100     78.3900
    285     -5.8550      7.8600     -1.0910      1.7700     78.3900
    286     -5.3380      6.9370     -1.4410      0.0100     78.3900
    287     -4.9350      8.9330     -0.7670      1.5900     78.3900
    288     -3.5080      8.5920     -0.1880      2.1000     78.3900
    289     -2.8730      7.5900     -1.0690      1.5900     78.3900
    290     -2.7690      9.8560      0.0330      1.5900     78.3900
    291     -3.7890      7.9050      1.1990      1.5900     78.3900
    292     -4.2450      8.6470      2.3490      1.7700     78.3900
    293     -5.0990      9.3120      2.0900      0.0100     78.3900
    294     -3.4210      9.2870      2.7370      0.0100     78.3900
    295     -4.6980      7.7150      3.4890      1.7700     78.3900
    296     -5.1150      8.3050      4.3330      0.0100     78.3900
    297     -5.7490      6.8210      3.0280      1.5900     78.3900
    298     -5.5860      5.5430      3.6280      1.7700     78.3900
    299     -6.5490      5.3340      4.1480      0.0100     78.3900
    300     -5.3210      4.4590      2.6350      1.6800     78.3900
    301     -4.7620      4.7590      1.4150      1.7700     78.3900
    302     -4.5480      5.8090      1.2330      0.0100     78.3900
    303     -4.5330      3.8120      0.4960      1.7700     78.3900
    304     -4.1120      4.0410     -0.4810      0.0100     78.3900
    305     -5.5990      3.1330      2.9540      1.7700     78.3900
    306     -6.0720      2.8660      4.0720      1.5900     78.3900
    307     -5.3520      2.1610      2.0460      1.6800     78.3900
    308     -4.8560      2.4690      0.8360      1.7700     78.3900
    309     -4.6580      1.4980     -0.0520      1.6800     78.3900
    310     -4.8910      0.5550      0.1970      0.0100     78.3900
    311     -4.3180      1.6770     -0.9790      0.0100     78.3900
    312     -4.4810      5.6650      4.6580      1.7700     78.3900
    313     -3.9100      4.7250      4.7770      0.0100     78.3900
    314     -5.0130      6.0470      5.9130      1.5900     78.3900
    315     -4.2620      6.2320      6.4900      0.0100     78.3900
    316     -3.6270      6.7730      4.0510      1.7700     78.3900
    317     -3.0750      6.3910      3.1640      0.0100     78.3900
    318     -2.7890      7.4780      4.9920      1.5900     78.3900
    319     -1.2600      7.1310      5.0750      2.1000     78.3900
    320     -0.7390      6.8950      3.7090      1.5900     78.3900
    321     -0.5620      8.1540      5.8840      1.5900     78.3900
    322     -1.2510      5.7730      5.8680      1.5900     78.3900
    323     -1.6750      5.7620      7.2520      1.7700     78.3900
    324     -2.6910      6.2000      7.3790      0.0100     78.3900
    325     -0.9680      6.3540      7.8810      0.0100     78.3900
    326     -1.7070      4.3300      7.7980      1.7700     78.3900
    327     -1.9350      4.3260      8.8860      0.0100     78.3900
    328     -2.7630      3.5670      7.1380      1.5900     78.3900
    329     -2.3010      2.2390      6.9090      1.7700     78.3900
    330     -3.0520      1.5710      7.3910      0.0100     78.3900
    331     -2.2130      1.8980      5.4620      1.6800     78.3900
    332     -2.0990      2.8960      4.5230      1.7700     78.3900
    333     -2.1070      3.9130      4.9080      0.0100     78.3900
    334     -2.0220      2.6260      3.2150      1.7700     78.3900
    335     -1.9600      3.4090      2.4610      0.0100     78.3900
    336     -2.1560      0.5680      5.0560      1.7700     78.3900
    337     -2.1520     -0.3290      5.9140      1.5900     78.3900
    338     -2.1000      0.2710      3.7370      1.6800     78.3900
    339     -2.0250      1.2570      2.8250      1.7700     78.3900
    340     -1.9400      0.9350      1.5370      1.6800     78.3900
    341     -1.9250     -0.0310      1.2660      0.0100     78.3900
    342     -1.8600      1.6250      0.8190      0.0100     78.3900
    343     -0.9710      2.0830      7.6290      1.7700     78.3900
    344     -0.2900      1.3840      7.0990      0.0100     78.3900
    345     -1.1840      1.6310      8.9600      1.5900     78.3900
    346     -0.3470      1.6980      9.4520      0.0100     78.3900
    347     -0.4290      3.5070      7.5740      1.7700     78.3900
    348     -0.0420      3.7310      6.5550      0.0100     78.3900
    349      0.5500      3.8130      8.5850      1.5900     78.3900
    350      1.3560      3.2840      8.4400      0.0100     78.3900

     ----------------------------
     INPUT FOR TESSERA DEFINITION
     ----------------------------
     NTSALL  =        60     MTHALL  =         4
     MTHAUT  =         0     AUTFRE  =    2.0000
     NTSFRZ  =        60     KEEPSM  =         0
     AREAKP  =   10.0000     BONDRY  =    1.0000
     AREATL  =    0.0100

     SPHERE     INITS       METHOD
          1        60       FIXPVA
          2        60       FIXPVA
          3        60       FIXPVA
          4        60       FIXPVA
          5        60       FIXPVA
          6        60       FIXPVA
          7        60       FIXPVA
          8        60       FIXPVA
          9        60       FIXPVA
         10        60       FIXPVA
         11        60       FIXPVA
         12        60       FIXPVA
         13        60       FIXPVA
         14        60       FIXPVA
         15        60       FIXPVA
         16        60       FIXPVA
         17        60       FIXPVA
         18        60       FIXPVA
         19        60       FIXPVA
         20        60       FIXPVA
         21        60       FIXPVA
         22        60       FIXPVA
         23        60       FIXPVA
         24        60       FIXPVA
         25        60       FIXPVA
         26        60       FIXPVA
         27        60       FIXPVA
         28        60       FIXPVA
         29        60       FIXPVA
         30        60       FIXPVA
         31        60       FIXPVA
         32        60       FIXPVA
         33        60       FIXPVA
         34        60       FIXPVA
         35        60       FIXPVA
         36        60       FIXPVA
         37        60       FIXPVA
         38        60       FIXPVA
         39        60       FIXPVA
         40        60       FIXPVA
         41        60       FIXPVA
         42        60       FIXPVA
         43        60       FIXPVA
         44        60       FIXPVA
         45        60       FIXPVA
         46        60       FIXPVA
         47        60       FIXPVA
         48        60       FIXPVA
         49        60       FIXPVA
         50        60       FIXPVA
         51        60       FIXPVA
         52        60       FIXPVA
         53        60       FIXPVA
         54        60       FIXPVA
         55        60       FIXPVA
         56        60       FIXPVA
         57        60       FIXPVA
         58        60       FIXPVA
         59        60       FIXPVA
         60        60       FIXPVA
         61        60       FIXPVA
         62        60       FIXPVA
         63        60       FIXPVA
         64        60       FIXPVA
         65        60       FIXPVA
         66        60       FIXPVA
         67        60       FIXPVA
         68        60       FIXPVA
         69        60       FIXPVA
         70        60       FIXPVA
         71        60       FIXPVA
         72        60       FIXPVA
         73        60       FIXPVA
         74        60       FIXPVA
         75        60       FIXPVA
         76        60       FIXPVA
         77        60       FIXPVA
         78        60       FIXPVA
         79        60       FIXPVA
         80        60       FIXPVA
         81        60       FIXPVA
         82        60       FIXPVA
         83        60       FIXPVA
         84        60       FIXPVA
         85        60       FIXPVA
         86        60       FIXPVA
         87        60       FIXPVA
         88        60       FIXPVA
         89        60       FIXPVA
         90        60       FIXPVA
         91        60       FIXPVA
         92        60       FIXPVA
         93        60       FIXPVA
         94        60       FIXPVA
         95        60       FIXPVA
         96        60       FIXPVA
         97        60       FIXPVA
         98        60       FIXPVA
         99        60       FIXPVA
        100        60       FIXPVA
        101        60       FIXPVA
        102        60       FIXPVA
        103        60       FIXPVA
        104        60       FIXPVA
        105        60       FIXPVA
        106        60       FIXPVA
        107        60       FIXPVA
        108        60       FIXPVA
        109        60       FIXPVA
        110        60       FIXPVA
        111        60       FIXPVA
        112        60       FIXPVA
        113        60       FIXPVA
        114        60       FIXPVA
        115        60       FIXPVA
        116        60       FIXPVA
        117        60       FIXPVA
        118        60       FIXPVA
        119        60       FIXPVA
        120        60       FIXPVA
        121        60       FIXPVA
        122        60       FIXPVA
        123        60       FIXPVA
        124        60       FIXPVA
        125        60       FIXPVA
        126        60       FIXPVA
        127        60       FIXPVA
        128        60       FIXPVA
        129        60       FIXPVA
        130        60       FIXPVA
        131        60       FIXPVA
        132        60       FIXPVA
        133        60       FIXPVA
        134        60       FIXPVA
        135        60       FIXPVA
        136        60       FIXPVA
        137        60       FIXPVA
        138        60       FIXPVA
        139        60       FIXPVA
        140        60       FIXPVA
        141        60       FIXPVA
        142        60       FIXPVA
        143        60       FIXPVA
        144        60       FIXPVA
        145        60       FIXPVA
        146        60       FIXPVA
        147        60       FIXPVA
        148        60       FIXPVA
        149        60       FIXPVA
        150        60       FIXPVA
        151        60       FIXPVA
        152        60       FIXPVA
        153        60       FIXPVA
        154        60       FIXPVA
        155        60       FIXPVA
        156        60       FIXPVA
        157        60       FIXPVA
        158        60       FIXPVA
        159        60       FIXPVA
        160        60       FIXPVA
        161        60       FIXPVA
        162        60       FIXPVA
        163        60       FIXPVA
        164        60       FIXPVA
        165        60       FIXPVA
        166        60       FIXPVA
        167        60       FIXPVA
        168        60       FIXPVA
        169        60       FIXPVA
        170        60       FIXPVA
        171        60       FIXPVA
        172        60       FIXPVA
        173        60       FIXPVA
        174        60       FIXPVA
        175        60       FIXPVA
        176        60       FIXPVA
        177        60       FIXPVA
        178        60       FIXPVA
        179        60       FIXPVA
        180        60       FIXPVA
        181        60       FIXPVA
        182        60       FIXPVA
        183        60       FIXPVA
        184        60       FIXPVA
        185        60       FIXPVA
        186        60       FIXPVA
        187        60       FIXPVA
        188        60       FIXPVA
        189        60       FIXPVA
        190        60       FIXPVA
        191        60       FIXPVA
        192        60       FIXPVA
        193        60       FIXPVA
        194        60       FIXPVA
        195        60       FIXPVA
        196        60       FIXPVA
        197        60       FIXPVA
        198        60       FIXPVA
        199        60       FIXPVA
        200        60       FIXPVA
        201        60       FIXPVA
        202        60       FIXPVA
        203        60       FIXPVA
        204        60       FIXPVA
        205        60       FIXPVA
        206        60       FIXPVA
        207        60       FIXPVA
        208        60       FIXPVA
        209        60       FIXPVA
        210        60       FIXPVA
        211        60       FIXPVA
        212        60       FIXPVA
        213        60       FIXPVA
        214        60       FIXPVA
        215        60       FIXPVA
        216        60       FIXPVA
        217        60       FIXPVA
        218        60       FIXPVA
        219        60       FIXPVA
        220        60       FIXPVA
        221        60       FIXPVA
        222        60       FIXPVA
        223        60       FIXPVA
        224        60       FIXPVA
        225        60       FIXPVA
        226        60       FIXPVA
        227        60       FIXPVA
        228        60       FIXPVA
        229        60       FIXPVA
        230        60       FIXPVA
        231        60       FIXPVA
        232        60       FIXPVA
        233        60       FIXPVA
        234        60       FIXPVA
        235        60       FIXPVA
        236        60       FIXPVA
        237        60       FIXPVA
        238        60       FIXPVA
        239        60       FIXPVA
        240        60       FIXPVA
        241        60       FIXPVA
        242        60       FIXPVA
        243        60       FIXPVA
        244        60       FIXPVA
        245        60       FIXPVA
        246        60       FIXPVA
        247        60       FIXPVA
        248        60       FIXPVA
        249        60       FIXPVA
        250        60       FIXPVA
        251        60       FIXPVA
        252        60       FIXPVA
        253        60       FIXPVA
        254        60       FIXPVA
        255        60       FIXPVA
        256        60       FIXPVA
        257        60       FIXPVA
        258        60       FIXPVA
        259        60       FIXPVA
        260        60       FIXPVA
        261        60       FIXPVA
        262        60       FIXPVA
        263        60       FIXPVA
        264        60       FIXPVA
        265        60       FIXPVA
        266        60       FIXPVA
        267        60       FIXPVA
        268        60       FIXPVA
        269        60       FIXPVA
        270        60       FIXPVA
        271        60       FIXPVA
        272        60       FIXPVA
        273        60       FIXPVA
        274        60       FIXPVA
        275        60       FIXPVA
        276        60       FIXPVA
        277        60       FIXPVA
        278        60       FIXPVA
        279        60       FIXPVA
        280        60       FIXPVA
        281        60       FIXPVA
        282        60       FIXPVA
        283        60       FIXPVA
        284        60       FIXPVA
        285        60       FIXPVA
        286        60       FIXPVA
        287        60       FIXPVA
        288        60       FIXPVA
        289        60       FIXPVA
        290        60       FIXPVA
        291        60       FIXPVA
        292        60       FIXPVA
        293        60       FIXPVA
        294        60       FIXPVA
        295        60       FIXPVA
        296        60       FIXPVA
        297        60       FIXPVA
        298        60       FIXPVA
        299        60       FIXPVA
        300        60       FIXPVA
        301        60       FIXPVA
        302        60       FIXPVA
        303        60       FIXPVA
        304        60       FIXPVA
        305        60       FIXPVA
        306        60       FIXPVA
        307        60       FIXPVA
        308        60       FIXPVA
        309        60       FIXPVA
        310        60       FIXPVA
        311        60       FIXPVA
        312        60       FIXPVA
        313        60       FIXPVA
        314        60       FIXPVA
        315        60       FIXPVA
        316        60       FIXPVA
        317        60       FIXPVA
        318        60       FIXPVA
        319        60       FIXPVA
        320        60       FIXPVA
        321        60       FIXPVA
        322        60       FIXPVA
        323        60       FIXPVA
        324        60       FIXPVA
        325        60       FIXPVA
        326        60       FIXPVA
        327        60       FIXPVA
        328        60       FIXPVA
        329        60       FIXPVA
        330        60       FIXPVA
        331        60       FIXPVA
        332        60       FIXPVA
        333        60       FIXPVA
        334        60       FIXPVA
        335        60       FIXPVA
        336        60       FIXPVA
        337        60       FIXPVA
        338        60       FIXPVA
        339        60       FIXPVA
        340        60       FIXPVA
        341        60       FIXPVA
        342        60       FIXPVA
        343        60       FIXPVA
        344        60       FIXPVA
        345        60       FIXPVA
        346        60       FIXPVA
        347        60       FIXPVA
        348        60       FIXPVA
        349        60       FIXPVA
        350        60       FIXPVA

     ------------------------------
      FIXPVA TESSELLATION FOR PCM
         PEIFENG SU AND HUI LI
     UNIVERSITY OF NEBRASKA-LINCOLN
     ------------------------------


 PCM DIMENSIONS: MXSP=   350, MXTS=     14000, MEMORY=        143853

     INPUT FOR CAVITY DEFINITION 
     ---------------------------
   ATOM               COORDINATES                RADIUS       EPS
      1     -2.5230     -9.6600     -1.6260      0.0100     78.3900
      2     -2.6100     -9.2190     -0.7600      1.5900     78.3900
      3     -2.3870    -10.2170      0.2470      1.7700     78.3900
      4     -1.3930    -10.6970      0.0880      0.0100     78.3900
      5     -3.1720    -10.9990      0.1560      0.0100     78.3900
      6     -2.4340     -9.6370      1.6620      1.7700     78.3900
      7     -2.2700    -10.4340      2.4230      0.0100     78.3900
      8     -1.3700     -8.6540      1.8330      1.5900     78.3900
      9     -1.8530     -7.5870      2.6380      1.7700     78.3900
     10     -1.1580     -7.4900      3.5040      0.0100     78.3900
     11     -1.8670     -6.3170      1.8980      1.6800     78.3900
     12     -1.9490     -5.0680      2.4500      1.7700     78.3900
     13     -2.1770     -3.0280      5.2340      1.6800     78.3900
     14     -2.1990     -3.6820      5.9900      0.0100     78.3900
     15     -2.1810     -2.0450      5.4430      0.0100     78.3900
     16     -2.0430     -4.7930      3.7640      1.6800     78.3900
     17     -2.0740     -3.4850      4.0020      1.7700     78.3900
     18     -1.9740     -2.5380      3.0170      1.6800     78.3900
     19     -1.9740     -1.5680      3.2890      0.0100     78.3900
     20     -1.8640     -2.7930      1.6550      1.7700     78.3900
     21     -1.7780     -1.8710      0.8370      1.5900     78.3900
     22     -1.8700     -4.1880      1.3860      1.7700     78.3900
     23     -1.7580     -4.8750      0.1790      1.6800     78.3900
     24     -1.7710     -6.1400      0.5340      1.7700     78.3900
     25     -1.7040     -6.9950     -0.1430      0.0100     78.3900
     26     -3.2220     -7.9760      3.1360      1.7700     78.3900
     27     -3.8870     -7.1030      3.2920      0.0100     78.3900
     28     -3.0940     -8.6980      4.3430      1.5900     78.3900
     29     -3.9810     -8.9910      4.5860      0.0100     78.3900
     30     -3.7170     -8.8690      2.0090      1.7700     78.3900
     31     -3.9860     -8.2590      1.1120      0.0100     78.3900
     32     -4.7490     -9.8010      2.3940      1.5900     78.3900
     33     -6.2550     -9.3780      2.2480      2.1000     78.3900
     34     -6.4460     -8.8270      0.8920      1.5900     78.3900
     35     -7.0860    -10.5480      2.6140      1.5900     78.3900
     36     -6.4580     -8.2240      3.3090      1.5900     78.3900
     37     -6.4560     -8.5560      4.7200      1.7700     78.3900
     38     -5.5370     -9.1110      5.0100      0.0100     78.3900
     39     -7.3310     -9.2000      4.9700      0.0100     78.3900
     40     -6.5270     -7.2940      5.5900      1.7700     78.3900
     41     -6.4690     -7.5480      6.6700      0.0100     78.3900
     42     -5.4040     -6.4140      5.2870      1.5900     78.3900
     43     -5.8360     -5.0600      5.3420      1.7700     78.3900
     44     -5.1890     -4.5480      6.0900      0.0100     78.3900
     45     -5.6850     -4.3830      4.0430      1.6800     78.3900
     46     -5.6960     -3.0280      3.8300      1.7700     78.3900
     47     -5.9980      0.2100      5.0240      1.6800     78.3900
     48     -6.1970      0.0710      5.9920      0.0100     78.3900
     49     -6.0490      1.1370      4.6420      0.0100     78.3900
     50     -5.8650     -2.0800      4.7680      1.6800     78.3900
     51     -5.8310     -0.8500      4.2560      1.7700     78.3900
     52     -5.6120     -0.5950      2.9300      1.6800     78.3900
     53     -5.6050      0.3670      2.6300      0.0100     78.3900
     54     -5.4220     -1.5500      1.9410      1.7700     78.3900
     55     -5.2340     -1.2420      0.7590      1.5900     78.3900
     56     -5.4900     -2.8650      2.4740      1.7700     78.3900
     57     -5.3840     -4.0950      1.8400      1.6800     78.3900
     58     -5.5140     -4.9690      2.8090      1.7700     78.3900
     59     -5.4900     -6.0540      2.6920      0.0100     78.3900
     60     -7.2720     -5.0560      5.8230      1.7700     78.3900
     61     -7.8670     -4.2380      5.3690      0.0100     78.3900
     62     -7.3150     -4.9530      7.2300      1.5900     78.3900
     63     -8.2240     -5.1480      7.4970      0.0100     78.3900
     64     -7.7630     -6.4160      5.3620      1.7700     78.3900
     65     -7.9070     -6.3920      4.2530      0.0100     78.3900
     66     -8.9030     -6.9250      6.1130      1.5900     78.3900
     67    -10.2760     -7.0640      5.3360      2.1000     78.3900
     68    -10.0290     -7.3410      3.9090      1.5900     78.3900
     69    -11.1150     -8.0370      6.0730      1.5900     78.3900
     70    -10.9550     -5.6450      5.4330      1.5900     78.3900
     71    -11.1520     -4.9570      6.6890      1.7700     78.3900
     72    -10.3460     -5.1800      7.4250      0.0100     78.3900
     73    -12.1200     -5.2670      7.1380      0.0100     78.3900
     74    -11.2120     -3.4370      6.4910      1.7700     78.3900
     75    -11.3870     -2.9170      7.4570      0.0100     78.3900
     76     -9.9380     -2.9710      5.9730      1.5900     78.3900
     77    -10.1650     -1.9280      5.0380      1.7700     78.3900
     78     -9.5880     -1.0580      5.4290      0.0100     78.3900
     79     -9.6750     -2.2590      3.6700      1.6800     78.3900
     80     -9.4950     -3.5660      3.2910      1.7700     78.3900
     81     -9.7290     -4.3190      4.0420      0.0100     78.3900
     82     -9.0250     -3.8830      2.0790      1.7700     78.3900
     83     -8.8530     -4.9130      1.7740      0.0100     78.3900
     84     -9.4240     -1.2360      2.7610      1.7700     78.3900
     85     -9.6290     -0.0710      3.1210      1.5900     78.3900
     86     -8.9570     -1.5380      1.5230      1.6800     78.3900
     87     -8.7410     -2.8160      1.1790      1.7700     78.3900
     88     -8.2520     -3.0930     -0.0270      1.6800     78.3900
     89     -8.0430     -2.3430     -0.6530      0.0100     78.3900
     90     -8.0270     -4.0250     -0.3110      0.0100     78.3900
     91    -11.6440     -1.5910      5.0740      1.7700     78.3900
     92    -12.0220     -1.2570      4.0850      0.0100     78.3900
     93    -11.8950     -0.5970      6.0540      1.5900     78.3900
     94    -12.8510     -0.5760      6.2210      0.0100     78.3900
     95    -12.2510     -2.9290      5.4750      1.7700     78.3900
     96    -12.2280     -3.6330      4.6110      0.0100     78.3900
     97    -13.5530     -2.8210      6.0930      1.5900     78.3900
     98    -14.8540     -3.1470      5.2690      2.1000     78.3900
     99    -14.9080     -4.6020      5.0290      1.5900     78.3900
    100    -16.0220     -2.5520      5.9570      1.5900     78.3900
    101    -14.6460     -2.4320      3.8870      1.5900     78.3900
    102    -14.8810     -1.0150      3.7550      1.7700     78.3900
    103    -14.1980     -0.4330      4.4130      0.0100     78.3900
    104    -15.9230     -0.7510      4.0380      0.0100     78.3900
    105    -14.6480     -0.5660      2.3140      1.7700     78.3900
    106    -14.8460      0.5260      2.2300      0.0100     78.3900
    107    -13.2450     -0.7980      1.9530      1.5900     78.3900
    108    -13.1590     -1.1590      0.5860      1.7700     78.3900
    109    -12.4850     -0.4070      0.1140      0.0100     78.3900
    110    -12.5930     -2.5140      0.3690      1.6800     78.3900
    111    -12.6950     -3.4810      1.3400      1.7700     78.3900
    112    -13.2330     -3.1780      2.2360      0.0100     78.3900
    113    -11.9330     -2.7660     -0.8180      1.7700     78.3900
    114    -11.7960     -1.9260     -1.7000      1.5900     78.3900
    115    -11.4150     -4.0280     -0.9290      1.6800     78.3900
    116    -10.9270     -4.2200     -1.7890      0.0100     78.3900
    117    -11.4360     -5.0290      0.0150      1.7700     78.3900
    118    -10.8620     -6.0920     -0.2040      1.5900     78.3900
    119    -12.1440     -4.6960      1.2150      1.7700     78.3900
    120    -12.1920     -5.4360      2.0110      0.0100     78.3900
    121    -14.5480     -0.9970      0.0240      1.7700     78.3900
    122    -14.7470     -1.6570     -0.8330      0.0100     78.3900
    123    -14.7060      0.3560     -0.3080      1.5900     78.3900
    124    -14.5370      0.8260      0.5110      0.0100     78.3900
    125    -15.4500     -1.2930      1.2110      1.7700     78.3900
    126    -15.4710     -2.3770      1.4550      0.0100     78.3900
    127    -16.7860     -0.7410      1.1110      1.5900     78.3900
    128    -17.7960     -1.1990     -0.0160      2.1000     78.3900
    129    -18.0110     -2.6510      0.1620      1.5900     78.3900
    130    -18.9970     -0.3300      0.0290      1.5900     78.3900
    131    -17.1120     -0.9710     -1.4090      1.5900     78.3900
    132    -17.5400     -1.6090     -2.6300      1.7700     78.3900
    133    -18.1990     -0.9060     -3.1920      0.0100     78.3900
    134    -18.1370     -2.5340     -2.4300      0.0100     78.3900
    135    -16.3330     -1.9280     -3.5450      1.7700     78.3900
    136    -15.9080     -0.9770     -3.9300      0.0100     78.3900
    137    -15.2700     -2.6310     -2.8410      1.5900     78.3900
    138    -15.1770     -3.9640     -3.2960      1.7700     78.3900
    139    -14.2960     -3.9670     -3.9810      0.0100     78.3900
    140    -14.9660     -4.9220     -2.1830      1.6800     78.3900
    141    -15.4850     -4.6440     -0.9390      1.7700     78.3900
    142    -16.0170     -3.6930     -0.8450      0.0100     78.3900
    143    -15.2960     -5.4780      0.0920      1.7700     78.3900
    144    -15.6830     -5.2680      1.0880      0.0100     78.3900
    145    -14.2710     -6.1080     -2.4030      1.7700     78.3900
    146    -13.8360     -6.3560     -3.5400      1.5900     78.3900
    147    -14.0690     -6.9600     -1.3700      1.6800     78.3900
    148    -14.5560     -6.6750     -0.1510      1.7700     78.3900
    149    -14.3240     -7.5280      0.8430      1.6800     78.3900
    150    -13.8190     -8.3650      0.6320      0.0100     78.3900
    151    -14.6560     -7.3840      1.7770      0.0100     78.3900
    152    -16.4260     -4.2410     -4.1020      1.7700     78.3900
    153    -17.2710     -4.5230     -3.4370      0.0100     78.3900
    154    -16.2270     -5.2150     -5.1080      1.5900     78.3900
    155    -15.6140     -4.8240     -5.7510      0.0100     78.3900
    156    -16.6650     -2.8670     -4.7140      1.7700     78.3900
    157    -17.7550     -2.7540     -4.9300      0.0100     78.3900
    158    -15.8170     -2.6040     -5.8590      1.5900     78.3900
    159    -16.4260     -2.2330     -7.2570      2.1000     78.3900
    160    -16.1210     -3.3230     -8.2170      1.5900     78.3900
    161    -17.8480     -1.8600     -7.0900      1.5900     78.3900
    162    -15.6530     -0.9490     -7.7010      1.5900     78.3900
    163    -14.2160     -0.8600     -7.7610      1.7700     78.3900
    164    -13.8420     -1.3980     -8.6560      0.0100     78.3900
    165    -13.7520     -1.3340     -6.8670      0.0100     78.3900
    166    -13.7290      0.6060     -7.8240      1.7700     78.3900
    167    -13.7310      0.9850     -8.8680      0.0100     78.3900
    168    -14.6300      1.4710     -7.0600      1.5900     78.3900
    169    -13.8960      2.4690     -6.3920      1.7700     78.3900
    170    -14.3120      3.4440     -6.7400      0.0100     78.3900
    171    -14.0730      2.3450     -4.9490      1.6800     78.3900
    172    -14.4560      2.7720     -2.8330      1.7700     78.3900
    173    -14.4320      1.4010     -2.9640      1.6800     78.3900
    174    -14.1800      1.1880     -4.2220      1.7700     78.3900
    175    -14.1100      0.2020     -4.6880      0.0100     78.3900
    176    -14.6830      4.9570     -1.9490      1.6800     78.3900
    177    -14.4080      5.3880     -3.1820      1.7700     78.3900
    178    -14.3830      6.4750     -3.2920      0.0100     78.3900
    179    -14.1610      4.6890     -4.2980      1.6800     78.3900
    180    -14.2280      3.3720     -4.0520      1.7700     78.3900
    181    -14.7040      3.6210     -1.7320      1.7700     78.3900
    182    -14.9660      3.1550     -0.5050      1.6800     78.3900
    183    -15.0270      2.1570     -0.4090      0.0100     78.3900
    184    -15.0170      3.7660      0.2880      0.0100     78.3900
    185    -12.4560      2.3470     -6.8200      1.7700     78.3900
    186    -11.7510      2.5900     -6.0040      0.0100     78.3900
    187    -12.2070      3.1870     -7.9280      1.5900     78.3900
    188    -11.2630      3.1150     -8.1030      0.0100     78.3900
    189    -12.3510      0.8750     -7.1960      1.7700     78.3900
    190    -12.3260      0.2630     -6.2630      0.0100     78.3900
    191    -11.2730      0.5750     -8.1260      1.5900     78.3900
    192    -10.0760     -0.3130     -7.6140      2.1000     78.3900
    193     -9.8360     -0.0040     -6.1890      1.5900     78.3900
    194    -10.3470     -1.7320     -7.9470      1.5900     78.3900
    195     -8.8390      0.2020     -8.4450      1.5900     78.3900
    196     -8.5870     -0.3160     -9.7650      1.7700     78.3900
    197     -9.5130     -0.3650    -10.3830      0.0100     78.3900
    198     -8.1710     -1.3470     -9.6830      0.0100     78.3900
    199     -7.5520      0.5780    -10.4440      1.7700     78.3900
    200     -6.6900      0.7670     -9.7690      0.0100     78.3900
    201     -7.0610     -0.0670    -11.6570      1.5900     78.3900
    202     -7.5850      0.6060    -12.7970      1.7700     78.3900
    203     -6.7370      1.2170    -13.1880      0.0100     78.3900
    204     -8.0830     -0.3560    -13.8160      1.6800     78.3900
    205     -8.6930     -1.5240    -13.4220      1.7700     78.3900
    206     -8.7700     -1.6670    -12.3420      0.0100     78.3900
    207     -7.9110     -0.0680    -15.1520      1.7700     78.3900
    208     -7.3530      0.9520    -15.5440      1.5900     78.3900
    209     -8.3920     -1.0160    -16.0190      1.6800     78.3900
    210     -8.2530     -0.8100    -16.9990      0.0100     78.3900
    211     -8.9570     -2.2340    -15.6970      1.7700     78.3900
    212     -9.2830     -3.0230    -16.5840      1.5900     78.3900
    213     -9.1170     -2.4550    -14.2900      1.7700     78.3900
    214     -9.5610     -3.3910    -13.9580      0.0100     78.3900
    215     -8.6740      1.5430    -12.3040      1.7700     78.3900
    216     -9.6450      1.0080    -12.2140      0.0100     78.3900
    217     -8.8130      2.6850    -13.1250      1.5900     78.3900
    218     -8.0040      3.2100    -13.0120      0.0100     78.3900
    219     -8.1530      1.9100    -10.9180      1.7700     78.3900
    220     -9.0220      2.1460    -10.2600      0.0100     78.3900
    221     -7.1730      2.9650    -10.9240      1.5900     78.3900
    222     -7.3090      4.2840    -10.0860      2.1000     78.3900
    223     -6.1450      5.1310    -10.4550      1.5900     78.3900
    224     -8.6600      4.8590    -10.2850      1.5900     78.3900
    225     -7.1350      3.8430     -8.5840      1.5900     78.3900
    226     -8.2590      3.5810     -7.7260      1.7700     78.3900
    227     -7.9770      2.8040     -6.9830      0.0100     78.3900
    228     -9.1170      3.1630     -8.3020      0.0100     78.3900
    229     -8.7190      4.8340     -6.9720      1.7700     78.3900
    230     -8.8690      5.6980     -7.6580      0.0100     78.3900
    231    -10.0120      4.5130     -6.3990      1.5900     78.3900
    232    -10.1560      5.1380     -5.1370      1.7700     78.3900
    233    -11.0610      5.7870     -5.2050      0.0100     78.3900
    234    -10.3590      4.1460     -4.0710      1.6800     78.3900
    235    -10.9120      3.1720     -2.1810      1.7700     78.3900
    236    -10.4830      2.1600     -3.0250      1.6800     78.3900
    237    -10.1710      2.7840     -4.1310      1.7700     78.3900
    238     -9.8020      2.2970     -5.0380      0.0100     78.3900
    239    -11.6910      4.3600     -0.2940      1.6800     78.3900
    240    -11.5210      5.4700     -1.0130      1.7700     78.3900
    241    -11.7760      6.4040     -0.5010      0.0100     78.3900
    242    -11.1020      5.5970     -2.2740      1.6800     78.3900
    243    -10.8200      4.4010     -2.8070      1.7700     78.3900
    244    -11.4000      3.1630     -0.8590      1.7700     78.3900
    245    -11.5780      2.0430     -0.1430      1.6800     78.3900
    246    -11.4420      1.1340     -0.5290      0.0100     78.3900
    247    -11.8070      2.1230      0.8270      0.0100     78.3900
    248     -8.9340      5.9940     -4.9140      1.7700     78.3900
    249     -8.6320      6.0270     -3.8500      0.0100     78.3900
    250     -9.1770      7.3060     -5.3820      1.5900     78.3900
    251     -8.3240      7.7600     -5.4000      0.0100     78.3900
    252     -7.8830      5.2810     -5.7570      1.7700     78.3900
    253     -7.5430      4.3440     -5.2560      0.0100     78.3900
    254     -6.7920      6.1340     -6.1670      1.5900     78.3900
    255     -5.4690      6.1790     -5.3000      2.1000     78.3900
    256     -4.9510      4.8060     -5.1220      1.5900     78.3900
    257     -4.5520      7.1690     -5.9070      1.5900     78.3900
    258     -5.9000      6.7110     -3.8860      1.5900     78.3900
    259     -6.2910      8.0850     -3.6570      1.7700     78.3900
    260     -7.0930      8.4050     -4.3590      0.0100     78.3900
    261     -5.4330      8.7750     -3.8150      0.0100     78.3900
    262     -6.8090      8.2830     -2.2240      1.7700     78.3900
    263     -7.1100      9.3370     -2.0520      0.0100     78.3900
    264     -7.9960      7.4620     -2.0310      1.5900     78.3900
    265     -7.9830      6.8970     -0.7360      1.7700     78.3900
    266     -8.9510      7.1770     -0.2580      0.0100     78.3900
    267     -7.8800      5.4350     -0.7940      1.6800     78.3900
    268     -8.0220      3.2950     -0.3190      1.7700     78.3900
    269     -7.4900      3.3730     -1.5990      1.6800     78.3900
    270     -7.4250      4.6580     -1.8300      1.7700     78.3900
    271     -7.0580      5.1020     -2.7540      0.0100     78.3900
    272     -8.8560      2.4820      1.7290      1.6800     78.3900
    273     -9.0050      3.7520      2.0910      1.7700     78.3900
    274     -9.4070      3.9050      3.0970      0.0100     78.3900
    275     -8.7330      4.8650      1.4020      1.6800     78.3900
    276     -8.2530      4.5620      0.1910      1.7700     78.3900
    277     -8.3640      2.2010      0.4980      1.7700     78.3900
    278     -8.2240      0.9220      0.0980      1.6800     78.3900
    279     -7.8800      0.6720     -0.8110      0.0100     78.3900
    280     -8.5330      0.2010      0.7330      0.0100     78.3900
    281     -6.8420      7.5270      0.0220      1.7700     78.3900
    282     -6.3910      6.8260      0.7500      0.0100     78.3900
    283     -7.2920      8.6950      0.6790      1.5900     78.3900
    284     -6.5030      9.1440      1.0040      0.0100     78.3900
    285     -5.8550      7.8600     -1.0910      1.7700     78.3900
    286     -5.3380      6.9370     -1.4410      0.0100     78.3900
    287     -4.9350      8.9330     -0.7670      1.5900     78.3900
    288     -3.5080      8.5920     -0.1880      2.1000     78.3900
    289     -2.8730      7.5900     -1.0690      1.5900     78.3900
    290     -2.7690      9.8560      0.0330      1.5900     78.3900
    291     -3.7890      7.9050      1.1990      1.5900     78.3900
    292     -4.2450      8.6470      2.3490      1.7700     78.3900
    293     -5.0990      9.3120      2.0900      0.0100     78.3900
    294     -3.4210      9.2870      2.7370      0.0100     78.3900
    295     -4.6980      7.7150      3.4890      1.7700     78.3900
    296     -5.1150      8.3050      4.3330      0.0100     78.3900
    297     -5.7490      6.8210      3.0280      1.5900     78.3900
    298     -5.5860      5.5430      3.6280      1.7700     78.3900
    299     -6.5490      5.3340      4.1480      0.0100     78.3900
    300     -5.3210      4.4590      2.6350      1.6800     78.3900
    301     -4.7620      4.7590      1.4150      1.7700     78.3900
    302     -4.5480      5.8090      1.2330      0.0100     78.3900
    303     -4.5330      3.8120      0.4960      1.7700     78.3900
    304     -4.1120      4.0410     -0.4810      0.0100     78.3900
    305     -5.5990      3.1330      2.9540      1.7700     78.3900
    306     -6.0720      2.8660      4.0720      1.5900     78.3900
    307     -5.3520      2.1610      2.0460      1.6800     78.3900
    308     -4.8560      2.4690      0.8360      1.7700     78.3900
    309     -4.6580      1.4980     -0.0520      1.6800     78.3900
    310     -4.8910      0.5550      0.1970      0.0100     78.3900
    311     -4.3180      1.6770     -0.9790      0.0100     78.3900
    312     -4.4810      5.6650      4.6580      1.7700     78.3900
    313     -3.9100      4.7250      4.7770      0.0100     78.3900
    314     -5.0130      6.0470      5.9130      1.5900     78.3900
    315     -4.2620      6.2320      6.4900      0.0100     78.3900
    316     -3.6270      6.7730      4.0510      1.7700     78.3900
    317     -3.0750      6.3910      3.1640      0.0100     78.3900
    318     -2.7890      7.4780      4.9920      1.5900     78.3900
    319     -1.2600      7.1310      5.0750      2.1000     78.3900
    320     -0.7390      6.8950      3.7090      1.5900     78.3900
    321     -0.5620      8.1540      5.8840      1.5900     78.3900
    322     -1.2510      5.7730      5.8680      1.5900     78.3900
    323     -1.6750      5.7620      7.2520      1.7700     78.3900
    324     -2.6910      6.2000      7.3790      0.0100     78.3900
    325     -0.9680      6.3540      7.8810      0.0100     78.3900
    326     -1.7070      4.3300      7.7980      1.7700     78.3900
    327     -1.9350      4.3260      8.8860      0.0100     78.3900
[...]
   3  2  0    -1375.5386395552    -0.2804792196   0.179552871   0.078831568      770807388   15541572
   4  3  0    -1375.8862771685    -0.3476376132   0.055249429   0.010956374      760854789   15815434
   5  4  0    -1375.8942404020    -0.0079632336   0.014004471   0.003860863      743755616   16112501
   6  5  0    -1375.8955783330    -0.0013379310   0.003570965   0.001742343      723177211   16385671
   7  6  0    -1375.8957460436    -0.0001677105   0.000982501   0.000640354      698910208   16673742
   8  7  0    -1375.8957783643    -0.0000323207   0.000763109   0.000318976      672496545   16946486
   9  8  0    -1375.8957844743    -0.0000061101   0.000458917   0.000139558      649751749   17171022
  10  9  0    -1375.8957859379    -0.0000014636   0.000156863   0.000048102      622294020   17446888
  11 10  0    -1375.8957861536    -0.0000002156   0.000051872   0.000015009      601541472   17602686
  12 11  0    -1375.8957861822    -0.0000000286   0.000017937   0.000007312      569689570   17880841
  13 12  0    -1375.8957861870    -0.0000000048   0.000005391   0.000002779      530635313   18246294
  14 13  0    -1375.8957861879    -0.0000000008   0.000002321   0.000001005      497995227   18525378
  15 14  0    -1375.8957861874     0.0000000005   0.000001153   0.000000391      459775916   18860060
  16 15  0    -1375.8957861874     0.0000000000   0.000000451   0.000000130      425227761   19171727
  17 16  0    -1375.8957861875    -0.0000000001   0.000000160   0.000000043      385413094   19480305
  18 17  0    -1375.8957861874     0.0000000001   0.000000053   0.000000019      352720335   19739932

          -----------------
          DENSITY CONVERGED
          -----------------
     TIME TO FORM FOCK OPERATORS=      41.2 SECONDS (       2.3 SEC/ITER)
     FOCK TIME ON FIRST ITERATION=       4.1, LAST ITERATION=       1.1
     TIME TO SOLVE SCF EQUATIONS=       0.6 SECONDS (       0.0 SEC/ITER)

 FINAL RHF ENERGY IS    -1375.8957861874 AFTER  18 ITERATIONS
 ...... END OF RHF CALCULATION ......
 CPU     0: STEP CPU TIME=    71.40 TOTAL CPU TIME=        257.2 (      4.3 MIN)
 TOTAL WALL CLOCK TIME=        450.4 SECONDS, CPU UTILIZATION IS    57.12%
 DONE PCM POT.
 CPU     0: STEP CPU TIME=     0.42 TOTAL CPU TIME=        257.7 (      4.3 MIN)
 TOTAL WALL CLOCK TIME=        451.6 SECONDS, CPU UTILIZATION IS    57.06%

 Iter=  1 iFrag=      6 EFMO= -1432.118043426, DD= 0.440814643, DE=************


 RHF      monomer      9 corr= NONE       , L1=   371, L0=   348 ID=      4


 AO spaces for     9     0     0 n-mer: L1=   371, L0=   348

 DIRECT SCF CALCULATION, SCHWRZ=T   FDIFF=T,  DIRTHR=  0.00E+00 NITDIR=10

                                                                                   NONZERO     BLOCKS
 ITER EX DEM     TOTAL ENERGY        E CHANGE  DENSITY CHANGE     ORB. GRAD      INTEGRALS    SKIPPED
   1  0  0  1267631.4130863831*****************   0.528725473   0.000000000      815544139   15066413
          ---------------START SECOND ORDER SCF---------------
   2  1  0    -1375.8710525920*****************   0.419506504   0.112596311      819830558   15062561
   3  2  0    -1376.1275229148    -0.2564703228   0.175014990   0.066459992      814035042   15324059
   4  3  0    -1376.4909480336    -0.3634251188   0.056489618   0.012791582      802846891   15609072
   5  4  0    -1376.4994595436    -0.0085115099   0.015894704   0.005069570      783585685   15922846
   6  5  0    -1376.5009133932    -0.0014538497   0.003428869   0.002301441      760761337   16225313
   7  6  0    -1376.5011102624    -0.0001968691   0.001220421   0.000690315      732979233   16535091
   8  7  0    -1376.5011460970    -0.0000358346   0.000867682   0.000298411      703710837   16817684
   9  8  0    -1376.5011528138    -0.0000067168   0.000420942   0.000141838      678072779   17057206
  10  9  0    -1376.5011543201    -0.0000015063   0.000128698   0.000037219      646797602   17344070
  11 10  0    -1376.5011545343    -0.0000002142   0.000050066   0.000013101      622660657   17524758
  12 11  0    -1376.5011545600    -0.0000000257   0.000018418   0.000007808      588805750   17805114
  13 12  0    -1376.5011545638    -0.0000000038   0.000007809   0.000001885      544024867   18202544
  14 13  0    -1376.5011545644    -0.0000000006   0.000002315   0.000001072      509535860   18488863
  15 14  0    -1376.5011545649    -0.0000000005   0.000001095   0.000000429      469583740   18832288
  16 15  0    -1376.5011545660    -0.0000000011   0.000000357   0.000000144      432563632   19161422
  17 16  0    -1376.5011545646     0.0000000014   0.000000163   0.000000057      391760472   19459167

          -----------------
          DENSITY CONVERGED
          -----------------
     TIME TO FORM FOCK OPERATORS=      38.1 SECONDS (       2.2 SEC/ITER)
     FOCK TIME ON FIRST ITERATION=       2.3, LAST ITERATION=       1.3
     TIME TO SOLVE SCF EQUATIONS=       0.6 SECONDS (       0.0 SEC/ITER)

 FINAL RHF ENERGY IS    -1376.5011545646 AFTER  17 ITERATIONS
 ...... END OF RHF CALCULATION ......
 CPU     0: STEP CPU TIME=    69.71 TOTAL CPU TIME=        327.4 (      5.5 MIN)
 TOTAL WALL CLOCK TIME=        593.0 SECONDS, CPU UTILIZATION IS    55.21%
 DONE PCM POT.
 CPU     0: STEP CPU TIME=     0.41 TOTAL CPU TIME=        327.8 (      5.5 MIN)
 TOTAL WALL CLOCK TIME=        594.2 SECONDS, CPU UTILIZATION IS    55.16%

 Iter=  1 iFrag=      9 EFMO= -1432.136525538, DD= 0.438069630, DE=************


 RHF      monomer      8 corr= NONE       , L1=   371, L0=   348 ID=      5


 AO spaces for     8     0     0 n-mer: L1=   371, L0=   348

 DIRECT SCF CALCULATION, SCHWRZ=T   FDIFF=T,  DIRTHR=  0.00E+00 NITDIR=10

                                                                                   NONZERO     BLOCKS
 ITER EX DEM     TOTAL ENERGY        E CHANGE  DENSITY CHANGE     ORB. GRAD      INTEGRALS    SKIPPED
   1  0  0  1294239.8817454106*****************   0.522967496   0.000000000      827919342   14996541
          ---------------START SECOND ORDER SCF---------------
   2  1  0    -1371.8829567338*****************   0.411179606   0.090641586      832735168   14999026
   3  2  0    -1372.1528152954    -0.2698585616   0.174856800   0.077328960      826380412   15250252
   4  3  0    -1372.4976324114    -0.3448171161   0.051640269   0.012179052      812772762   15558081
   5  4  0    -1372.5057031975    -0.0080707861   0.013853427   0.003887515      792309565   15866326
   6  5  0    -1372.5070408210    -0.0013376235   0.003363836   0.002279204      767466425   16169737
   7  6  0    -1372.5072168075    -0.0001759865   0.001006580   0.000743223      739171642   16479864
   8  7  0    -1372.5072483328    -0.0000315253   0.000725175   0.000358652      707713862   16777933
   9  8  0    -1372.5072537750    -0.0000054423   0.000478495   0.000161721      680985490   17025073
  10  9  0    -1372.5072552672    -0.0000014922   0.000251920   0.000091161      655897501   17265292
  11 10  0    -1372.5072555678    -0.0000003006   0.000092704   0.000048486      635841310   17418427
  12 11  0    -1372.5072556468    -0.0000000790   0.000034060   0.000008862      599850100   17701457
  13 12  0    -1372.5072556561    -0.0000000092   0.000019045   0.000007351      564425872   18022510
  14 13  0    -1372.5072556566    -0.0000000005   0.000005334   0.000003237      527598566   18358196
  15 14  0    -1372.5072556571    -0.0000000005   0.000002578   0.000001036      497148899   18605630
  16 15  0    -1372.5072556571    -0.0000000001   0.000001089   0.000000515      456557228   18935436
  17 16  0    -1372.5072556566     0.0000000006   0.000000529   0.000000154      425605060   19205311
  18 17  0    -1372.5072556570    -0.0000000004   0.000000150   0.000000055      387962151   19485769
  19 18  0    -1372.5072556572    -0.0000000002   0.000000045   0.000000027      357289845   19720081

          -----------------
          DENSITY CONVERGED
          -----------------
     TIME TO FORM FOCK OPERATORS=      40.1 SECONDS (       2.1 SEC/ITER)
     FOCK TIME ON FIRST ITERATION=       2.8, LAST ITERATION=       1.2
     TIME TO SOLVE SCF EQUATIONS=       0.6 SECONDS (       0.0 SEC/ITER)

 FINAL RHF ENERGY IS    -1372.5072556572 AFTER  19 ITERATIONS
 ...... END OF RHF CALCULATION ......
 CPU     0: STEP CPU TIME=    65.01 TOTAL CPU TIME=        392.8 (      6.5 MIN)
 TOTAL WALL CLOCK TIME=        734.9 SECONDS, CPU UTILIZATION IS    53.45%
 DONE PCM POT.
 CPU     0: STEP CPU TIME=     0.42 TOTAL CPU TIME=        393.2 (      6.6 MIN)
 TOTAL WALL CLOCK TIME=        736.2 SECONDS, CPU UTILIZATION IS    53.41%

 Iter=  1 iFrag=      8 EFMO= -1432.147992942, DD= 0.446676953, DE=************


 RHF      monomer      3 corr= NONE       , L1=   341, L0=   320 ID=      6


 AO spaces for     3     0     0 n-mer: L1=   341, L0=   320

 DIRECT SCF CALCULATION, SCHWRZ=T   FDIFF=T,  DIRTHR=  0.00E+00 NITDIR=10

                                                                                   NONZERO     BLOCKS
 ITER EX DEM     TOTAL ENERGY        E CHANGE  DENSITY CHANGE     ORB. GRAD      INTEGRALS    SKIPPED
   1  0  0  1272563.8146384712*****************   0.522218070   0.000000000      660029066   10587461
          ---------------START SECOND ORDER SCF---------------
   2  1  0    -1312.1264815739*****************   0.412234991   0.091780286      663498878   10585493
   3  2  0    -1312.3425747175    -0.2160931436   0.170081103   0.077742686      659048522   10777113
   4  3  0    -1312.7813061139    -0.4387313964   0.072239599   0.020102434      649991540   11009154
   5  4  0    -1312.7949540400    -0.0136479261   0.012701827   0.007769796      638359383   11219418
   6  5  0    -1312.7970754367    -0.0021213967   0.004121465   0.001833103      617261861   11513227
   7  6  0    -1312.7972263227    -0.0001508860   0.001790249   0.001136034      592610943   11797291
   8  7  0    -1312.7972645078    -0.0000381851   0.000811481   0.000333597      572415786   12018678
   9  8  0    -1312.7972680990    -0.0000035912   0.000353600   0.000122729      544667900   12294227
  10  9  0    -1312.7972690178    -0.0000009188   0.000097807   0.000065410      520162566   12528300
  11 10  0    -1312.7972691410    -0.0000001232   0.000057648   0.000043721      498726344   12716805
  12 11  0    -1312.7972691702    -0.0000000292   0.000021725   0.000017712      475181569   12931761
  13 12  0    -1312.7972691752    -0.0000000050   0.000010071   0.000006226      444479071   13218735
  14 13  0    -1312.7972691757    -0.0000000005   0.000002613   0.000000929      417671047   13463908
  15 14  0    -1312.7972691766    -0.0000000009   0.000001221   0.000000554      386456222   13708625
  16 15  0    -1312.7972691765     0.0000000001   0.000000528   0.000000362      356790565   13958687
  17 16  0    -1312.7972691763     0.0000000002   0.000000156   0.000000142      326487470   14227795
  18 17  0    -1312.7972691765    -0.0000000001   0.000000075   0.000000030      296786421   14466369

          -----------------
          DENSITY CONVERGED
          -----------------
     TIME TO FORM FOCK OPERATORS=      32.0 SECONDS (       1.8 SEC/ITER)
     FOCK TIME ON FIRST ITERATION=       2.8, LAST ITERATION=       0.9
     TIME TO SOLVE SCF EQUATIONS=       0.5 SECONDS (       0.0 SEC/ITER)

 FINAL RHF ENERGY IS    -1312.7972691765 AFTER  18 ITERATIONS
 ...... END OF RHF CALCULATION ......
 CPU     0: STEP CPU TIME=    68.38 TOTAL CPU TIME=        461.6 (      7.7 MIN)
 TOTAL WALL CLOCK TIME=        874.0 SECONDS, CPU UTILIZATION IS    52.81%
 DONE PCM POT.
 CPU     0: STEP CPU TIME=     0.34 TOTAL CPU TIME=        461.9 (      7.7 MIN)
 TOTAL WALL CLOCK TIME=        875.1 SECONDS, CPU UTILIZATION IS    52.78%

 Iter=  1 iFrag=      3 EFMO= -1360.237733569, DD= 0.547924636, DE=************


 RHF      monomer     10 corr= NONE       , L1=   341, L0=   320 ID=      7


 AO spaces for    10     0     0 n-mer: L1=   341, L0=   320

 DIRECT SCF CALCULATION, SCHWRZ=T   FDIFF=T,  DIRTHR=  0.00E+00 NITDIR=10

                                                                                   NONZERO     BLOCKS
 ITER EX DEM     TOTAL ENERGY        E CHANGE  DENSITY CHANGE     ORB. GRAD      INTEGRALS    SKIPPED
   1  0  0  1257798.7618460564*****************   0.527938426   0.000000000      654673641   10634879
          ---------------START SECOND ORDER SCF---------------
   2  1  0    -1318.6303270847*****************   0.417299588   0.097795616      658342473   10635012
   3  2  0    -1318.8617932496    -0.2314661649   0.173647456   0.083927760      653373751   10838922
   4  3  0    -1319.2635969462    -0.4018036966   0.055829353   0.014130557      643751426   11072802
   5  4  0    -1319.2749342275    -0.0113372813   0.013019330   0.004748183      630383327   11299999
   6  5  0    -1319.2763921571    -0.0014579296   0.003695228   0.002195280      608331983   11591340
   7  6  0    -1319.2765329190    -0.0001407618   0.001400820   0.001200063      584831620   11850504
   8  7  0    -1319.2765625226    -0.0000296036   0.000671178   0.000272174      561934867   12098003
   9  8  0    -1319.2765658773    -0.0000033548   0.000293198   0.000088194      535059235   12358775
  10  9  0    -1319.2765665093    -0.0000006320   0.000107584   0.000023334      508328038   12607559
  11 10  0    -1319.2765665974    -0.0000000881   0.000029106   0.000012867      484697233   12800430
  12 11  0    -1319.2765666092    -0.0000000119   0.000012175   0.000007364      457506693   13048634
  13 12  0    -1319.2765666109    -0.0000000016   0.000005070   0.000001940      420287378   13395253
  14 13  0    -1319.2765666117    -0.0000000009   0.000001753   0.000000494      392690436   13636727
  15 14  0    -1319.2765666110     0.0000000007   0.000000706   0.000000225      356650373   13940567
  16 15  0    -1319.2765666121    -0.0000000010   0.000000188   0.000000106      329620056   14190790
  17 16  0    -1319.2765666117     0.0000000004   0.000000104   0.000000041      298447211   14447134

          -----------------
          DENSITY CONVERGED
          -----------------
     TIME TO FORM FOCK OPERATORS=      30.0 SECONDS (       1.8 SEC/ITER)
     FOCK TIME ON FIRST ITERATION=       2.0, LAST ITERATION=       1.0
     TIME TO SOLVE SCF EQUATIONS=       0.5 SECONDS (       0.0 SEC/ITER)

 FINAL RHF ENERGY IS    -1319.2765666117 AFTER  17 ITERATIONS
 ...... END OF RHF CALCULATION ......
 CPU     0: STEP CPU TIME=    52.46 TOTAL CPU TIME=        514.4 (      8.6 MIN)
 TOTAL WALL CLOCK TIME=        989.7 SECONDS, CPU UTILIZATION IS    51.97%
 DONE PCM POT.
 CPU     0: STEP CPU TIME=     0.33 TOTAL CPU TIME=        514.7 (      8.6 MIN)
 TOTAL WALL CLOCK TIME=        990.8 SECONDS, CPU UTILIZATION IS    51.95%

 Iter=  1 iFrag=     10 EFMO= -1360.209117691, DD= 0.511185737, DE=************


 RHF      monomer      5 corr= NONE       , L1=   341, L0=   320 ID=      8


 AO spaces for     5     0     0 n-mer: L1=   341, L0=   320

 DIRECT SCF CALCULATION, SCHWRZ=T   FDIFF=T,  DIRTHR=  0.00E+00 NITDIR=10

                                                                                   NONZERO     BLOCKS
 ITER EX DEM     TOTAL ENERGY        E CHANGE  DENSITY CHANGE     ORB. GRAD      INTEGRALS    SKIPPED
   1  0  0  1346133.1004850699*****************   0.507070331   0.000000000      621031975   10909787
          ---------------START SECOND ORDER SCF---------------
   2  1  0    -1306.8788878920*****************   0.391972302   0.095521615      624262686   10912385
   3  2  0    -1307.1243303535    -0.2454424615   0.157762436   0.077167524      620182811   11089328
   4  3  0    -1307.5433799355    -0.4190495820   0.072292999   0.021059862      611477822   11306523
   5  4  0    -1307.5563769389    -0.0129970035   0.012613225   0.008257369      601087807   11495597
   6  5  0    -1307.5583998448    -0.0020229059   0.004459337   0.001633119      581947549   11764532
   7  6  0    -1307.5585409768    -0.0001411320   0.001947733   0.000996274      559006472   12019428
   8  7  0    -1307.5585791935    -0.0000382166   0.000676997   0.000294809      540144376   12231461
   9  8  0    -1307.5585826253    -0.0000034318   0.000295338   0.000107755      514702163   12480534
  10  9  0    -1307.5585834993    -0.0000008740   0.000102191   0.000061631      490124739   12715011
  11 10  0    -1307.5585836184    -0.0000001191   0.000033786   0.000029476      471761113   12886304
  12 11  0    -1307.5585836453    -0.0000000269   0.000018063   0.000008452      447537899   13098815
  13 12  0    -1307.5585836476    -0.0000000023   0.000006499   0.000004648      417000435   13379262
  14 13  0    -1307.5585836484    -0.0000000008   0.000002407   0.000000693      390915428   13625627
  15 14  0    -1307.5585836484     0.0000000000   0.000001005   0.000000407      361895690   13876982
  16 15  0    -1307.5585836490    -0.0000000007   0.000000344   0.000000230      333592295   14126827
  17 16  0    -1307.5585836491    -0.0000000001   0.000000153   0.000000061      307481737   14350479

          -----------------
          DENSITY CONVERGED
          -----------------
     TIME TO FORM FOCK OPERATORS=      27.8 SECONDS (       1.6 SEC/ITER)
     FOCK TIME ON FIRST ITERATION=       2.1, LAST ITERATION=       1.0
     TIME TO SOLVE SCF EQUATIONS=       0.5 SECONDS (       0.0 SEC/ITER)

 FINAL RHF ENERGY IS    -1307.5585836491 AFTER  17 ITERATIONS
 ...... END OF RHF CALCULATION ......
 CPU     0: STEP CPU TIME=    44.96 TOTAL CPU TIME=        559.7 (      9.3 MIN)
 TOTAL WALL CLOCK TIME=       1093.7 SECONDS, CPU UTILIZATION IS    51.17%
 DONE PCM POT.
 CPU     0: STEP CPU TIME=     0.35 TOTAL CPU TIME=        560.0 (      9.3 MIN)
 TOTAL WALL CLOCK TIME=       1094.8 SECONDS, CPU UTILIZATION IS    51.15%

 Iter=  1 iFrag=      5 EFMO= -1360.275278515, DD= 0.540694533, DE=************


 RHF      monomer      7 corr= NONE       , L1=   339, L0=   318 ID=      9


 AO spaces for     7     0     0 n-mer: L1=   339, L0=   318

 DIRECT SCF CALCULATION, SCHWRZ=T   FDIFF=T,  DIRTHR=  0.00E+00 NITDIR=10

                                                                                   NONZERO     BLOCKS
 ITER EX DEM     TOTAL ENERGY        E CHANGE  DENSITY CHANGE     ORB. GRAD      INTEGRALS    SKIPPED
   1  0  0  1296904.7432489533*****************   0.515528594   0.000000000      612239906    9826545
          ---------------START SECOND ORDER SCF---------------
   2  1  0    -1336.4676975115*****************   0.387433828   0.141169387      614801784    9834096
   3  2  0    -1336.6146499093    -0.1469523978   0.163468904   0.092029641      611959634    9979935
   4  3  0    -1337.2812781224    -0.6666282131   0.090164125   0.030576944      605008872   10179242
   5  4  0    -1337.2860540813    -0.0047759589   0.168857031   0.056523061      599855341   10299543
   6  5  0    -1337.1990616327     0.0869924486   0.119726647   0.115132643      600455474   10290550
   7  6  0    -1337.3051813370    -0.1061197043   0.034233060   0.010079098      602074814   10254550
   8  7  0    -1337.3062331518    -0.0010518147   0.042630396   0.018087338      589209096   10495899
   9  8  0    -1337.3081399011    -0.0019067493   0.026828860   0.014278259      580815691   10631143
  10  9  0    -1337.3085857598    -0.0004458587   0.027193101   0.011885493      581876660   10612295
  11 10  0    -1337.3094373453    -0.0008515856   0.016438689   0.009874075      569532722   10786599
  12 11  0    -1337.3102335392    -0.0007961939   0.008817275   0.002172785      572641716   10724287
  13 12  0    -1337.3104067757    -0.0001732365   0.007574631   0.002083062      558126978   10904992
  14 13  0    -1337.3104345419    -0.0000277662   0.003725490   0.001498027      544492572   11056447
  15 14  0    -1337.3104665457    -0.0000320039   0.001619082   0.000382025      537191280   11133515
