‘1SZY_6_fmo_input.inp’ -> ‘/scratch/hazwong/820824/./1SZY_6_fmo_input.inp’
‘rungms’ -> ‘/scratch/hazwong/820824/./rungms’
‘gms-files.csh’ -> ‘/scratch/hazwong/820824/./gms-files.csh’
----- GAMESS execution script 'rungms' -----
This job is running on host gollum089.lsa.umich.edu
under operating system Linux at Fri Dec 6 00:37:13 EST 2019
Available scratch disk space (Kbyte units) at beginning of the job is
Filesystem     1K-blocks  Used Available Use% Mounted on
/dev/sda4      426933580 33260 426900320   1% /scratch
GAMESS temporary binary files will be written to /scratch/hazwong/820824/1SZY_6/usrc
GAMESS supplementary output files will be written to /scratch/hazwong/820824/1SZY_6/src
Copying input file 1SZY_6_fmo_input.inp to your run's scratch directory...
cp 1SZY_6_fmo_input.inp /scratch/hazwong/820824/1SZY_6/usrc/1SZY_6_fmo_input.F05
unset echo
This is a GDDI run, keeping various output files on local disks
setenv OUTPUT /scratch/hazwong/820824/1SZY_6/usrc/1SZY_6_fmo_input.F06
setenv PUNCH /scratch/hazwong/820824/1SZY_6/usrc/1SZY_6_fmo_input.F07
unset echo
 
Assuming a single but multicore node.
 
/export/apps/CentOS7/gamess/src/build//ddikick.x /export/apps/CentOS7/gamess/src/build//gamess.R3.x 1SZY_6_fmo_input -ddi 1 16 gollum089.lsa.umich.edu:cpus=16 -scr /scratch/hazwong/820824/1SZY_6/usrc

 Distributed Data Interface kickoff program.
 Initiating 16 compute processes on 1 nodes to run the following command:
 /export/apps/CentOS7/gamess/src/build//gamess.R3.x 1SZY_6_fmo_input 

          ******************************************************
          *         GAMESS VERSION = 30 SEP 2018 (R3)         *
          *             FROM IOWA STATE UNIVERSITY             *
          * M.W.SCHMIDT, K.K.BALDRIDGE, J.A.BOATZ, S.T.ELBERT, *
          *   M.S.GORDON, J.H.JENSEN, S.KOSEKI, N.MATSUNAGA,   *
          *          K.A.NGUYEN, S.J.SU, T.L.WINDUS,           *
          *       TOGETHER WITH M.DUPUIS, J.A.MONTGOMERY       *
          *         J.COMPUT.CHEM.  14, 1347-1363(1993)        *
          **************** 64 BIT LINUX VERSION ****************

  SINCE 1993, STUDENTS AND POSTDOCS WORKING AT IOWA STATE UNIVERSITY
  AND ALSO IN THEIR VARIOUS JOBS AFTER LEAVING ISU HAVE MADE IMPORTANT
  CONTRIBUTIONS TO THE CODE:
     IVANA ADAMOVIC, CHRISTINE AIKENS, YURI ALEXEEV, POOJA ARORA,
     ANDREY ASADCHEV, ROB BELL, PRADIPTA BANDYOPADHYAY, JONATHAN BENTZ,
     BRETT BODE, KURT BRORSEN, CALEB CARLIN, GALINA CHABAN, WEI CHEN,
     CHEOL HO CHOI, PAUL DAY, ALBERT DEFUSCO, NUWAN DESILVA, TIM DUDLEY,
     DMITRI FEDOROV, ALEX FINDLATER, GRAHAM FLETCHER, MARK FREITAG,
     KURT GLAESEMANN, ANASTASIA GUNINA,
     DAN KEMP, GRANT MERRILL, NORIYUKI MINEZAWA, JONATHAN MULLIN,
     TAKESHI NAGATA, SEAN NEDD, HEATHER NETZLOFF, BOSILJKA NJEGIC, RYAN OLSON,
     MIKE PAK, BUU PHAM,
     SPENCER PRUITT, LUKE ROSKOP, JIM SHOEMAKER, LYUDMILA SLIPCHENKO,
     TONY SMITH, SAROM SOK LEANG, JIE SONG, TETSUYA TAKETSUGU, SIMON WEBB,
     PENG XU, SOOHAENG YOO, FEDERICO ZAHARIEV

  ADDITIONAL CODE HAS BEEN PROVIDED BY COLLABORATORS IN OTHER GROUPS:
     IOWA STATE UNIVERSITY:
          JOE IVANIC, AARON WEST, LAIMUTIS BYTAUTAS, KLAUS RUEDENBERG
     UNIVERSITY OF TOKYO: KIMIHIKO HIRAO, TAKAHITO NAKAJIMA,
          TAKAO TSUNEDA, MUNEAKI KAMIYA, SUSUMU YANAGISAWA,
          KIYOSHI YAGI, MAHITO CHIBA, SEIKEN TOKURA, NAOAKI KAWAKAMI
     UNIVERSITY OF AARHUS: FRANK JENSEN
     UNIVERSITY OF IOWA: VISVALDAS KAIRYS, HUI LI
     NATIONAL INST. OF STANDARDS AND TECHNOLOGY: WALT STEVENS, DAVID GARMER
     UNIVERSITY OF PISA: BENEDETTA MENNUCCI, JACOPO TOMASI
     UNIVERSITY OF MEMPHIS: HENRY KURTZ, PRAKASHAN KORAMBATH
     UNIVERSITY OF ALBERTA: TOBY ZENG, MARIUSZ KLOBUKOWSKI
     UNIVERSITY OF NEW ENGLAND: MARK SPACKMAN
     MIE UNIVERSITY: HIROAKI UMEDA
     NAT. INST. OF ADVANCED INDUSTRIAL SCIENCE AND TECHNOLOGY: KAZUO KITAURA
     MICHIGAN STATE UNIVERSITY:
          KAROL KOWALSKI, MARTA WLOCH, JEFFREY GOUR, JESSE LUTZ,
          WEI LI, JUN SHEN, J. EMILIANO DEUSTUA, PIOTR PIECUCH
     UNIVERSITY OF MINNESOTA:
          YINAN SHU
     UNIVERSITY OF SILESIA: MONIKA MUSIAL, STANISLAW KUCHARSKI
     FACULTES UNIVERSITAIRES NOTRE-DAME DE LA PAIX:
          OLIVIER QUINET, BENOIT CHAMPAGNE
     UNIVERSITY OF CALIFORNIA - SANTA BARBARA: BERNARD KIRTMAN
     INSTITUTE FOR MOLECULAR SCIENCE:
          KAZUYA ISHIMURA, MICHIO KATOUDA, AND SHIGERU NAGASE
     UNIVERSITY OF NOTRE DAME: ANNA POMOGAEVA, DAN CHIPMAN
     KYUSHU UNIVERSITY:
          HARUYUKI NAKANO,
          FENG LONG GU, JACEK KORCHOWIEC, MARCIN MAKOWSKI, AND YURIKO AOKI,
          HIROTOSHI MORI AND EISAKU MIYOSHI
     PENNSYLVANIA STATE UNIVERSITY:
          TZVETELIN IORDANOV, CHET SWALINA, JONATHAN SKONE,
          SHARON HAMMES-SCHIFFER
     WASEDA UNIVERSITY:
          MASATO KOBAYASHI, TOMOKO AKAMA, TSUGUKI TOUMA,
          TAKESHI YOSHIKAWA, YASUHIRO IKABATA, JUNJI SEINO,
          YUYA NAKAJIMA, HIROMI NAKAI
     NANJING UNIVERSITY: SHUHUA LI
     UNIVERSITY OF NEBRASKA:
          PEIFENG SU, DEJUN SI, NANDUN THELLAMUREGE, YALI WANG, HUI LI
     UNIVERSITY OF ZURICH: ROBERTO PEVERATI, KIM BALDRIDGE
     N. COPERNICUS UNIVERSITY AND JACKSON STATE UNIVERSITY:
          MARIA BARYSZ
     UNIVERSITY OF COPENHAGEN: Jimmy Kromann, CASPER STEINMANN
     TOKYO INSTITUTE OF TECHNOLOGY: HIROYA NAKATA
     NAGOYA UNIVERSITY: YOSHIO NISHIMOTO, STEPHAN IRLE
     MOSCOW STATE UNIVERSITY: VLADIMIR MIRONOV


 PARALLEL VERSION RUNNING ON       16 PROCESSORS IN        1 NODES.

 EXECUTION OF GAMESS BEGUN Fri Dec  6 00:37:14 2019

            ECHO OF THE FIRST FEW INPUT CARDS -
 INPUT CARD>!*** FMO 5.3 (Gamess) INPUT generated by Facio 22.1.1.32 ***                    
 INPUT CARD> $CONTRL RUNTYP=ENERGY NPRINT=-5 ISPHER=1 MAXIT=200 $END                        
 INPUT CARD> $SYSTEM MWORDS=63 MEMDDI=63 $END                                               
 INPUT CARD> $GDDI NGROUP=1 $END                                                            
 INPUT CARD> $SCF DIRSCF=.TRUE. NPUNCH=0 $END                                               
 INPUT CARD>!*** NumCPU : 2  MemPerNode : 512MB                                             
 INPUT CARD> $PCM SOLVNT=WATER IEF=-10 ICOMP=2 ICAV=1 IDISP=1 IFMO=-1 $END                  
 INPUT CARD> $PCMCAV RADII=SUAHF $END                                                       
 INPUT CARD> $TESCAV NTSALL=60 $END                                                         
 INPUT CARD> $FMOPRP                                                                        
 INPUT CARD>    NAODIR=200                                                                  
 INPUT CARD>    NGRFMO(1)=1, 1, 0, 0, 0,   0, 0, 0, 0, 0                                    
 INPUT CARD>    IPIEDA=1                                                                    
 INPUT CARD>    NPRINT=9                                                                    
 INPUT CARD> $END                                                                           
 INPUT CARD> $FMO                                                                           
 INPUT CARD>      SCFTYP(1)=RHF                                                             
 INPUT CARD>      MODGRD=10                                                                 
 INPUT CARD>      MODMUL=0                                                                  
 INPUT CARD>      MAXCAO=5                                                                  
 INPUT CARD>      MAXBND=13                                                                 
 INPUT CARD>      NLAYER=1                                                                  
 INPUT CARD>      MPLEVL(1)=2                                                               
 INPUT CARD>      NFRAG=11                                                                  
 INPUT CARD>      ICHARG(1)=-1, -1, -1, -1, -1, -1, -1, -1, -1, -1, 0                       
 INPUT CARD>      FRGNAM(1)=F1, F2, F3, F4, F5, F6, F7, F8, F9, F10, F11                    
 INPUT CARD>      indat(1)=0                                                                
 INPUT CARD>               1   -36   0                                                      
 INPUT CARD>               37   -70   0                                                     
 INPUT CARD>               71   -101   0                                                    
 INPUT CARD>               102   -131   0                                                   
 INPUT CARD>               132   -162   0                                                   
 INPUT CARD>               163   -195   0                                                   
 INPUT CARD>               196   -225   0                                                   
 INPUT CARD>               226   -258   0                                                   
 INPUT CARD>               259   -291   0                                                   
 INPUT CARD>               292   -322   0                                                   
 INPUT CARD>               323   -350   0                                                   
 INPUT CARD> $END                                                                           
 INPUT CARD>                                                                                
 INPUT CARD> $FMOBND                                                                        
 INPUT CARD>   -37   36       6-31G*    MINI                                                
 INPUT CARD>   -71   70       6-31G*    MINI                                                
 INPUT CARD>   -102   101       6-31G*    MINI                                              
 INPUT CARD>   -132   131       6-31G*    MINI                                              
 INPUT CARD>   -163   162       6-31G*    MINI                                              
 INPUT CARD>   -196   195       6-31G*    MINI                                              
 INPUT CARD>   -226   225       6-31G*    MINI                                              
 INPUT CARD>   -259   258       6-31G*    MINI                                              
 INPUT CARD>   -292   291       6-31G*    MINI                                              


 -------------------------------------------------------------
 GROUP DDI, PROGRAMMED BY: RYAN M. OLSON AND DMITRI G. FEDOROV
        FEDOROV ET AL., J. COMPUT. CHEM., 25 (2004) 872.
 -------------------------------------------------------------

 -------------------------------------------------------
 GDDI: INITIALIZATION COMPLETED FOR GROUP     1 OF     1
 WITH    16 PROCESSES BALTYP=DLB   global rank=        0
 -------------------------------------------------------

   63000000 WORDS OF MEMORY AVAILABLE


     RUN TITLE
     ---------
  FMO calculation                                                                

 THE POINT GROUP OF THE MOLECULE IS C1      
 THE ORDER OF THE PRINCIPAL AXIS IS     0

 ATOM   ATOMIC CHARGE
 H.1-1       1.0
 O.1-1       8.0
 C.1-1       6.0
 N.1-1       7.0
 P.1-1      15.0

     ATOMIC BASIS SET LIBRARY
     ----------------
 THE CONTRACTED PRIMITIVE FUNCTIONS HAVE BEEN UNNORMALIZED
 THE CONTRACTED BASIS FUNCTIONS ARE NOW NORMALIZED TO UNITY

  SHELL TYPE  PRIMITIVE        EXPONENT          CONTRACTION COEFFICIENT(S)

 H.1-1     

      1   S       1            18.7311370    0.033494604338
      1   S       2             2.8253944    0.234726953484
      1   S       3             0.6401217    0.813757326146

      2   S       4             0.1612778    1.000000000000

 O.1-1     

      3   S       5          5484.6716600    0.001831074430
      3   S       6           825.2349460    0.013950172200
      3   S       7           188.0469580    0.068445078098
      3   S       8            52.9645000    0.232714335992
      3   S       9            16.8975704    0.470192897984
      3   S      10             5.7996353    0.358520852987

      4   L      11            15.5396162   -0.110777549525    0.070874268231
      4   L      12             3.5999336   -0.148026262701    0.339752839147
      4   L      13             1.0137618    1.130767015354    0.727158577316

      5   L      14             0.2700058    1.000000000000    1.000000000000

      6   D      15             0.8000000    1.000000000000

 C.1-1     

      7   S      16          3047.5248800    0.001834737132
      7   S      17           457.3695180    0.014037322813
      7   S      18           103.9486850    0.068842622264
      7   S      19            29.2101553    0.232184443216
      7   S      20             9.2866630    0.467941348435
      7   S      21             3.1639270    0.362311985337

      8   L      22             7.8682723   -0.119332419775    0.068999066591
      8   L      23             1.8812885   -0.160854151696    0.316423960957
      8   L      24             0.5442493    1.143456437840    0.744308290898

      9   L      25             0.1687145    1.000000000000    1.000000000000

     10   D      26             0.8000000    1.000000000000

 N.1-1     

     11   S      27          4173.5114600    0.001834772160
     11   S      28           627.4579110    0.013994627002
     11   S      29           142.9020930    0.068586551812
     11   S      30            40.2343293    0.232240873040
     11   S      31            12.8202129    0.469069948082
     11   S      32             4.3904370    0.360455199063

     12   L      33            11.6263619   -0.114961181702    0.067579743878
     12   L      34             2.7162798   -0.169117478561    0.323907295893
     12   L      35             0.7722184    1.145851947027    0.740895139755

     13   L      36             0.2120315    1.000000000000    1.000000000000

     14   D      37             0.8000000    1.000000000000

 P.1-1     

     15   S      38         19413.3000000    0.001851598923
     15   S      39          2909.4200000    0.014206191735
     15   S      40           661.3640000    0.069999459277
     15   S      41           185.7590000    0.240078860331
     15   S      42            59.1943000    0.484761717984
     15   S      43            20.0310000    0.335199804993

     16   L      44           339.4780000   -0.002782170105    0.004564616191
     16   L      45            81.0101000   -0.036049901354    0.033693571881
     16   L      46            25.8780000   -0.116631004382    0.139754883368
     16   L      47             9.4522100    0.096832803638    0.339361716786
     16   L      48             3.6656600    0.614418023082    0.450920623685
     16   L      49             1.4674600    0.403798015170    0.238585800889

     17   L      50             2.1562300   -0.252924113863   -0.017765312733
     17   L      51             0.7489970    0.032851844678    0.274058196433
     17   L      52             0.2831450    1.081254761783    0.785421562957

     18   L      53             0.0998317    1.000000000000    1.000000000000

     19   D      54             0.5500000    1.000000000000

 TOTAL NUMBER OF BASIS SET SHELLS             =   19
 NUMBER OF CARTESIAN GAUSSIAN BASIS FUNCTIONS =   66

     $CONTRL OPTIONS
     ---------------
 SCFTYP=RHF          RUNTYP=ENERGY       EXETYP=RUN     
 MPLEVL=       0     CITYP =NONE         CCTYP =NONE         VBTYP =NONE    
 DFTTYP=NONE         TDDFT =NONE    
 MULT  =       1     ICHARG=       0     NZVAR =       0     COORD =UNIQUE  
 PP    =NONE         RELWFN=NONE         LOCAL =NONE         NUMGRD=       F
 ISPHER=       1     NOSYM =       0     MAXIT =     200     UNITS =ANGS    
 PLTORB=       F     MOLPLT=       F     AIMPAC=       F     FRIEND=        
 NPRINT=      -5     IREST =       0     GEOM  =INPUT   
 NORMF =       0     NORMP =       0     ITOL  =      24     ICUT  =      12
 INTTYP=BEST         GRDTYP=BEST         QMTTOL= 1.0E-06

     $SYSTEM OPTIONS
     ---------------
  REPLICATED MEMORY=    63000000 WORDS (ON EVERY NODE).
 DISTRIBUTED MEMDDI=          63 MILLION WORDS IN AGGREGATE,
 MEMDDI DISTRIBUTED OVER  16 PROCESSORS IS     3937500 WORDS/PROCESSOR.
 TOTAL MEMORY REQUESTED ON EACH PROCESSOR=    66937500 WORDS.
 TIMLIM=      525600.00 MINUTES, OR     365.0 DAYS.
 PARALL= T  BALTYP=  DLB     KDIAG=    0  COREFL= F
 MXSEQ2=     300 MXSEQ3=     150  mem10=         0

 ** LOOKING UP INTERNALLY STORED DATA FOR SOLVENT=WATER    **
 OPTICAL AND PHYSICAL CONSTANTS:
 EPS= 78.390; EPSINF=  1.776; RSOLV=  1.385 A; VMOL=  18.070 ML/MOL;
 TCE= .25700E-03 1/K; STEN= 71.810 DYN/CM;  DSTEN=  0.6500; CMF=  1.2770


     -----------------------------------
     INPUT FOR PCM SOLVATION CALCULATION 
     -----------------------------------
     IEF   =     -10
     ICOMP =       2     IFIELD=       0     ICAV  =       1
     IDISP =       1     IREP  =       0     IDP   =       0

     SOLVNT=WATER        EPS   = 78.3900     EPSINF=  1.7760
     VMOL  = 18.0700     TCE   =  0.00025700 STEN  = 71.8100
     DSTEN =  0.6500     CMF   =  1.2770     RSOLV =  1.3850

     NESFP =       0
     OMEGA = 40.0000     RET   =100.0000     FRO   =  0.7000

     TABS  =298.0000     IPRINT=       0

     --------------------------------
     INPUT FOR ITERATIVE C-PCM METHOD 
     --------------------------------
     IPCMIT  =         1     MXDIIS  =        50
     MXITR1  =       200     MXITR2  =       200
     THRES   = 0.100E-09     IMUL    =         3
     RCUT(1) =   20.0000     RCUT(2) =   50.0000

     IDIRCT  =         1
     IMGABI  =         0     RABI    =    4.0000
     IMGASC  =         0     RASC    =   20.0000
     THRSLS  = 0.500E-03     DENSLS  =    0.0100
     IEFPOL  =         1     REFPOL  =    0.0000

     INPUT FOR ISOTROPIC DIELECTRICS
     -------------------------------
     EPS=    78.39

          ----------------
          PROPERTIES INPUT
          ----------------

     MOMENTS            FIELD           POTENTIAL          DENSITY
 IEMOM =       1   IEFLD =       0   IEPOT =       0   IEDEN =       0
 WHERE =COMASS     WHERE =NUCLEI     WHERE =NUCLEI     WHERE =NUCLEI  
 OUTPUT=BOTH       OUTPUT=BOTH       OUTPUT=NONE       OUTPUT=BOTH    
 IEMINT=       0   IEFINT=       0                     IEDINT=       0
                                                       MORB  =       0
          EXTRAPOLATION IN EFFECT
          SOSCF IN EFFECT
 ORBITAL PRINTING OPTION: NPREO=     1 32767     2     1

     -------------------------------
     INTEGRAL TRANSFORMATION OPTIONS
     -------------------------------
     NWORD  =            0
     CUTOFF = 1.0E-10     MPTRAN =       0
     DIRTRF =       T     AOINTS =DUP     

          ----------------------
          INTEGRAL INPUT OPTIONS
          ----------------------
 NOPK  =       1 NORDER=       0 SCHWRZ=       T

 ..... DONE SETTING UP THE RUN .....
 CPU     0: STEP CPU TIME=     0.04 TOTAL CPU TIME=          0.0 (      0.0 MIN)
 TOTAL WALL CLOCK TIME=          0.1 SECONDS, CPU UTILIZATION IS    44.44%
 CPU     0: STEP CPU TIME=     0.00 TOTAL CPU TIME=          0.0 (      0.0 MIN)
 TOTAL WALL CLOCK TIME=          0.1 SECONDS, CPU UTILIZATION IS    44.44%

                    ----------------------
                    AO INTEGRAL TECHNOLOGY
                    ----------------------
     S,P,L SHELL ROTATED AXIS INTEGRALS, REPROGRAMMED BY
        KAZUYA ISHIMURA (IMS) AND JOSE SIERRA (SYNSTAR).
     S,P,D,L SHELL ROTATED AXIS INTEGRALS PROGRAMMED BY
        KAZUYA ISHIMURA (INSTITUTE FOR MOLECULAR SCIENCE).
     S,P,D,F,G SHELL TO TOTAL QUARTET ANGULAR MOMENTUM SUM 5,
        ERIC PROGRAM BY GRAHAM FLETCHER (ELORET AND NASA ADVANCED
        SUPERCOMPUTING DIVISION, AMES RESEARCH CENTER).
     S,P,D,F,G,L SHELL GENERAL RYS QUADRATURE PROGRAMMED BY
        MICHEL DUPUIS (PACIFIC NORTHWEST NATIONAL LABORATORY).
 Setting modorb=1 flag...
 Setting modorb=1 flag...

          -----------------------
          MP2 CONTROL INFORMATION
          -----------------------
          NACORE =        8  NBCORE =        8
          LMOMP2 =        F  AOINTS = DUP     
          METHOD =        2  NWORD  =               0
          MP2PRP =        F  OSPT   = NONE    
          CUTOFF = 1.00E-12  CPHFBS = BASISAO 
          CODE   = IMS     

          NUMBER OF CORE -A-  ORBITALS =     8
          NUMBER OF CORE -B-  ORBITALS =     8
          NUMBER OF OCC. -A-  ORBITALS =    18
          NUMBER OF OCC. -B-  ORBITALS =    18
          NUMBER OF MOLECULAR ORBITALS =    66
          NUMBER OF   BASIS  FUNCTIONS =    66

 CPU     0: STEP CPU TIME=     0.02 TOTAL CPU TIME=          0.1 (      0.0 MIN)
 TOTAL WALL CLOCK TIME=          0.1 SECONDS, CPU UTILIZATION IS    50.00%
 CPU     0: STEP CPU TIME=     0.00 TOTAL CPU TIME=          0.1 (      0.0 MIN)
 TOTAL WALL CLOCK TIME=          0.1 SECONDS, CPU UTILIZATION IS    50.00%

     INPUT FOR CAVITY DEFINITION 
     ---------------------------
   ATOM               COORDINATES                RADIUS       EPS
      1     -0.9710     -9.1830     -0.8690      0.0100     78.3900
      2     -1.2080     -8.6870     -0.0600      1.5900     78.3900
      3     -1.1480     -9.6100      1.0360      1.7700     78.3900
      4     -0.1160    -10.0240      1.1150      0.0100     78.3900
      5     -1.8370    -10.4580      0.8350      0.0100     78.3900
      6     -1.5390     -8.9750      2.3730      1.7700     78.3900
      7     -1.6010     -9.7460      3.1680      0.0100     78.3900
      8     -0.5190     -8.0180      2.7780      1.5900     78.3900
      9     -1.1440     -6.9420      3.4640      1.7700     78.3900
     10     -0.6730     -6.8840      4.4720      0.0100     78.3900
     11     -0.9350     -5.6660      2.7700      1.6800     78.3900
     12     -1.1230     -4.4150      3.2950      1.7700     78.3900
     13     -2.0340     -2.3490      5.9270      1.6800     78.3900
     14     -2.2760     -2.9970      6.6440      0.0100     78.3900
     15     -2.0190     -1.3700      6.1430      0.0100     78.3900
     16     -1.5430     -4.1330      4.5440      1.6800     78.3900
     17     -1.6170     -2.8210      4.7660      1.7700     78.3900
     18     -1.2640     -1.8840      3.8330      1.6800     78.3900
     19     -1.3220     -0.9110      4.0930      0.0100     78.3900
     20     -0.8210     -2.1470      2.5440      1.7700     78.3900
     21     -0.5150     -1.2370      1.7670      1.5900     78.3900
     22     -0.7700     -3.5390      2.2860      1.7700     78.3900
     23     -0.3800     -4.2240      1.1400      1.6800     78.3900
     24     -0.4990     -5.4880      1.4750      1.7700     78.3900
     25     -0.2790     -6.3440      0.8320      0.0100     78.3900
     26     -2.6100     -7.2830      3.6060      1.7700     78.3900
     27     -3.2610     -6.3870      3.5980      0.0100     78.3900
     28     -2.8180     -8.0080      4.8020      1.5900     78.3900
     29     -3.7270     -8.3300      4.7690      0.0100     78.3900
     30     -2.8410     -8.1580      2.3800      1.7700     78.3900
     31     -2.8410     -7.5370      1.4540      0.0100     78.3900
     32     -3.9860     -9.0400      2.4720      1.5900     78.3900
     33     -5.3800     -8.5270      1.9410      2.1000     78.3900
     34     -6.3490     -9.6450      1.9840      1.5900     78.3900
     35     -5.1790     -7.8710      0.6360      1.5900     78.3900
     36     -5.7990     -7.4300      2.9840      1.5900     78.3900
     37     -6.1380     -7.7940      4.3430      1.7700     78.3900
     38     -5.3220     -8.3700      4.8280      0.0100     78.3900
     39     -7.0500     -8.4310      4.3580      0.0100     78.3900
     40     -6.4150     -6.5480      5.1940      1.7700     78.3900
     41     -6.6200     -6.8210      6.2510      0.0100     78.3900
     42     -5.2560     -5.6700      5.1930      1.5900     78.3900
     43     -5.6860     -4.3170      5.1820      1.7700     78.3900
     44     -5.2660     -3.8480      6.1050      0.0100     78.3900
     45     -5.1790     -3.5980      4.0050      1.6800     78.3900
     46     -5.1450     -2.2410      3.8300      1.7700     78.3900
     47     -5.8260      0.9700      4.9540      1.6800     78.3900
     48     -6.3050      0.8150      5.8150      0.0100     78.3900
     49     -5.6410      1.9110      4.6580      0.0100     78.3900
     50     -5.6000     -1.3200      4.6970      1.6800     78.3900
     51     -5.4150     -0.0740      4.2590      1.7700     78.3900
     52     -4.8220      0.2160      3.0620      1.6800     78.3900
     53     -4.6920      1.1860      2.8170      0.0100     78.3900
     54     -4.3440     -0.7100      2.1490      1.7700     78.3900
     55     -3.8340     -0.3440      1.0860      1.5900     78.3900
     56     -4.5530     -2.0420      2.5970      1.7700     78.3900
     57     -4.2420     -3.2550      1.9930      1.6800     78.3900
     58     -4.6410     -4.1500      2.8670      1.7700     78.3900
     59     -4.5870     -5.2320      2.7390      0.0100     78.3900
     60     -7.1970     -4.3120      5.2630      1.7700     78.3900
     61     -7.6530     -3.4890      4.6770      0.0100     78.3900
     62     -7.5910     -4.2020      6.6140      1.5900     78.3900
     63     -8.5200     -4.4750      6.6590      0.0100     78.3900
     64     -7.5650     -5.6760      4.6870      1.7700     78.3900
     65     -7.4870     -5.6640      3.5740      0.0100     78.3900
     66     -8.8180     -6.2090      5.1650      1.5900     78.3900
     67    -10.1240     -6.1030      4.3010      2.1000     78.3900
     68    -11.2270     -6.7550      5.0420      1.5900     78.3900
     69     -9.8230     -6.6050      2.9440      1.5900     78.3900
     70    -10.3780     -4.5670      4.2250      1.5900     78.3900
     71    -10.7290     -3.7210      5.3330      1.7700     78.3900
     72     -9.8730     -3.5860      6.0230      0.0100     78.3900
     73    -11.5500     -4.1840      5.9180      0.0100     78.3900
     74    -11.1790     -2.3260      4.8810      1.7700     78.3900
     75    -11.6520     -1.7680      5.7200      0.0100     78.3900
     76    -10.0160     -1.5520      4.4620      1.5900     78.3900
     77    -10.2610     -0.9580      3.1930      1.7700     78.3900
     78     -9.9760      0.1150      3.2950      0.0100     78.3900
     79     -9.4470     -1.5760      2.1060      1.6800     78.3900
     80     -8.8450     -2.7910      2.3140      1.7700     78.3900
     81     -8.9710     -3.2100      3.3030      0.0100     78.3900
     82     -8.1110     -3.3940      1.3780      1.7700     78.3900
     83     -7.6300     -4.3550      1.5470      0.0100     78.3900
     84     -9.2640     -0.9260      0.8910      1.7700     78.3900
     85     -9.7860      0.1870      0.7270      1.5900     78.3900
     86     -8.5140     -1.5150     -0.0730      1.6800     78.3900
     87     -7.9590     -2.7220      0.1390      1.7700     78.3900
     88     -7.2310     -3.2870     -0.8180      1.6800     78.3900
     89     -7.1180     -2.8010     -1.6840      0.0100     78.3900
     90     -6.7880     -4.1760     -0.7020      0.0100     78.3900
     91    -11.7570     -1.0440      2.9390      1.7700     78.3900
     92    -12.0050     -1.1170      1.8580      0.0100     78.3900
     93    -12.4090      0.0760      3.5070      1.5900     78.3900
     94    -13.3520     -0.1360      3.5430      0.0100     78.3900
     95    -12.1200     -2.3300      3.6700      1.7700     78.3900
     96    -11.8400     -3.1850      3.0100      0.0100     78.3900
     97    -13.4770     -2.4010      4.1410      1.5900     78.3900
     98    -14.4650     -3.5180      3.6550      2.1000     78.3900
     99    -15.6200     -3.5680      4.5830      1.5900     78.3900
    100    -13.7570     -4.7870      3.3850      1.5900     78.3900
    101    -14.9330     -2.9380      2.2860      1.5900     78.3900
    102    -15.3810     -1.5740      2.1410      1.7700     78.3900
    103    -14.6980     -0.8450      2.6300      0.0100     78.3900
    104    -16.3880     -1.4550      2.5980      0.0100     78.3900
    105    -15.4680     -1.2040      0.6680      1.7700     78.3900
    106    -16.0160     -0.2470      0.5220      0.0100     78.3900
    107    -14.1280     -1.0210      0.1510      1.5900     78.3900
    108    -14.0690     -1.5130     -1.1680      1.7700     78.3900
    109    -13.7770     -0.6370     -1.7950      0.0100     78.3900
    110    -13.0630     -2.5940     -1.3050      1.6800     78.3900
    111    -12.5560     -3.2810     -0.2250      1.7700     78.3900
    112    -12.9740     -2.9920      0.7420      0.0100     78.3900
    113    -12.6140     -2.8390     -2.5700      1.7700     78.3900
    114    -13.0240     -2.1970     -3.5290      1.5900     78.3900
    115    -11.6700     -3.8190     -2.6690      1.6800     78.3900
    116    -11.2890     -3.9150     -3.5880      0.0100     78.3900
    117    -11.0910     -4.5370     -1.6520      1.7700     78.3900
    118    -10.2220     -5.3740     -1.8980      1.5900     78.3900
    119    -11.6010     -4.2170     -0.3480      1.7700     78.3900
    120    -11.1900     -4.7380      0.5140      0.0100     78.3900
    121    -15.4720     -1.9490     -1.5680      1.7700     78.3900
    122    -15.4570     -2.8380     -2.2320      0.0100     78.3900
    123    -16.1530     -0.8840     -2.1970      1.5900     78.3900
    124    -17.0190     -1.2030     -2.4710      0.0100     78.3900
    125    -16.0970     -2.2770     -0.2210      1.7700     78.3900
    126    -15.7280     -3.2730      0.1140      0.0100     78.3900
    127    -17.5340     -2.1560     -0.1490      1.5900     78.3900
    128    -18.4330     -3.4130     -0.4000      2.1000     78.3900
    129    -19.7740     -2.9340     -0.8020      1.5900     78.3900
    130    -18.3720     -4.3050      0.7770      1.5900     78.3900
    131    -17.7420     -4.1090     -1.6250      1.5900     78.3900
    132    -17.3160     -5.4800     -1.6110      1.7700     78.3900
    133    -18.0460     -6.1220     -1.0640      0.0100     78.3900
    134    -16.3290     -5.5610     -1.1040      0.0100     78.3900
    135    -17.1880     -6.0620     -3.0290      1.7700     78.3900
    136    -16.9900     -7.1540     -2.9560      0.0100     78.3900
    137    -18.4350     -5.8800     -3.7640      1.5900     78.3900
    138    -18.2190     -5.1280     -4.9440      1.7700     78.3900
    139    -18.2450     -5.8790     -5.7670      0.0100     78.3900
    140    -19.2780     -4.0890     -5.1250      1.6800     78.3900
    141    -19.5040     -3.1900     -4.1130      1.7700     78.3900
    142    -18.8830     -3.2910     -3.2380      0.0100     78.3900
    143    -20.4460     -2.2450     -4.1980      1.7700     78.3900
    144    -20.6460     -1.5480     -3.3870      0.0100     78.3900
    145    -19.9850     -3.9590     -6.3180      1.7700     78.3900
    146    -19.7170     -4.7160     -7.2660      1.5900     78.3900
    147    -20.9700     -3.0280     -6.4180      1.6800     78.3900
    148    -21.2070     -2.1850     -5.3960      1.7700     78.3900
    149    -22.1880     -1.2910     -5.5050      1.6800     78.3900
    150    -22.7430     -1.2730     -6.3410      0.0100     78.3900
    151    -22.4260     -0.6730     -4.7580      0.0100     78.3900
    152    -16.8370     -4.5250     -4.8740      1.7700     78.3900
    153    -16.8930     -3.5030     -4.4400      0.0100     78.3900
    154    -16.2460     -4.5130     -6.1620      1.5900     78.3900
    155    -15.2780     -4.4940     -6.0800      0.0100     78.3900
    156    -16.0820     -5.4200     -3.8880      1.7700     78.3900
    157    -15.5140     -4.7420     -3.2060      0.0100     78.3900
    158    -15.2320     -6.4200     -4.5050      1.5900     78.3900
    159    -13.7080     -6.5050     -4.0880      2.1000     78.3900
    160    -13.1590     -7.7980     -4.5610      1.5900     78.3900
    161    -13.5960     -6.2160     -2.6430      1.5900     78.3900
    162    -13.0640     -5.3170     -4.9030      1.5900     78.3900
    163    -12.3980     -5.5860     -6.1570      1.7700     78.3900
    164    -12.9490     -6.3550     -6.7560      0.0100     78.3900
    165    -11.3680     -5.9620     -5.9680      0.0100     78.3900
    166    -12.2970     -4.3290     -7.0250      1.7700     78.3900
    167    -11.7510     -4.5500     -7.9700      0.0100     78.3900
    168    -13.6420     -3.8890     -7.3650      1.5900     78.3900
    169    -13.6240     -2.4930     -7.5920      1.7700     78.3900
    170    -13.8440     -2.3890     -8.6770      0.0100     78.3900
    171    -14.6630     -1.7940     -6.8410      1.6800     78.3900
    172    -16.3690     -0.5270     -6.2870      1.7700     78.3900
    173    -16.0760     -1.2860     -5.1780      1.6800     78.3900
    174    -15.0500     -2.0070     -5.5470      1.7700     78.3900
    175    -14.5760     -2.7800     -4.9420      0.0100     78.3900
    176    -17.3570      1.0520     -7.7420      1.6800     78.3900
    177    -16.4050      0.7130     -8.6200      1.7700     78.3900
    178    -16.4380      1.2510     -9.5740      0.0100     78.3900
    179    -15.4590     -0.2290     -8.5280      1.6800     78.3900
    180    -15.4900     -0.8070     -7.3150      1.7700     78.3900
    181    -17.3760      0.4240     -6.5380      1.7700     78.3900
    182    -18.3390      0.7200     -5.6480      1.6800     78.3900
    183    -18.2500      0.4170     -4.6990      0.0100     78.3900
    184    -18.9380      1.5010     -5.8240      0.0100     78.3900
    185    -12.2260     -1.9960     -7.3040      1.7700     78.3900
    186    -12.2060     -1.0130     -6.7850      0.0100     78.3900
    187    -11.5360     -1.9300     -8.5380      1.5900     78.3900
    188    -11.5800     -1.0090     -8.8370      0.0100     78.3900
    189    -11.6600     -3.0860     -6.3970      1.7700     78.3900
    190    -12.0890     -3.0140     -5.3840      0.0100     78.3900
    191    -10.2130     -3.1830     -6.3650      1.5900     78.3900
    192     -9.4230     -2.1170     -5.5020      2.1000     78.3900
    193     -7.9750     -2.4360     -5.5380      1.5900     78.3900
    194    -10.0320     -2.0900     -4.1670      1.5900     78.3900
    195     -9.6380     -0.7290     -6.2140      1.5900     78.3900
    196     -9.0270     -0.4770     -7.5030      1.7700     78.3900
    197     -9.1720     -1.3300     -8.2090      0.0100     78.3900
    198     -7.9290     -0.3630     -7.3810      0.0100     78.3900
    199     -9.5800      0.8020     -8.1630      1.7700     78.3900
    200     -9.3420      0.8130     -9.2560      0.0100     78.3900
    201    -11.0310      0.8570     -8.0370      1.5900     78.3900
    202    -11.4480      2.1720     -7.7870      1.7700     78.3900
    203    -11.6170      2.6220     -8.7910      0.0100     78.3900
    204    -12.6720      2.1680     -6.9440      1.6800     78.3900
    205    -12.6770      1.5050     -5.7330      1.7700     78.3900
    206    -11.7640      0.9460     -5.5060      0.0100     78.3900
    207    -13.7780      2.8560     -7.3820      1.7700     78.3900
    208    -13.8060      3.4570     -8.4520      1.5900     78.3900
    209    -14.8460      2.8320     -6.5250      1.6800     78.3900
    210    -15.6680      3.3270     -6.8340      0.0100     78.3900
    211    -14.9100      2.2540     -5.2760      1.7700     78.3900
    212    -15.9180      2.3930     -4.5880      1.5900     78.3900
    213    -13.7370      1.5160     -4.9070      1.7700     78.3900
    214    -13.7390      0.9850     -3.9560      0.0100     78.3900
    215    -10.3040      2.8950     -7.1100      1.7700     78.3900
    216    -10.4210      2.8310     -6.0080      0.0100     78.3900
    217    -10.2540      4.2570     -7.5080      1.5900     78.3900
    218     -9.3600      4.5870     -7.3410      0.0100     78.3900
    219     -9.0510      2.0950     -7.5240      1.7700     78.3900
    220     -8.5510      1.7810     -6.5760      0.0100     78.3900
    221     -8.1420      2.7890     -8.4130      1.5900     78.3900
    222     -6.5810      2.5760     -8.3170      2.1000     78.3900
    223     -6.0170      2.7240     -9.6730      1.5900     78.3900
    224     -6.2810      1.3200     -7.6010      1.5900     78.3900
    225     -6.0890      3.7690     -7.4340      1.5900     78.3900
    226     -5.7770      5.0540     -8.0100      1.7700     78.3900
    227     -6.3580      5.2640     -8.9390      0.0100     78.3900
    228     -4.6950      5.0940     -8.2770      0.0100     78.3900
    229     -6.0610      6.1750     -7.0150      1.7700     78.3900
    230     -5.7490      7.1630     -7.4190      0.0100     78.3900
    231     -7.5090      6.2240     -6.7400      1.5900     78.3900
    232     -7.6930      6.5100     -5.3570      1.7700     78.3900
    233     -8.3740      7.3910     -5.2680      0.0100     78.3900
    234     -8.2440      5.3550     -4.6310      1.6800     78.3900
    235     -9.1630      3.9730     -3.1880      1.7700     78.3900
    236     -8.6830      3.1950     -4.2200      1.6800     78.3900
    237     -8.1500      4.0570     -5.0340      1.7700     78.3900
    238     -7.7070      3.8100     -5.9880      0.0100     78.3900
    239    -10.1570      4.6560     -1.1610      1.6800     78.3900
    240     -9.7950      5.8970     -1.4910      1.7700     78.3900
    241    -10.0520      6.6660     -0.7540      0.0100     78.3900
    242     -9.1510      6.3300     -2.5850      1.6800     78.3900
    243     -8.8780      5.3090     -3.4110      1.7700     78.3900
    244     -9.8630      3.6450     -2.0140      1.7700     78.3900
    245    -10.2510      2.3880     -1.7390      1.6800     78.3900
    246     -9.9950      1.6260     -2.3320      0.0100     78.3900
    247    -10.6030      2.1580     -0.8350      0.0100     78.3900
    248     -6.3390      6.8560     -4.8210      1.7700     78.3900
    249     -6.2520      6.5510     -3.7660      0.0100     78.3900
    250     -6.0580      8.2290     -5.0260      1.5900     78.3900
    251     -5.2590      8.4200     -4.5180      0.0100     78.3900
    252     -5.4160      5.9780     -5.6320      1.7700     78.3900
    253     -5.5390      4.9080     -5.3470      0.0100     78.3900
    254     -4.0270      6.3890     -5.6130      1.5900     78.3900
    255     -3.0870      5.8960     -4.4330      2.1000     78.3900
    256     -1.7020      6.2960     -4.7520      1.5900     78.3900
    257     -3.3140      4.4530     -4.2170      1.5900     78.3900
    258     -3.5490      6.6500     -3.1300      1.5900     78.3900
    259     -3.4140      8.0830     -2.9890      1.7700     78.3900
    260     -3.4720      8.6040     -3.9750      0.0100     78.3900
    261     -2.4110      8.3220     -2.5680      0.0100     78.3900
    262     -4.5010      8.7000     -2.0700      1.7700     78.3900
    263     -4.6570      9.7690     -2.3350      0.0100     78.3900
    264     -5.7750      8.0320     -2.2280      1.5900     78.3900
    265     -6.4160      7.8190     -0.9960      1.7700     78.3900
    266     -7.4610      8.1820     -1.1210      0.0100     78.3900
    267     -6.4520      6.3820     -0.6430      1.6800     78.3900
    268     -6.8750      4.4650      0.3630      1.7700     78.3900
    269     -6.1900      4.1490     -0.8020      1.6800     78.3900
    270     -5.9630      5.3110     -1.3590      1.7700     78.3900
    271     -5.4250      5.4510     -2.2970      0.0100     78.3900
    272     -8.0080      4.3150      2.4360      1.6800     78.3900
    273     -8.1090      5.6470      2.3870      1.7700     78.3900
    274     -8.6130      6.1170      3.2390      0.0100     78.3900
    275     -7.6840      6.4920      1.4430      1.6800     78.3900
    276     -7.0560      5.8350      0.4610      1.7700     78.3900
    277     -7.3740      3.6750      1.4220      1.7700     78.3900
    278     -7.2590      2.3360      1.4700      1.6800     78.3900
    279     -6.9440      1.8180      0.6720      0.0100     78.3900
    280     -7.7600      1.8570      2.1840      0.0100     78.3900
    281     -5.6800      8.6730     -0.0050      1.7700     78.3900
    282     -5.7230      8.2710      1.0260      0.0100     78.3900
    283     -6.2160      9.9840     -0.0360      1.5900     78.3900
    284     -5.5980     10.5700      0.4270      0.0100     78.3900
    285     -4.2620      8.6260     -0.5740      1.7700     78.3900
    286     -3.8130      7.6240     -0.3820      0.0100     78.3900
    287     -3.4390      9.7340     -0.1750      1.5900     78.3900
    288     -2.0330      9.4660      0.4540      2.1000     78.3900
    289     -1.3740     10.7690      0.6810      1.5900     78.3900
    290     -1.3060      8.4660     -0.3520      1.5900     78.3900
    291     -2.4140      8.8080      1.8250      1.5900     78.3900
    292     -3.2990      9.4690      2.7560      1.7700     78.3900
    293     -4.1760      9.9440      2.2530      0.0100     78.3900
    294     -2.7450     10.2710      3.2990      0.0100     78.3900
    295     -3.8330      8.4840      3.7960      1.7700     78.3900
    296     -4.3460      9.0250      4.6210      0.0100     78.3900
    297     -4.8320      7.6060      3.1920      1.5900     78.3900
    298     -4.7160      6.3060      3.7690      1.7700     78.3900
    299     -5.7250      6.0740      4.1920      0.0100     78.3900
    300     -4.3330      5.2470      2.7910      1.6800     78.3900
    301     -3.7420      5.5820      1.5930      1.7700     78.3900
    302     -3.6000      6.6510      1.4200      0.0100     78.3900
    303     -3.4000      4.6420      0.6980      1.7700     78.3900
    304     -2.9780      4.8880     -0.2750      0.0100     78.3900
    305     -4.5180      3.9040      3.1160      1.7700     78.3900
    306     -5.0080      3.6070      4.2190      1.5900     78.3900
    307     -4.1650      2.9470      2.2320      1.6800     78.3900
    308     -3.6480      3.2790      1.0390      1.7700     78.3900
    309     -3.3550      2.3050      0.1810      1.6800     78.3900
    310     -3.5300      1.3540      0.4570      0.0100     78.3900
    311     -3.0190      2.4790     -0.7470      0.0100     78.3900
    312     -3.7220      6.4150      4.9040      1.7700     78.3900
    313     -3.1720      5.4730      5.0720      0.0100     78.3900
    314     -4.3850      6.7900      6.0900      1.5900     78.3900
    315     -3.7010      6.9430      6.7540      0.0100     78.3900
    316     -2.8090      7.5260      4.4040      1.7700     78.3900
    317     -2.1790      7.1560      3.5640      0.0100     78.3900
    318     -2.0560      8.2120      5.4280      1.5900     78.3900
    319     -0.5870      7.7450      5.7270      2.1000     78.3900
    320      0.1020      8.7830      6.5240      1.5900     78.3900
    321      0.0710      7.3200      4.4740      1.5900     78.3900
    322     -0.7880      6.4720      6.6130      1.5900     78.3900
    323     -1.4700      6.5280      7.8830      1.7700     78.3900
    324     -2.4920      6.9670      7.8020      0.0100     78.3900
    325     -0.8970      7.1660      8.5990      0.0100     78.3900
    326     -1.5900      5.1190      8.4750      1.7700     78.3900
    327     -1.9790      5.1510      9.5150      0.0100     78.3900
    328     -2.5310      4.3270      7.6920      1.5900     78.3900
    329     -2.0480      2.9910      7.5840      1.7700     78.3900
    330     -2.8580      2.3410      7.9880      0.0100     78.3900
    331     -1.7690      2.5900      6.1720      1.6800     78.3900
    332     -1.5250      3.5530      5.2230      1.7700     78.3900
    333     -1.5570      4.5810      5.5750      0.0100     78.3900
    334     -1.2860      3.2390      3.9440      1.7700     78.3900
    335     -1.1260      3.9940      3.1780      0.0100     78.3900
    336     -1.6910      1.2460      5.8160      1.7700     78.3900
    337     -1.8390      0.3760      6.6880      1.5900     78.3900
    338     -1.4570      0.9060      4.5280      1.6800     78.3900
    339     -1.2560      1.8600      3.6010      1.7700     78.3900
    340     -1.0140      1.4970      2.3440      1.6800     78.3900
    341     -0.9230      0.5240      2.1150      0.0100     78.3900
    342     -0.8580      2.1610      1.6130      0.0100     78.3900
    343     -0.8260      2.8700      8.4820      1.7700     78.3900
    344     -0.0780      2.1600      8.0700      0.0100     78.3900
    345     -1.2100      2.4660      9.7880      1.5900     78.3900
    346     -0.4430      2.5650     10.3770      0.0100     78.3900
    347     -0.2900      4.2990      8.4570      1.7700     78.3900
    348      0.2510      4.4820      7.5020      0.0100     78.3900
    349      0.5370      4.6460      9.5810      1.5900     78.3900
    350      1.3790      4.1540      9.5390      0.0100     78.3900

     ----------------------------
     INPUT FOR TESSERA DEFINITION
     ----------------------------
     NTSALL  =        60     MTHALL  =         4
     MTHAUT  =         0     AUTFRE  =    2.0000
     NTSFRZ  =        60     KEEPSM  =         0
     AREAKP  =   10.0000     BONDRY  =    1.0000
     AREATL  =    0.0100

     SPHERE     INITS       METHOD
          1        60       FIXPVA
          2        60       FIXPVA
          3        60       FIXPVA
          4        60       FIXPVA
          5        60       FIXPVA
          6        60       FIXPVA
          7        60       FIXPVA
          8        60       FIXPVA
          9        60       FIXPVA
         10        60       FIXPVA
         11        60       FIXPVA
         12        60       FIXPVA
         13        60       FIXPVA
         14        60       FIXPVA
         15        60       FIXPVA
         16        60       FIXPVA
         17        60       FIXPVA
         18        60       FIXPVA
         19        60       FIXPVA
         20        60       FIXPVA
         21        60       FIXPVA
         22        60       FIXPVA
         23        60       FIXPVA
         24        60       FIXPVA
         25        60       FIXPVA
         26        60       FIXPVA
         27        60       FIXPVA
         28        60       FIXPVA
         29        60       FIXPVA
         30        60       FIXPVA
         31        60       FIXPVA
         32        60       FIXPVA
         33        60       FIXPVA
         34        60       FIXPVA
         35        60       FIXPVA
         36        60       FIXPVA
         37        60       FIXPVA
         38        60       FIXPVA
         39        60       FIXPVA
         40        60       FIXPVA
         41        60       FIXPVA
         42        60       FIXPVA
         43        60       FIXPVA
         44        60       FIXPVA
         45        60       FIXPVA
         46        60       FIXPVA
         47        60       FIXPVA
         48        60       FIXPVA
         49        60       FIXPVA
         50        60       FIXPVA
         51        60       FIXPVA
         52        60       FIXPVA
         53        60       FIXPVA
         54        60       FIXPVA
         55        60       FIXPVA
         56        60       FIXPVA
         57        60       FIXPVA
         58        60       FIXPVA
         59        60       FIXPVA
         60        60       FIXPVA
         61        60       FIXPVA
         62        60       FIXPVA
         63        60       FIXPVA
         64        60       FIXPVA
         65        60       FIXPVA
         66        60       FIXPVA
         67        60       FIXPVA
         68        60       FIXPVA
         69        60       FIXPVA
         70        60       FIXPVA
         71        60       FIXPVA
         72        60       FIXPVA
         73        60       FIXPVA
         74        60       FIXPVA
         75        60       FIXPVA
         76        60       FIXPVA
         77        60       FIXPVA
         78        60       FIXPVA
         79        60       FIXPVA
         80        60       FIXPVA
         81        60       FIXPVA
         82        60       FIXPVA
         83        60       FIXPVA
         84        60       FIXPVA
         85        60       FIXPVA
         86        60       FIXPVA
         87        60       FIXPVA
         88        60       FIXPVA
         89        60       FIXPVA
         90        60       FIXPVA
         91        60       FIXPVA
         92        60       FIXPVA
         93        60       FIXPVA
         94        60       FIXPVA
         95        60       FIXPVA
         96        60       FIXPVA
         97        60       FIXPVA
         98        60       FIXPVA
         99        60       FIXPVA
        100        60       FIXPVA
        101        60       FIXPVA
        102        60       FIXPVA
        103        60       FIXPVA
        104        60       FIXPVA
        105        60       FIXPVA
        106        60       FIXPVA
        107        60       FIXPVA
        108        60       FIXPVA
        109        60       FIXPVA
        110        60       FIXPVA
        111        60       FIXPVA
        112        60       FIXPVA
        113        60       FIXPVA
        114        60       FIXPVA
        115        60       FIXPVA
        116        60       FIXPVA
        117        60       FIXPVA
        118        60       FIXPVA
        119        60       FIXPVA
        120        60       FIXPVA
        121        60       FIXPVA
        122        60       FIXPVA
        123        60       FIXPVA
        124        60       FIXPVA
        125        60       FIXPVA
        126        60       FIXPVA
        127        60       FIXPVA
        128        60       FIXPVA
        129        60       FIXPVA
        130        60       FIXPVA
        131        60       FIXPVA
        132        60       FIXPVA
        133        60       FIXPVA
        134        60       FIXPVA
        135        60       FIXPVA
        136        60       FIXPVA
        137        60       FIXPVA
        138        60       FIXPVA
        139        60       FIXPVA
        140        60       FIXPVA
        141        60       FIXPVA
        142        60       FIXPVA
        143        60       FIXPVA
        144        60       FIXPVA
        145        60       FIXPVA
        146        60       FIXPVA
        147        60       FIXPVA
        148        60       FIXPVA
        149        60       FIXPVA
        150        60       FIXPVA
        151        60       FIXPVA
        152        60       FIXPVA
        153        60       FIXPVA
        154        60       FIXPVA
        155        60       FIXPVA
        156        60       FIXPVA
        157        60       FIXPVA
        158        60       FIXPVA
        159        60       FIXPVA
        160        60       FIXPVA
        161        60       FIXPVA
        162        60       FIXPVA
        163        60       FIXPVA
        164        60       FIXPVA
        165        60       FIXPVA
        166        60       FIXPVA
        167        60       FIXPVA
        168        60       FIXPVA
        169        60       FIXPVA
        170        60       FIXPVA
        171        60       FIXPVA
        172        60       FIXPVA
        173        60       FIXPVA
        174        60       FIXPVA
        175        60       FIXPVA
        176        60       FIXPVA
        177        60       FIXPVA
        178        60       FIXPVA
        179        60       FIXPVA
        180        60       FIXPVA
        181        60       FIXPVA
        182        60       FIXPVA
        183        60       FIXPVA
        184        60       FIXPVA
        185        60       FIXPVA
        186        60       FIXPVA
        187        60       FIXPVA
        188        60       FIXPVA
        189        60       FIXPVA
        190        60       FIXPVA
        191        60       FIXPVA
        192        60       FIXPVA
        193        60       FIXPVA
        194        60       FIXPVA
        195        60       FIXPVA
        196        60       FIXPVA
        197        60       FIXPVA
        198        60       FIXPVA
        199        60       FIXPVA
        200        60       FIXPVA
        201        60       FIXPVA
        202        60       FIXPVA
        203        60       FIXPVA
        204        60       FIXPVA
        205        60       FIXPVA
        206        60       FIXPVA
        207        60       FIXPVA
        208        60       FIXPVA
        209        60       FIXPVA
        210        60       FIXPVA
        211        60       FIXPVA
        212        60       FIXPVA
        213        60       FIXPVA
        214        60       FIXPVA
        215        60       FIXPVA
        216        60       FIXPVA
        217        60       FIXPVA
        218        60       FIXPVA
        219        60       FIXPVA
        220        60       FIXPVA
        221        60       FIXPVA
        222        60       FIXPVA
        223        60       FIXPVA
        224        60       FIXPVA
        225        60       FIXPVA
        226        60       FIXPVA
        227        60       FIXPVA
        228        60       FIXPVA
        229        60       FIXPVA
        230        60       FIXPVA
        231        60       FIXPVA
        232        60       FIXPVA
        233        60       FIXPVA
        234        60       FIXPVA
        235        60       FIXPVA
        236        60       FIXPVA
        237        60       FIXPVA
        238        60       FIXPVA
        239        60       FIXPVA
        240        60       FIXPVA
        241        60       FIXPVA
        242        60       FIXPVA
        243        60       FIXPVA
        244        60       FIXPVA
        245        60       FIXPVA
        246        60       FIXPVA
        247        60       FIXPVA
        248        60       FIXPVA
        249        60       FIXPVA
        250        60       FIXPVA
        251        60       FIXPVA
        252        60       FIXPVA
        253        60       FIXPVA
        254        60       FIXPVA
        255        60       FIXPVA
        256        60       FIXPVA
        257        60       FIXPVA
        258        60       FIXPVA
        259        60       FIXPVA
        260        60       FIXPVA
        261        60       FIXPVA
        262        60       FIXPVA
        263        60       FIXPVA
        264        60       FIXPVA
        265        60       FIXPVA
        266        60       FIXPVA
        267        60       FIXPVA
        268        60       FIXPVA
        269        60       FIXPVA
        270        60       FIXPVA
        271        60       FIXPVA
        272        60       FIXPVA
        273        60       FIXPVA
        274        60       FIXPVA
        275        60       FIXPVA
        276        60       FIXPVA
        277        60       FIXPVA
        278        60       FIXPVA
        279        60       FIXPVA
        280        60       FIXPVA
        281        60       FIXPVA
        282        60       FIXPVA
        283        60       FIXPVA
        284        60       FIXPVA
        285        60       FIXPVA
        286        60       FIXPVA
        287        60       FIXPVA
        288        60       FIXPVA
        289        60       FIXPVA
        290        60       FIXPVA
        291        60       FIXPVA
        292        60       FIXPVA
        293        60       FIXPVA
        294        60       FIXPVA
        295        60       FIXPVA
        296        60       FIXPVA
        297        60       FIXPVA
        298        60       FIXPVA
        299        60       FIXPVA
        300        60       FIXPVA
        301        60       FIXPVA
        302        60       FIXPVA
        303        60       FIXPVA
        304        60       FIXPVA
        305        60       FIXPVA
        306        60       FIXPVA
        307        60       FIXPVA
        308        60       FIXPVA
        309        60       FIXPVA
        310        60       FIXPVA
        311        60       FIXPVA
        312        60       FIXPVA
        313        60       FIXPVA
        314        60       FIXPVA
        315        60       FIXPVA
        316        60       FIXPVA
        317        60       FIXPVA
        318        60       FIXPVA
        319        60       FIXPVA
        320        60       FIXPVA
        321        60       FIXPVA
        322        60       FIXPVA
        323        60       FIXPVA
        324        60       FIXPVA
        325        60       FIXPVA
        326        60       FIXPVA
        327        60       FIXPVA
        328        60       FIXPVA
        329        60       FIXPVA
        330        60       FIXPVA
        331        60       FIXPVA
        332        60       FIXPVA
        333        60       FIXPVA
        334        60       FIXPVA
        335        60       FIXPVA
        336        60       FIXPVA
        337        60       FIXPVA
        338        60       FIXPVA
        339        60       FIXPVA
        340        60       FIXPVA
        341        60       FIXPVA
        342        60       FIXPVA
        343        60       FIXPVA
        344        60       FIXPVA
        345        60       FIXPVA
        346        60       FIXPVA
        347        60       FIXPVA
        348        60       FIXPVA
        349        60       FIXPVA
        350        60       FIXPVA

     ------------------------------
      FIXPVA TESSELLATION FOR PCM
         PEIFENG SU AND HUI LI
     UNIVERSITY OF NEBRASKA-LINCOLN
     ------------------------------


 PCM DIMENSIONS: MXSP=   350, MXTS=     14000, MEMORY=        143853

     INPUT FOR CAVITY DEFINITION 
     ---------------------------
   ATOM               COORDINATES                RADIUS       EPS
      1     -0.9710     -9.1830     -0.8690      0.0100     78.3900
      2     -1.2080     -8.6870     -0.0600      1.5900     78.3900
      3     -1.1480     -9.6100      1.0360      1.7700     78.3900
      4     -0.1160    -10.0240      1.1150      0.0100     78.3900
      5     -1.8370    -10.4580      0.8350      0.0100     78.3900
      6     -1.5390     -8.9750      2.3730      1.7700     78.3900
      7     -1.6010     -9.7460      3.1680      0.0100     78.3900
      8     -0.5190     -8.0180      2.7780      1.5900     78.3900
      9     -1.1440     -6.9420      3.4640      1.7700     78.3900
     10     -0.6730     -6.8840      4.4720      0.0100     78.3900
     11     -0.9350     -5.6660      2.7700      1.6800     78.3900
     12     -1.1230     -4.4150      3.2950      1.7700     78.3900
     13     -2.0340     -2.3490      5.9270      1.6800     78.3900
     14     -2.2760     -2.9970      6.6440      0.0100     78.3900
     15     -2.0190     -1.3700      6.1430      0.0100     78.3900
     16     -1.5430     -4.1330      4.5440      1.6800     78.3900
     17     -1.6170     -2.8210      4.7660      1.7700     78.3900
     18     -1.2640     -1.8840      3.8330      1.6800     78.3900
     19     -1.3220     -0.9110      4.0930      0.0100     78.3900
     20     -0.8210     -2.1470      2.5440      1.7700     78.3900
     21     -0.5150     -1.2370      1.7670      1.5900     78.3900
     22     -0.7700     -3.5390      2.2860      1.7700     78.3900
     23     -0.3800     -4.2240      1.1400      1.6800     78.3900
     24     -0.4990     -5.4880      1.4750      1.7700     78.3900
     25     -0.2790     -6.3440      0.8320      0.0100     78.3900
     26     -2.6100     -7.2830      3.6060      1.7700     78.3900
     27     -3.2610     -6.3870      3.5980      0.0100     78.3900
     28     -2.8180     -8.0080      4.8020      1.5900     78.3900
     29     -3.7270     -8.3300      4.7690      0.0100     78.3900
     30     -2.8410     -8.1580      2.3800      1.7700     78.3900
     31     -2.8410     -7.5370      1.4540      0.0100     78.3900
     32     -3.9860     -9.0400      2.4720      1.5900     78.3900
     33     -5.3800     -8.5270      1.9410      2.1000     78.3900
     34     -6.3490     -9.6450      1.9840      1.5900     78.3900
     35     -5.1790     -7.8710      0.6360      1.5900     78.3900
     36     -5.7990     -7.4300      2.9840      1.5900     78.3900
     37     -6.1380     -7.7940      4.3430      1.7700     78.3900
     38     -5.3220     -8.3700      4.8280      0.0100     78.3900
     39     -7.0500     -8.4310      4.3580      0.0100     78.3900
     40     -6.4150     -6.5480      5.1940      1.7700     78.3900
     41     -6.6200     -6.8210      6.2510      0.0100     78.3900
     42     -5.2560     -5.6700      5.1930      1.5900     78.3900
     43     -5.6860     -4.3170      5.1820      1.7700     78.3900
     44     -5.2660     -3.8480      6.1050      0.0100     78.3900
     45     -5.1790     -3.5980      4.0050      1.6800     78.3900
     46     -5.1450     -2.2410      3.8300      1.7700     78.3900
     47     -5.8260      0.9700      4.9540      1.6800     78.3900
     48     -6.3050      0.8150      5.8150      0.0100     78.3900
     49     -5.6410      1.9110      4.6580      0.0100     78.3900
     50     -5.6000     -1.3200      4.6970      1.6800     78.3900
     51     -5.4150     -0.0740      4.2590      1.7700     78.3900
     52     -4.8220      0.2160      3.0620      1.6800     78.3900
     53     -4.6920      1.1860      2.8170      0.0100     78.3900
     54     -4.3440     -0.7100      2.1490      1.7700     78.3900
     55     -3.8340     -0.3440      1.0860      1.5900     78.3900
     56     -4.5530     -2.0420      2.5970      1.7700     78.3900
     57     -4.2420     -3.2550      1.9930      1.6800     78.3900
     58     -4.6410     -4.1500      2.8670      1.7700     78.3900
     59     -4.5870     -5.2320      2.7390      0.0100     78.3900
     60     -7.1970     -4.3120      5.2630      1.7700     78.3900
     61     -7.6530     -3.4890      4.6770      0.0100     78.3900
     62     -7.5910     -4.2020      6.6140      1.5900     78.3900
     63     -8.5200     -4.4750      6.6590      0.0100     78.3900
     64     -7.5650     -5.6760      4.6870      1.7700     78.3900
     65     -7.4870     -5.6640      3.5740      0.0100     78.3900
     66     -8.8180     -6.2090      5.1650      1.5900     78.3900
     67    -10.1240     -6.1030      4.3010      2.1000     78.3900
     68    -11.2270     -6.7550      5.0420      1.5900     78.3900
     69     -9.8230     -6.6050      2.9440      1.5900     78.3900
     70    -10.3780     -4.5670      4.2250      1.5900     78.3900
     71    -10.7290     -3.7210      5.3330      1.7700     78.3900
     72     -9.8730     -3.5860      6.0230      0.0100     78.3900
     73    -11.5500     -4.1840      5.9180      0.0100     78.3900
     74    -11.1790     -2.3260      4.8810      1.7700     78.3900
     75    -11.6520     -1.7680      5.7200      0.0100     78.3900
     76    -10.0160     -1.5520      4.4620      1.5900     78.3900
     77    -10.2610     -0.9580      3.1930      1.7700     78.3900
     78     -9.9760      0.1150      3.2950      0.0100     78.3900
     79     -9.4470     -1.5760      2.1060      1.6800     78.3900
     80     -8.8450     -2.7910      2.3140      1.7700     78.3900
     81     -8.9710     -3.2100      3.3030      0.0100     78.3900
     82     -8.1110     -3.3940      1.3780      1.7700     78.3900
     83     -7.6300     -4.3550      1.5470      0.0100     78.3900
     84     -9.2640     -0.9260      0.8910      1.7700     78.3900
     85     -9.7860      0.1870      0.7270      1.5900     78.3900
     86     -8.5140     -1.5150     -0.0730      1.6800     78.3900
     87     -7.9590     -2.7220      0.1390      1.7700     78.3900
     88     -7.2310     -3.2870     -0.8180      1.6800     78.3900
     89     -7.1180     -2.8010     -1.6840      0.0100     78.3900
     90     -6.7880     -4.1760     -0.7020      0.0100     78.3900
     91    -11.7570     -1.0440      2.9390      1.7700     78.3900
     92    -12.0050     -1.1170      1.8580      0.0100     78.3900
     93    -12.4090      0.0760      3.5070      1.5900     78.3900
     94    -13.3520     -0.1360      3.5430      0.0100     78.3900
     95    -12.1200     -2.3300      3.6700      1.7700     78.3900
     96    -11.8400     -3.1850      3.0100      0.0100     78.3900
     97    -13.4770     -2.4010      4.1410      1.5900     78.3900
     98    -14.4650     -3.5180      3.6550      2.1000     78.3900
     99    -15.6200     -3.5680      4.5830      1.5900     78.3900
    100    -13.7570     -4.7870      3.3850      1.5900     78.3900
    101    -14.9330     -2.9380      2.2860      1.5900     78.3900
    102    -15.3810     -1.5740      2.1410      1.7700     78.3900
    103    -14.6980     -0.8450      2.6300      0.0100     78.3900
    104    -16.3880     -1.4550      2.5980      0.0100     78.3900
    105    -15.4680     -1.2040      0.6680      1.7700     78.3900
    106    -16.0160     -0.2470      0.5220      0.0100     78.3900
    107    -14.1280     -1.0210      0.1510      1.5900     78.3900
    108    -14.0690     -1.5130     -1.1680      1.7700     78.3900
    109    -13.7770     -0.6370     -1.7950      0.0100     78.3900
    110    -13.0630     -2.5940     -1.3050      1.6800     78.3900
    111    -12.5560     -3.2810     -0.2250      1.7700     78.3900
    112    -12.9740     -2.9920      0.7420      0.0100     78.3900
    113    -12.6140     -2.8390     -2.5700      1.7700     78.3900
    114    -13.0240     -2.1970     -3.5290      1.5900     78.3900
    115    -11.6700     -3.8190     -2.6690      1.6800     78.3900
    116    -11.2890     -3.9150     -3.5880      0.0100     78.3900
    117    -11.0910     -4.5370     -1.6520      1.7700     78.3900
    118    -10.2220     -5.3740     -1.8980      1.5900     78.3900
    119    -11.6010     -4.2170     -0.3480      1.7700     78.3900
    120    -11.1900     -4.7380      0.5140      0.0100     78.3900
    121    -15.4720     -1.9490     -1.5680      1.7700     78.3900
    122    -15.4570     -2.8380     -2.2320      0.0100     78.3900
    123    -16.1530     -0.8840     -2.1970      1.5900     78.3900
    124    -17.0190     -1.2030     -2.4710      0.0100     78.3900
    125    -16.0970     -2.2770     -0.2210      1.7700     78.3900
    126    -15.7280     -3.2730      0.1140      0.0100     78.3900
    127    -17.5340     -2.1560     -0.1490      1.5900     78.3900
    128    -18.4330     -3.4130     -0.4000      2.1000     78.3900
    129    -19.7740     -2.9340     -0.8020      1.5900     78.3900
    130    -18.3720     -4.3050      0.7770      1.5900     78.3900
    131    -17.7420     -4.1090     -1.6250      1.5900     78.3900
    132    -17.3160     -5.4800     -1.6110      1.7700     78.3900
    133    -18.0460     -6.1220     -1.0640      0.0100     78.3900
    134    -16.3290     -5.5610     -1.1040      0.0100     78.3900
    135    -17.1880     -6.0620     -3.0290      1.7700     78.3900
    136    -16.9900     -7.1540     -2.9560      0.0100     78.3900
    137    -18.4350     -5.8800     -3.7640      1.5900     78.3900
    138    -18.2190     -5.1280     -4.9440      1.7700     78.3900
    139    -18.2450     -5.8790     -5.7670      0.0100     78.3900
    140    -19.2780     -4.0890     -5.1250      1.6800     78.3900
    141    -19.5040     -3.1900     -4.1130      1.7700     78.3900
    142    -18.8830     -3.2910     -3.2380      0.0100     78.3900
    143    -20.4460     -2.2450     -4.1980      1.7700     78.3900
    144    -20.6460     -1.5480     -3.3870      0.0100     78.3900
    145    -19.9850     -3.9590     -6.3180      1.7700     78.3900
    146    -19.7170     -4.7160     -7.2660      1.5900     78.3900
    147    -20.9700     -3.0280     -6.4180      1.6800     78.3900
    148    -21.2070     -2.1850     -5.3960      1.7700     78.3900
    149    -22.1880     -1.2910     -5.5050      1.6800     78.3900
    150    -22.7430     -1.2730     -6.3410      0.0100     78.3900
    151    -22.4260     -0.6730     -4.7580      0.0100     78.3900
    152    -16.8370     -4.5250     -4.8740      1.7700     78.3900
    153    -16.8930     -3.5030     -4.4400      0.0100     78.3900
    154    -16.2460     -4.5130     -6.1620      1.5900     78.3900
    155    -15.2780     -4.4940     -6.0800      0.0100     78.3900
    156    -16.0820     -5.4200     -3.8880      1.7700     78.3900
    157    -15.5140     -4.7420     -3.2060      0.0100     78.3900
    158    -15.2320     -6.4200     -4.5050      1.5900     78.3900
    159    -13.7080     -6.5050     -4.0880      2.1000     78.3900
    160    -13.1590     -7.7980     -4.5610      1.5900     78.3900
    161    -13.5960     -6.2160     -2.6430      1.5900     78.3900
    162    -13.0640     -5.3170     -4.9030      1.5900     78.3900
    163    -12.3980     -5.5860     -6.1570      1.7700     78.3900
    164    -12.9490     -6.3550     -6.7560      0.0100     78.3900
    165    -11.3680     -5.9620     -5.9680      0.0100     78.3900
    166    -12.2970     -4.3290     -7.0250      1.7700     78.3900
    167    -11.7510     -4.5500     -7.9700      0.0100     78.3900
    168    -13.6420     -3.8890     -7.3650      1.5900     78.3900
    169    -13.6240     -2.4930     -7.5920      1.7700     78.3900
    170    -13.8440     -2.3890     -8.6770      0.0100     78.3900
    171    -14.6630     -1.7940     -6.8410      1.6800     78.3900
    172    -16.3690     -0.5270     -6.2870      1.7700     78.3900
    173    -16.0760     -1.2860     -5.1780      1.6800     78.3900
    174    -15.0500     -2.0070     -5.5470      1.7700     78.3900
    175    -14.5760     -2.7800     -4.9420      0.0100     78.3900
    176    -17.3570      1.0520     -7.7420      1.6800     78.3900
    177    -16.4050      0.7130     -8.6200      1.7700     78.3900
    178    -16.4380      1.2510     -9.5740      0.0100     78.3900
    179    -15.4590     -0.2290     -8.5280      1.6800     78.3900
    180    -15.4900     -0.8070     -7.3150      1.7700     78.3900
    181    -17.3760      0.4240     -6.5380      1.7700     78.3900
    182    -18.3390      0.7200     -5.6480      1.6800     78.3900
    183    -18.2500      0.4170     -4.6990      0.0100     78.3900
    184    -18.9380      1.5010     -5.8240      0.0100     78.3900
    185    -12.2260     -1.9960     -7.3040      1.7700     78.3900
    186    -12.2060     -1.0130     -6.7850      0.0100     78.3900
    187    -11.5360     -1.9300     -8.5380      1.5900     78.3900
    188    -11.5800     -1.0090     -8.8370      0.0100     78.3900
    189    -11.6600     -3.0860     -6.3970      1.7700     78.3900
    190    -12.0890     -3.0140     -5.3840      0.0100     78.3900
    191    -10.2130     -3.1830     -6.3650      1.5900     78.3900
    192     -9.4230     -2.1170     -5.5020      2.1000     78.3900
    193     -7.9750     -2.4360     -5.5380      1.5900     78.3900
    194    -10.0320     -2.0900     -4.1670      1.5900     78.3900
    195     -9.6380     -0.7290     -6.2140      1.5900     78.3900
    196     -9.0270     -0.4770     -7.5030      1.7700     78.3900
    197     -9.1720     -1.3300     -8.2090      0.0100     78.3900
    198     -7.9290     -0.3630     -7.3810      0.0100     78.3900
    199     -9.5800      0.8020     -8.1630      1.7700     78.3900
    200     -9.3420      0.8130     -9.2560      0.0100     78.3900
    201    -11.0310      0.8570     -8.0370      1.5900     78.3900
    202    -11.4480      2.1720     -7.7870      1.7700     78.3900
    203    -11.6170      2.6220     -8.7910      0.0100     78.3900
    204    -12.6720      2.1680     -6.9440      1.6800     78.3900
    205    -12.6770      1.5050     -5.7330      1.7700     78.3900
    206    -11.7640      0.9460     -5.5060      0.0100     78.3900
    207    -13.7780      2.8560     -7.3820      1.7700     78.3900
    208    -13.8060      3.4570     -8.4520      1.5900     78.3900
    209    -14.8460      2.8320     -6.5250      1.6800     78.3900
    210    -15.6680      3.3270     -6.8340      0.0100     78.3900
    211    -14.9100      2.2540     -5.2760      1.7700     78.3900
    212    -15.9180      2.3930     -4.5880      1.5900     78.3900
    213    -13.7370      1.5160     -4.9070      1.7700     78.3900
    214    -13.7390      0.9850     -3.9560      0.0100     78.3900
    215    -10.3040      2.8950     -7.1100      1.7700     78.3900
    216    -10.4210      2.8310     -6.0080      0.0100     78.3900
    217    -10.2540      4.2570     -7.5080      1.5900     78.3900
    218     -9.3600      4.5870     -7.3410      0.0100     78.3900
    219     -9.0510      2.0950     -7.5240      1.7700     78.3900
    220     -8.5510      1.7810     -6.5760      0.0100     78.3900
    221     -8.1420      2.7890     -8.4130      1.5900     78.3900
    222     -6.5810      2.5760     -8.3170      2.1000     78.3900
    223     -6.0170      2.7240     -9.6730      1.5900     78.3900
    224     -6.2810      1.3200     -7.6010      1.5900     78.3900
    225     -6.0890      3.7690     -7.4340      1.5900     78.3900
    226     -5.7770      5.0540     -8.0100      1.7700     78.3900
    227     -6.3580      5.2640     -8.9390      0.0100     78.3900
    228     -4.6950      5.0940     -8.2770      0.0100     78.3900
    229     -6.0610      6.1750     -7.0150      1.7700     78.3900
    230     -5.7490      7.1630     -7.4190      0.0100     78.3900
    231     -7.5090      6.2240     -6.7400      1.5900     78.3900
    232     -7.6930      6.5100     -5.3570      1.7700     78.3900
    233     -8.3740      7.3910     -5.2680      0.0100     78.3900
    234     -8.2440      5.3550     -4.6310      1.6800     78.3900
    235     -9.1630      3.9730     -3.1880      1.7700     78.3900
    236     -8.6830      3.1950     -4.2200      1.6800     78.3900
    237     -8.1500      4.0570     -5.0340      1.7700     78.3900
    238     -7.7070      3.8100     -5.9880      0.0100     78.3900
    239    -10.1570      4.6560     -1.1610      1.6800     78.3900
    240     -9.7950      5.8970     -1.4910      1.7700     78.3900
    241    -10.0520      6.6660     -0.7540      0.0100     78.3900
    242     -9.1510      6.3300     -2.5850      1.6800     78.3900
    243     -8.8780      5.3090     -3.4110      1.7700     78.3900
    244     -9.8630      3.6450     -2.0140      1.7700     78.3900
    245    -10.2510      2.3880     -1.7390      1.6800     78.3900
    246     -9.9950      1.6260     -2.3320      0.0100     78.3900
    247    -10.6030      2.1580     -0.8350      0.0100     78.3900
    248     -6.3390      6.8560     -4.8210      1.7700     78.3900
    249     -6.2520      6.5510     -3.7660      0.0100     78.3900
    250     -6.0580      8.2290     -5.0260      1.5900     78.3900
    251     -5.2590      8.4200     -4.5180      0.0100     78.3900
    252     -5.4160      5.9780     -5.6320      1.7700     78.3900
    253     -5.5390      4.9080     -5.3470      0.0100     78.3900
    254     -4.0270      6.3890     -5.6130      1.5900     78.3900
    255     -3.0870      5.8960     -4.4330      2.1000     78.3900
    256     -1.7020      6.2960     -4.7520      1.5900     78.3900
    257     -3.3140      4.4530     -4.2170      1.5900     78.3900
    258     -3.5490      6.6500     -3.1300      1.5900     78.3900
    259     -3.4140      8.0830     -2.9890      1.7700     78.3900
    260     -3.4720      8.6040     -3.9750      0.0100     78.3900
    261     -2.4110      8.3220     -2.5680      0.0100     78.3900
    262     -4.5010      8.7000     -2.0700      1.7700     78.3900
    263     -4.6570      9.7690     -2.3350      0.0100     78.3900
    264     -5.7750      8.0320     -2.2280      1.5900     78.3900
    265     -6.4160      7.8190     -0.9960      1.7700     78.3900
    266     -7.4610      8.1820     -1.1210      0.0100     78.3900
    267     -6.4520      6.3820     -0.6430      1.6800     78.3900
    268     -6.8750      4.4650      0.3630      1.7700     78.3900
    269     -6.1900      4.1490     -0.8020      1.6800     78.3900
    270     -5.9630      5.3110     -1.3590      1.7700     78.3900
    271     -5.4250      5.4510     -2.2970      0.0100     78.3900
    272     -8.0080      4.3150      2.4360      1.6800     78.3900
    273     -8.1090      5.6470      2.3870      1.7700     78.3900
    274     -8.6130      6.1170      3.2390      0.0100     78.3900
    275     -7.6840      6.4920      1.4430      1.6800     78.3900
    276     -7.0560      5.8350      0.4610      1.7700     78.3900
    277     -7.3740      3.6750      1.4220      1.7700     78.3900
    278     -7.2590      2.3360      1.4700      1.6800     78.3900
    279     -6.9440      1.8180      0.6720      0.0100     78.3900
    280     -7.7600      1.8570      2.1840      0.0100     78.3900
    281     -5.6800      8.6730     -0.0050      1.7700     78.3900
    282     -5.7230      8.2710      1.0260      0.0100     78.3900
    283     -6.2160      9.9840     -0.0360      1.5900     78.3900
    284     -5.5980     10.5700      0.4270      0.0100     78.3900
    285     -4.2620      8.6260     -0.5740      1.7700     78.3900
    286     -3.8130      7.6240     -0.3820      0.0100     78.3900
    287     -3.4390      9.7340     -0.1750      1.5900     78.3900
    288     -2.0330      9.4660      0.4540      2.1000     78.3900
    289     -1.3740     10.7690      0.6810      1.5900     78.3900
    290     -1.3060      8.4660     -0.3520      1.5900     78.3900
    291     -2.4140      8.8080      1.8250      1.5900     78.3900
    292     -3.2990      9.4690      2.7560      1.7700     78.3900
    293     -4.1760      9.9440      2.2530      0.0100     78.3900
    294     -2.7450     10.2710      3.2990      0.0100     78.3900
    295     -3.8330      8.4840      3.7960      1.7700     78.3900
    296     -4.3460      9.0250      4.6210      0.0100     78.3900
    297     -4.8320      7.6060      3.1920      1.5900     78.3900
    298     -4.7160      6.3060      3.7690      1.7700     78.3900
    299     -5.7250      6.0740      4.1920      0.0100     78.3900
    300     -4.3330      5.2470      2.7910      1.6800     78.3900
    301     -3.7420      5.5820      1.5930      1.7700     78.3900
    302     -3.6000      6.6510      1.4200      0.0100     78.3900
    303     -3.4000      4.6420      0.6980      1.7700     78.3900
    304     -2.9780      4.8880     -0.2750      0.0100     78.3900
    305     -4.5180      3.9040      3.1160      1.7700     78.3900
    306     -5.0080      3.6070      4.2190      1.5900     78.3900
    307     -4.1650      2.9470      2.2320      1.6800     78.3900
    308     -3.6480      3.2790      1.0390      1.7700     78.3900
    309     -3.3550      2.3050      0.1810      1.6800     78.3900
    310     -3.5300      1.3540      0.4570      0.0100     78.3900
    311     -3.0190      2.4790     -0.7470      0.0100     78.3900
    312     -3.7220      6.4150      4.9040      1.7700     78.3900
    313     -3.1720      5.4730      5.0720      0.0100     78.3900
    314     -4.3850      6.7900      6.0900      1.5900     78.3900
    315     -3.7010      6.9430      6.7540      0.0100     78.3900
    316     -2.8090      7.5260      4.4040      1.7700     78.3900
    317     -2.1790      7.1560      3.5640      0.0100     78.3900
    318     -2.0560      8.2120      5.4280      1.5900     78.3900
    319     -0.5870      7.7450      5.7270      2.1000     78.3900
    320      0.1020      8.7830      6.5240      1.5900     78.3900
    321      0.0710      7.3200      4.4740      1.5900     78.3900
    322     -0.7880      6.4720      6.6130      1.5900     78.3900
    323     -1.4700      6.5280      7.8830      1.7700     78.3900
    324     -2.4920      6.9670      7.8020      0.0100     78.3900
    325     -0.8970      7.1660      8.5990      0.0100     78.3900
    326     -1.5900      5.1190      8.4750      1.7700     78.3900
    327     -1.9790      5.1510      9.5150      0.0100     78.3900
[...]
  17 16  0    -1375.5515674348    -0.0000000050   0.000063680   0.000048492      577266464   17983394
  18 17  0    -1375.5515674798    -0.0000000451   0.000024296   0.000009199      554111869   18182829
  19 18  0    -1375.5515674832    -0.0000000034   0.000014086   0.000007042      532166408   18361854
  20 19  0    -1375.5515674849    -0.0000000017   0.000005963   0.000004933      510446917   18547923
  21 20  0    -1375.5515674857    -0.0000000008   0.000007165   0.000002686      472024223   18858922
  22 21  0    -1375.5515674851     0.0000000005   0.000001880   0.000000749      455021478   18997427
  23 22  0    -1375.5515674858    -0.0000000007   0.000000847   0.000000295      417412823   19295574
  24 23  0    -1375.5515674853     0.0000000006   0.000000530   0.000000126      383050447   19569526
  25 24  0    -1375.5515674851     0.0000000001   0.000000282   0.000000059      357605865   19756336
  26 25  0    -1375.5515674852    -0.0000000000   0.000000101   0.000000050      326874570   19996428

          -----------------
          DENSITY CONVERGED
          -----------------
     TIME TO FORM FOCK OPERATORS=      51.9 SECONDS (       2.0 SEC/ITER)
     FOCK TIME ON FIRST ITERATION=       2.3, LAST ITERATION=       1.1
     TIME TO SOLVE SCF EQUATIONS=       0.9 SECONDS (       0.0 SEC/ITER)

 FINAL RHF ENERGY IS    -1375.5515674852 AFTER  26 ITERATIONS
 ...... END OF RHF CALCULATION ......
 CPU     0: STEP CPU TIME=    70.18 TOTAL CPU TIME=        226.4 (      3.8 MIN)
 TOTAL WALL CLOCK TIME=        476.8 SECONDS, CPU UTILIZATION IS    47.48%
 DONE PCM POT.
 CPU     0: STEP CPU TIME=     0.43 TOTAL CPU TIME=        226.8 (      3.8 MIN)
 TOTAL WALL CLOCK TIME=        478.1 SECONDS, CPU UTILIZATION IS    47.44%

 Iter=  1 iFrag=      6 EFMO= -1432.132882037, DD= 0.451181359, DE=************


 RHF      monomer      9 corr= NONE       , L1=   371, L0=   348 ID=      4


 AO spaces for     9     0     0 n-mer: L1=   371, L0=   348

 DIRECT SCF CALCULATION, SCHWRZ=T   FDIFF=T,  DIRTHR=  0.00E+00 NITDIR=10

                                                                                   NONZERO     BLOCKS
 ITER EX DEM     TOTAL ENERGY        E CHANGE  DENSITY CHANGE     ORB. GRAD      INTEGRALS    SKIPPED
   1  0  0  1211539.7838906050*****************   0.519532571   0.000000000      834994942   14962039
          ---------------START SECOND ORDER SCF---------------
   2  1  0    -1380.6865590593*****************   0.408495836   0.099436369      840076175   14961280
   3  2  0    -1380.9452168004    -0.2586577412   0.169706624   0.083183743      832506421   15235749
   4  3  0    -1381.2842907895    -0.3390739891   0.053038665   0.010177791      819114457   15526179
   5  4  0    -1381.2920033870    -0.0077125975   0.014182636   0.004770056      796434783   15852266
   6  5  0    -1381.2933356391    -0.0013322520   0.003150955   0.002281861      771756335   16160070
   7  6  0    -1381.2935179156    -0.0001822765   0.001112603   0.000713329      741389400   16481588
   8  7  0    -1381.2935496972    -0.0000317816   0.000691861   0.000332145      709990365   16768221
   9  8  0    -1381.2935558997    -0.0000062025   0.000337618   0.000134843      683264682   17017022
  10  9  0    -1381.2935572715    -0.0000013718   0.000119397   0.000041509      651642882   17310111
  11 10  0    -1381.2935574729    -0.0000002013   0.000041782   0.000012422      627962468   17487198
  12 11  0    -1381.2935574991    -0.0000000263   0.000018773   0.000008735      594432054   17764174
  13 12  0    -1381.2935575026    -0.0000000034   0.000007281   0.000001843      547557267   18167723
  14 13  0    -1381.2935575028    -0.0000000002   0.000002311   0.000001043      512544802   18454030
  15 14  0    -1381.2935575033    -0.0000000005   0.000000986   0.000000475      471072935   18811976
  16 15  0    -1381.2935575031     0.0000000002   0.000000322   0.000000134      434943664   19131609
  17 16  0    -1381.2935575030     0.0000000002   0.000000149   0.000000054      392355926   19444287

          -----------------
          DENSITY CONVERGED
          -----------------
     TIME TO FORM FOCK OPERATORS=      36.0 SECONDS (       2.1 SEC/ITER)
     FOCK TIME ON FIRST ITERATION=       3.0, LAST ITERATION=       1.2
     TIME TO SOLVE SCF EQUATIONS=       0.6 SECONDS (       0.0 SEC/ITER)

 FINAL RHF ENERGY IS    -1381.2935575030 AFTER  17 ITERATIONS
 ...... END OF RHF CALCULATION ......
 CPU     0: STEP CPU TIME=    59.74 TOTAL CPU TIME=        286.6 (      4.8 MIN)
 TOTAL WALL CLOCK TIME=        602.0 SECONDS, CPU UTILIZATION IS    47.60%
 DONE PCM POT.
 CPU     0: STEP CPU TIME=     0.42 TOTAL CPU TIME=        287.0 (      4.8 MIN)
 TOTAL WALL CLOCK TIME=        603.2 SECONDS, CPU UTILIZATION IS    47.57%

 Iter=  1 iFrag=      9 EFMO= -1432.150750566, DD= 0.442430345, DE=************


 RHF      monomer      8 corr= NONE       , L1=   371, L0=   348 ID=      5


 AO spaces for     8     0     0 n-mer: L1=   371, L0=   348

 DIRECT SCF CALCULATION, SCHWRZ=T   FDIFF=T,  DIRTHR=  0.00E+00 NITDIR=10

                                                                                   NONZERO     BLOCKS
 ITER EX DEM     TOTAL ENERGY        E CHANGE  DENSITY CHANGE     ORB. GRAD      INTEGRALS    SKIPPED
   1  0  0  1287274.6679605874*****************   0.541197131   0.000000000      842201977   14897100
          ---------------START SECOND ORDER SCF---------------
   2  1  0    -1376.8638934030*****************   0.432386418   0.118199116      847204585   14894706
   3  2  0    -1377.1141601160    -0.2502667130   0.180028235   0.102151425      840613190   15154092
   4  3  0    -1377.4925403372    -0.3783802212   0.060558113   0.013937048      827612480   15449790
   5  4  0    -1377.5016356421    -0.0090953049   0.017469712   0.005568042      807338694   15753827
   6  5  0    -1377.5034469288    -0.0018112867   0.003943273   0.002639488      784024488   16055598
   7  6  0    -1377.5036614016    -0.0002144728   0.001874434   0.000687363      755861453   16371094
   8  7  0    -1377.5037040043    -0.0000426027   0.001118738   0.000355638      726571460   16650931
   9  8  0    -1377.5037107286    -0.0000067243   0.000700583   0.000254133      702531453   16873521
  10  9  0    -1377.5037131639    -0.0000024353   0.000230351   0.000080217      675603448   17135523
  11 10  0    -1377.5037135897    -0.0000004258   0.000103266   0.000027677      651523335   17320575
  12 11  0    -1377.5037136811    -0.0000000914   0.000023152   0.000011080      613504431   17631177
  13 12  0    -1377.5037136897    -0.0000000085   0.000010095   0.000006195      579641765   17920797
  14 13  0    -1377.5037136913    -0.0000000017   0.000005316   0.000004329      539429456   18268096
  15 14  0    -1377.5037136912     0.0000000001   0.000001935   0.000001218      504662077   18561038
  16 15  0    -1377.5037136914    -0.0000000001   0.000000876   0.000000389      467942569   18854653
  17 16  0    -1377.5037136910     0.0000000004   0.000000294   0.000000121      428663586   19192055
  18 17  0    -1377.5037136925    -0.0000000015   0.000000189   0.000000046      391956953   19470366

          -----------------
          DENSITY CONVERGED
          -----------------
     TIME TO FORM FOCK OPERATORS=      35.5 SECONDS (       2.0 SEC/ITER)
     FOCK TIME ON FIRST ITERATION=       2.5, LAST ITERATION=       1.2
     TIME TO SOLVE SCF EQUATIONS=       0.6 SECONDS (       0.0 SEC/ITER)

 FINAL RHF ENERGY IS    -1377.5037136925 AFTER  18 ITERATIONS
 ...... END OF RHF CALCULATION ......
 CPU     0: STEP CPU TIME=    63.68 TOTAL CPU TIME=        350.6 (      5.8 MIN)
 TOTAL WALL CLOCK TIME=        743.0 SECONDS, CPU UTILIZATION IS    47.20%
 DONE PCM POT.
 CPU     0: STEP CPU TIME=     0.46 TOTAL CPU TIME=        351.1 (      5.9 MIN)
 TOTAL WALL CLOCK TIME=        744.2 SECONDS, CPU UTILIZATION IS    47.18%

 Iter=  1 iFrag=      8 EFMO= -1432.106388318, DD= 0.435239030, DE=************


 RHF      monomer      3 corr= NONE       , L1=   341, L0=   320 ID=      6


 AO spaces for     3     0     0 n-mer: L1=   341, L0=   320

 DIRECT SCF CALCULATION, SCHWRZ=T   FDIFF=T,  DIRTHR=  0.00E+00 NITDIR=10

                                                                                   NONZERO     BLOCKS
 ITER EX DEM     TOTAL ENERGY        E CHANGE  DENSITY CHANGE     ORB. GRAD      INTEGRALS    SKIPPED
   1  0  0  1304717.0583577438*****************   0.529937697   0.000000000      658210744   10620201
          ---------------START SECOND ORDER SCF---------------
   2  1  0    -1299.7064753180*****************   0.423143834   0.100674896      662227687   10614360
   3  2  0    -1299.9304891636    -0.2240138456   0.175876349   0.070339564      657264995   10809805
   4  3  0    -1300.3545492240    -0.4240600604   0.058394420   0.016975206      647601687   11040165
   5  4  0    -1300.3665794625    -0.0120302385   0.012809732   0.006151937      634571517   11260359
   6  5  0    -1300.3683075784    -0.0017281158   0.003396217   0.001866099      613306090   11542930
   7  6  0    -1300.3684586450    -0.0001510667   0.001193300   0.001220317      588809619   11810986
   8  7  0    -1300.3684942577    -0.0000356127   0.000571259   0.000314896      567660563   12040988
   9  8  0    -1300.3684979351    -0.0000036774   0.000243104   0.000181277      543030746   12279551
  10  9  0    -1300.3684990801    -0.0000011450   0.000090418   0.000083245      517155075   12529161
  11 10  0    -1300.3684992073    -0.0000001272   0.000041888   0.000041612      498049197   12695784
  12 11  0    -1300.3684992504    -0.0000000431   0.000020537   0.000008412      468143296   12968317
  13 12  0    -1300.3684992542    -0.0000000038   0.000010997   0.000005360      442033853   13199662
  14 13  0    -1300.3684992555    -0.0000000013   0.000003110   0.000000928      411034510   13484755
  15 14  0    -1300.3684992556    -0.0000000001   0.000001470   0.000000589      384832238   13698465
  16 15  0    -1300.3684992554     0.0000000003   0.000000560   0.000000204      353188631   13970408
  17 16  0    -1300.3684992553     0.0000000001   0.000000126   0.000000071      324915588   14225036
  18 17  0    -1300.3684992564    -0.0000000011   0.000000070   0.000000032      292092448   14495130

          -----------------
          DENSITY CONVERGED
          -----------------
     TIME TO FORM FOCK OPERATORS=      33.5 SECONDS (       1.9 SEC/ITER)
     FOCK TIME ON FIRST ITERATION=       3.3, LAST ITERATION=       1.1
     TIME TO SOLVE SCF EQUATIONS=       0.5 SECONDS (       0.0 SEC/ITER)

 FINAL RHF ENERGY IS    -1300.3684992564 AFTER  18 ITERATIONS
 ...... END OF RHF CALCULATION ......
 CPU     0: STEP CPU TIME=    73.50 TOTAL CPU TIME=        424.6 (      7.1 MIN)
 TOTAL WALL CLOCK TIME=        872.9 SECONDS, CPU UTILIZATION IS    48.64%
 DONE PCM POT.
 CPU     0: STEP CPU TIME=     0.36 TOTAL CPU TIME=        425.0 (      7.1 MIN)
 TOTAL WALL CLOCK TIME=        873.9 SECONDS, CPU UTILIZATION IS    48.63%

 Iter=  1 iFrag=      3 EFMO= -1360.204534478, DD= 0.538976519, DE=************


 RHF      monomer     10 corr= NONE       , L1=   341, L0=   320 ID=      7


 AO spaces for    10     0     0 n-mer: L1=   341, L0=   320

 DIRECT SCF CALCULATION, SCHWRZ=T   FDIFF=T,  DIRTHR=  0.00E+00 NITDIR=10

                                                                                   NONZERO     BLOCKS
 ITER EX DEM     TOTAL ENERGY        E CHANGE  DENSITY CHANGE     ORB. GRAD      INTEGRALS    SKIPPED
   1  0  0  1303520.2159359236*****************   0.527013108   0.000000000      662636972   10602755
          ---------------START SECOND ORDER SCF---------------
   2  1  0    -1318.7918793398*****************   0.417698144   0.103918722      666443665   10601894
   3  2  0    -1319.0304628900    -0.2385835502   0.172905624   0.068362948      661473180   10805438
   4  3  0    -1319.4289142699    -0.3984513799   0.052994395   0.013169042      651695436   11040703
   5  4  0    -1319.4397515268    -0.0108372569   0.013454922   0.004393329      637716206   11271126
   6  5  0    -1319.4411566702    -0.0014051434   0.003667565   0.002322641      615273982   11559686
   7  6  0    -1319.4413074275    -0.0001507573   0.001414055   0.001248088      591463869   11817300
   8  7  0    -1319.4413383493    -0.0000309218   0.000755199   0.000310185      567529873   12072368
   9  8  0    -1319.4413421706    -0.0000038213   0.000332897   0.000102999      542462961   12316467
  10  9  0    -1319.4413429899    -0.0000008193   0.000121840   0.000027949      514974658   12571009
  11 10  0    -1319.4413430830    -0.0000000930   0.000032224   0.000015833      491969715   12757717
  12 11  0    -1319.4413430963    -0.0000000134   0.000012622   0.000006590      461495139   13030584
  13 12  0    -1319.4413430985    -0.0000000022   0.000005128   0.000001645      427149604   13344420
  14 13  0    -1319.4413430989    -0.0000000004   0.000001501   0.000000627      395314150   13623405
  15 14  0    -1319.4413430996    -0.0000000006   0.000000649   0.000000229      362230425   13905051
  16 15  0    -1319.4413430988     0.0000000008   0.000000217   0.000000080      330054015   14195813
  17 16  0    -1319.4413430996    -0.0000000008   0.000000102   0.000000037      304165706   14403371

          -----------------
          DENSITY CONVERGED
          -----------------
     TIME TO FORM FOCK OPERATORS=      33.0 SECONDS (       1.9 SEC/ITER)
     FOCK TIME ON FIRST ITERATION=       3.5, LAST ITERATION=       1.0
     TIME TO SOLVE SCF EQUATIONS=       0.5 SECONDS (       0.0 SEC/ITER)

 FINAL RHF ENERGY IS    -1319.4413430996 AFTER  17 ITERATIONS
 ...... END OF RHF CALCULATION ......
 CPU     0: STEP CPU TIME=    54.24 TOTAL CPU TIME=        479.2 (      8.0 MIN)
 TOTAL WALL CLOCK TIME=        981.8 SECONDS, CPU UTILIZATION IS    48.81%
 DONE PCM POT.
 CPU     0: STEP CPU TIME=     0.43 TOTAL CPU TIME=        479.6 (      8.0 MIN)
 TOTAL WALL CLOCK TIME=        982.9 SECONDS, CPU UTILIZATION IS    48.80%

 Iter=  1 iFrag=     10 EFMO= -1360.189328209, DD= 0.507986363, DE=************


 RHF      monomer      5 corr= NONE       , L1=   341, L0=   320 ID=      8


 AO spaces for     5     0     0 n-mer: L1=   341, L0=   320

 DIRECT SCF CALCULATION, SCHWRZ=T   FDIFF=T,  DIRTHR=  0.00E+00 NITDIR=10

                                                                                   NONZERO     BLOCKS
 ITER EX DEM     TOTAL ENERGY        E CHANGE  DENSITY CHANGE     ORB. GRAD      INTEGRALS    SKIPPED
   1  0  0  1257400.5792516656*****************   0.527961741   0.000000000      610078496   11031384
          ---------------START SECOND ORDER SCF---------------
   2  1  0    -1311.4182437825*****************   0.414169018   0.106063141      613074871   11037113
   3  2  0    -1311.6359026455    -0.2176588630   0.174254698   0.085524311      608630950   11223860
   4  3  0    -1312.0399432316    -0.4040405862   0.055759465   0.020137507      600220134   11431945
   5  4  0    -1312.0519967237    -0.0120534920   0.015360257   0.007004302      590539274   11609726
   6  5  0    -1312.0527853777    -0.0007886541   0.018137417   0.012533770      574956307   11840962
   7  6  0    -1312.0525412069     0.0002441709   0.009145112   0.009480386      572257388   11881614
   8  7  0    -1312.0539408751    -0.0013996682   0.006996510   0.003155610      566527158   11952710
   9  8  0    -1312.0538449888     0.0000958863   0.004366801   0.005243398      544588419   12219332
  10  9  0    -1312.0540541300    -0.0002091412   0.001215965   0.000489927      536678547   12287925
  11 10  0    -1312.0540558746    -0.0000017447   0.000591510   0.000931779      515343766   12496362
  12 11  0    -1312.0540642493    -0.0000083746   0.000274512   0.000254908      492989255   12716561
  13 12  0    -1312.0540644008    -0.0000001516   0.000184560   0.000146998      479787025   12828019
  14 13  0    -1312.0540649703    -0.0000005694   0.000030723   0.000022799      460798377   13003237
  15 14  0    -1312.0540649897    -0.0000000194   0.000030181   0.000014200      424989947   13318092
  16 15  0    -1312.0540649993    -0.0000000096   0.000007806   0.000007760      412206833   13429622
  17 16  0    -1312.0540650004    -0.0000000011   0.000005063   0.000006934      385813094   13685592
  18 17  0    -1312.0540650007    -0.0000000002   0.000001581   0.000000747      364098081   13872774
  19 18  0    -1312.0540650003     0.0000000004   0.000000606   0.000000758      338016485   14088203
  20 19  0    -1312.0540649999     0.0000000004   0.000000248   0.000000109      314690971   14284320
  21 20  0    -1312.0540650008    -0.0000000008   0.000000116   0.000000111      296050873   14436280

          -----------------
          DENSITY CONVERGED
          -----------------
     TIME TO FORM FOCK OPERATORS=      33.7 SECONDS (       1.6 SEC/ITER)
     FOCK TIME ON FIRST ITERATION=       1.9, LAST ITERATION=       1.1
     TIME TO SOLVE SCF EQUATIONS=       0.6 SECONDS (       0.0 SEC/ITER)

 FINAL RHF ENERGY IS    -1312.0540650008 AFTER  21 ITERATIONS
 ...... END OF RHF CALCULATION ......
 CPU     0: STEP CPU TIME=    43.19 TOTAL CPU TIME=        522.8 (      8.7 MIN)
 TOTAL WALL CLOCK TIME=       1083.4 SECONDS, CPU UTILIZATION IS    48.26%
 DONE PCM POT.
 CPU     0: STEP CPU TIME=     0.31 TOTAL CPU TIME=        523.1 (      8.7 MIN)
 TOTAL WALL CLOCK TIME=       1084.4 SECONDS, CPU UTILIZATION IS    48.24%

 Iter=  1 iFrag=      5 EFMO= -1360.235132698, DD= 0.534109888, DE=************


 RHF      monomer      7 corr= NONE       , L1=   339, L0=   318 ID=      9


 AO spaces for     7     0     0 n-mer: L1=   339, L0=   318

 DIRECT SCF CALCULATION, SCHWRZ=T   FDIFF=T,  DIRTHR=  0.00E+00 NITDIR=10

                                                                                   NONZERO     BLOCKS
 ITER EX DEM     TOTAL ENERGY        E CHANGE  DENSITY CHANGE     ORB. GRAD      INTEGRALS    SKIPPED
   1  0  0  1222058.6791052441*****************   0.528409646   0.000000000      580675207   10085398
          ---------------START SECOND ORDER SCF---------------
   2  1  0    -1329.6019789041*****************   0.418482605   0.143907990      582819388   10094517
   3  2  0    -1329.7364577339    -0.1344788297   0.167558492   0.107092658      579913360   10249585
   4  3  0    -1330.4005356195    -0.6640778856   0.089976032   0.028324353      574050422   10435544
   5  4  0    -1330.4231598499    -0.0226242304   0.021751237   0.010566632      567483845   10587524
   6  5  0    -1330.4260371776    -0.0028773277   0.023965892   0.013426430      555538812   10800491
   7  6  0    -1330.4262291505    -0.0001919729   0.011308366   0.009819591      549091702   10897979
   8  7  0    -1330.4274582859    -0.0012291354   0.006434272   0.002257736      541749622   11006725
   9  8  0    -1330.4274482264     0.0000100595   0.004520368   0.003234874      525263760   11205341
  10  9  0    -1330.4275501268    -0.0001019004   0.001419300   0.000540645      514253965   11322150
  11 10  0    -1330.4275509243    -0.0000007974   0.000759388   0.000374728      494802621   11522545
  12 11  0    -1330.4275565319    -0.0000056076   0.000334488   0.000089136      478984760   11682927
  13 12  0    -1330.4275566124    -0.0000000805   0.000200625   0.000108440      460822364   11855448
  14 13  0    -1330.4275568608    -0.0000002484   0.000048996   0.000014075      441117894   12041663
  15 14  0    -1330.4275568729    -0.0000000121   0.000035827   0.000016299      419850014   12235554
  16 15  0    -1330.4275568794    -0.0000000065   0.000009116   0.000007721      399102497   12426567
  17 16  0    -1330.4275568803    -0.0000000009   0.000012543   0.000002695      380671619   12571906
  18 17  0    -1330.4275568799     0.0000000004   0.000007576   0.000001250      358493633   12770485
