‘2LBJ_5_fmo_input.inp’ -> ‘/scratch/hazwong/820849/./2LBJ_5_fmo_input.inp’
‘rungms’ -> ‘/scratch/hazwong/820849/./rungms’
‘gms-files.csh’ -> ‘/scratch/hazwong/820849/./gms-files.csh’
----- GAMESS execution script 'rungms' -----
This job is running on host gollum062.lsa.umich.edu
under operating system Linux at Fri Dec 6 00:44:06 EST 2019
Available scratch disk space (Kbyte units) at beginning of the job is
Filesystem     1K-blocks  Used Available Use% Mounted on
/dev/sda4      426933580 33468 426900112   1% /scratch
GAMESS temporary binary files will be written to /scratch/hazwong/820849/2LBJ_5/usrc
GAMESS supplementary output files will be written to /scratch/hazwong/820849/2LBJ_5/src
Copying input file 2LBJ_5_fmo_input.inp to your run's scratch directory...
cp 2LBJ_5_fmo_input.inp /scratch/hazwong/820849/2LBJ_5/usrc/2LBJ_5_fmo_input.F05
unset echo
This is a GDDI run, keeping various output files on local disks
setenv OUTPUT /scratch/hazwong/820849/2LBJ_5/usrc/2LBJ_5_fmo_input.F06
setenv PUNCH /scratch/hazwong/820849/2LBJ_5/usrc/2LBJ_5_fmo_input.F07
unset echo
 
Assuming a single but multicore node.
 
/export/apps/CentOS7/gamess/src/build//ddikick.x /export/apps/CentOS7/gamess/src/build//gamess.R3.x 2LBJ_5_fmo_input -ddi 1 16 gollum062.lsa.umich.edu:cpus=16 -scr /scratch/hazwong/820849/2LBJ_5/usrc

 Distributed Data Interface kickoff program.
 Initiating 16 compute processes on 1 nodes to run the following command:
 /export/apps/CentOS7/gamess/src/build//gamess.R3.x 2LBJ_5_fmo_input 

          ******************************************************
          *         GAMESS VERSION = 30 SEP 2018 (R3)         *
          *             FROM IOWA STATE UNIVERSITY             *
          * M.W.SCHMIDT, K.K.BALDRIDGE, J.A.BOATZ, S.T.ELBERT, *
          *   M.S.GORDON, J.H.JENSEN, S.KOSEKI, N.MATSUNAGA,   *
          *          K.A.NGUYEN, S.J.SU, T.L.WINDUS,           *
          *       TOGETHER WITH M.DUPUIS, J.A.MONTGOMERY       *
          *         J.COMPUT.CHEM.  14, 1347-1363(1993)        *
          **************** 64 BIT LINUX VERSION ****************

  SINCE 1993, STUDENTS AND POSTDOCS WORKING AT IOWA STATE UNIVERSITY
  AND ALSO IN THEIR VARIOUS JOBS AFTER LEAVING ISU HAVE MADE IMPORTANT
  CONTRIBUTIONS TO THE CODE:
     IVANA ADAMOVIC, CHRISTINE AIKENS, YURI ALEXEEV, POOJA ARORA,
     ANDREY ASADCHEV, ROB BELL, PRADIPTA BANDYOPADHYAY, JONATHAN BENTZ,
     BRETT BODE, KURT BRORSEN, CALEB CARLIN, GALINA CHABAN, WEI CHEN,
     CHEOL HO CHOI, PAUL DAY, ALBERT DEFUSCO, NUWAN DESILVA, TIM DUDLEY,
     DMITRI FEDOROV, ALEX FINDLATER, GRAHAM FLETCHER, MARK FREITAG,
     KURT GLAESEMANN, ANASTASIA GUNINA,
     DAN KEMP, GRANT MERRILL, NORIYUKI MINEZAWA, JONATHAN MULLIN,
     TAKESHI NAGATA, SEAN NEDD, HEATHER NETZLOFF, BOSILJKA NJEGIC, RYAN OLSON,
     MIKE PAK, BUU PHAM,
     SPENCER PRUITT, LUKE ROSKOP, JIM SHOEMAKER, LYUDMILA SLIPCHENKO,
     TONY SMITH, SAROM SOK LEANG, JIE SONG, TETSUYA TAKETSUGU, SIMON WEBB,
     PENG XU, SOOHAENG YOO, FEDERICO ZAHARIEV

  ADDITIONAL CODE HAS BEEN PROVIDED BY COLLABORATORS IN OTHER GROUPS:
     IOWA STATE UNIVERSITY:
          JOE IVANIC, AARON WEST, LAIMUTIS BYTAUTAS, KLAUS RUEDENBERG
     UNIVERSITY OF TOKYO: KIMIHIKO HIRAO, TAKAHITO NAKAJIMA,
          TAKAO TSUNEDA, MUNEAKI KAMIYA, SUSUMU YANAGISAWA,
          KIYOSHI YAGI, MAHITO CHIBA, SEIKEN TOKURA, NAOAKI KAWAKAMI
     UNIVERSITY OF AARHUS: FRANK JENSEN
     UNIVERSITY OF IOWA: VISVALDAS KAIRYS, HUI LI
     NATIONAL INST. OF STANDARDS AND TECHNOLOGY: WALT STEVENS, DAVID GARMER
     UNIVERSITY OF PISA: BENEDETTA MENNUCCI, JACOPO TOMASI
     UNIVERSITY OF MEMPHIS: HENRY KURTZ, PRAKASHAN KORAMBATH
     UNIVERSITY OF ALBERTA: TOBY ZENG, MARIUSZ KLOBUKOWSKI
     UNIVERSITY OF NEW ENGLAND: MARK SPACKMAN
     MIE UNIVERSITY: HIROAKI UMEDA
     NAT. INST. OF ADVANCED INDUSTRIAL SCIENCE AND TECHNOLOGY: KAZUO KITAURA
     MICHIGAN STATE UNIVERSITY:
          KAROL KOWALSKI, MARTA WLOCH, JEFFREY GOUR, JESSE LUTZ,
          WEI LI, JUN SHEN, J. EMILIANO DEUSTUA, PIOTR PIECUCH
     UNIVERSITY OF MINNESOTA:
          YINAN SHU
     UNIVERSITY OF SILESIA: MONIKA MUSIAL, STANISLAW KUCHARSKI
     FACULTES UNIVERSITAIRES NOTRE-DAME DE LA PAIX:
          OLIVIER QUINET, BENOIT CHAMPAGNE
     UNIVERSITY OF CALIFORNIA - SANTA BARBARA: BERNARD KIRTMAN
     INSTITUTE FOR MOLECULAR SCIENCE:
          KAZUYA ISHIMURA, MICHIO KATOUDA, AND SHIGERU NAGASE
     UNIVERSITY OF NOTRE DAME: ANNA POMOGAEVA, DAN CHIPMAN
     KYUSHU UNIVERSITY:
          HARUYUKI NAKANO,
          FENG LONG GU, JACEK KORCHOWIEC, MARCIN MAKOWSKI, AND YURIKO AOKI,
          HIROTOSHI MORI AND EISAKU MIYOSHI
     PENNSYLVANIA STATE UNIVERSITY:
          TZVETELIN IORDANOV, CHET SWALINA, JONATHAN SKONE,
          SHARON HAMMES-SCHIFFER
     WASEDA UNIVERSITY:
          MASATO KOBAYASHI, TOMOKO AKAMA, TSUGUKI TOUMA,
          TAKESHI YOSHIKAWA, YASUHIRO IKABATA, JUNJI SEINO,
          YUYA NAKAJIMA, HIROMI NAKAI
     NANJING UNIVERSITY: SHUHUA LI
     UNIVERSITY OF NEBRASKA:
          PEIFENG SU, DEJUN SI, NANDUN THELLAMUREGE, YALI WANG, HUI LI
     UNIVERSITY OF ZURICH: ROBERTO PEVERATI, KIM BALDRIDGE
     N. COPERNICUS UNIVERSITY AND JACKSON STATE UNIVERSITY:
          MARIA BARYSZ
     UNIVERSITY OF COPENHAGEN: Jimmy Kromann, CASPER STEINMANN
     TOKYO INSTITUTE OF TECHNOLOGY: HIROYA NAKATA
     NAGOYA UNIVERSITY: YOSHIO NISHIMOTO, STEPHAN IRLE
     MOSCOW STATE UNIVERSITY: VLADIMIR MIRONOV


 PARALLEL VERSION RUNNING ON       16 PROCESSORS IN        1 NODES.

 EXECUTION OF GAMESS BEGUN Fri Dec  6 00:44:07 2019

            ECHO OF THE FIRST FEW INPUT CARDS -
 INPUT CARD>!*** FMO 5.3 (Gamess) INPUT generated by Facio 22.1.1.32 ***                    
 INPUT CARD> $CONTRL RUNTYP=ENERGY NPRINT=-5 ISPHER=1 MAXIT=200 $END                        
 INPUT CARD> $SYSTEM MWORDS=63 MEMDDI=63 $END                                               
 INPUT CARD> $GDDI NGROUP=1 $END                                                            
 INPUT CARD> $SCF DIRSCF=.TRUE. NPUNCH=0 $END                                               
 INPUT CARD>!*** NumCPU : 2  MemPerNode : 512MB                                             
 INPUT CARD> $PCM SOLVNT=WATER IEF=-10 ICOMP=2 ICAV=1 IDISP=1 IFMO=-1 $END                  
 INPUT CARD> $PCMCAV RADII=SUAHF $END                                                       
 INPUT CARD> $TESCAV NTSALL=60 $END                                                         
 INPUT CARD> $FMOPRP                                                                        
 INPUT CARD>    NAODIR=200                                                                  
 INPUT CARD>    NGRFMO(1)=1, 1, 0, 0, 0,   0, 0, 0, 0, 0                                    
 INPUT CARD>    IPIEDA=1                                                                    
 INPUT CARD>    NPRINT=9                                                                    
 INPUT CARD> $END                                                                           
 INPUT CARD> $FMO                                                                           
 INPUT CARD>      SCFTYP(1)=RHF                                                             
 INPUT CARD>      MODGRD=10                                                                 
 INPUT CARD>      MODMUL=0                                                                  
 INPUT CARD>      MAXCAO=5                                                                  
 INPUT CARD>      MAXBND=13                                                                 
 INPUT CARD>      NLAYER=1                                                                  
 INPUT CARD>      MPLEVL(1)=2                                                               
 INPUT CARD>      NFRAG=11                                                                  
 INPUT CARD>      ICHARG(1)=-1, -1, -1, -1, -1, -1, -1, -1, -1, -1, 0                       
 INPUT CARD>      FRGNAM(1)=F1, F2, F3, F4, F5, F6, F7, F8, F9, F10, F11                    
 INPUT CARD>      indat(1)=0                                                                
 INPUT CARD>               1   -33   0                                                      
 INPUT CARD>               34   -64   0                                                     
 INPUT CARD>               65   -94   0                                                     
 INPUT CARD>               95   -124   0                                                    
 INPUT CARD>               125   -158   0                                                   
 INPUT CARD>               159   -189   0                                                   
 INPUT CARD>               190   -220   0                                                   
 INPUT CARD>               221   -253   0                                                   
 INPUT CARD>               254   -286   0                                                   
 INPUT CARD>               287   -320   0                                                   
 INPUT CARD>               321   -351   0                                                   
 INPUT CARD> $END                                                                           
 INPUT CARD>                                                                                
 INPUT CARD> $FMOBND                                                                        
 INPUT CARD>   -34   33       6-31G*    MINI                                                
 INPUT CARD>   -65   64       6-31G*    MINI                                                
 INPUT CARD>   -95   94       6-31G*    MINI                                                
 INPUT CARD>   -125   124       6-31G*    MINI                                              
 INPUT CARD>   -159   158       6-31G*    MINI                                              
 INPUT CARD>   -190   189       6-31G*    MINI                                              
 INPUT CARD>   -221   220       6-31G*    MINI                                              
 INPUT CARD>   -254   253       6-31G*    MINI                                              
 INPUT CARD>   -287   286       6-31G*    MINI                                              


 -------------------------------------------------------------
 GROUP DDI, PROGRAMMED BY: RYAN M. OLSON AND DMITRI G. FEDOROV
        FEDOROV ET AL., J. COMPUT. CHEM., 25 (2004) 872.
 -------------------------------------------------------------

 -------------------------------------------------------
 GDDI: INITIALIZATION COMPLETED FOR GROUP     1 OF     1
 WITH    16 PROCESSES BALTYP=DLB   global rank=        0
 -------------------------------------------------------

   63000000 WORDS OF MEMORY AVAILABLE


     RUN TITLE
     ---------
  FMO calculation                                                                

 THE POINT GROUP OF THE MOLECULE IS C1      
 THE ORDER OF THE PRINCIPAL AXIS IS     0

 ATOM   ATOMIC CHARGE
 H.1-1       1.0
 O.1-1       8.0
 C.1-1       6.0
 N.1-1       7.0
 P.1-1      15.0

     ATOMIC BASIS SET LIBRARY
     ----------------
 THE CONTRACTED PRIMITIVE FUNCTIONS HAVE BEEN UNNORMALIZED
 THE CONTRACTED BASIS FUNCTIONS ARE NOW NORMALIZED TO UNITY

  SHELL TYPE  PRIMITIVE        EXPONENT          CONTRACTION COEFFICIENT(S)

 H.1-1     

      1   S       1            18.7311370    0.033494604338
      1   S       2             2.8253944    0.234726953484
      1   S       3             0.6401217    0.813757326146

      2   S       4             0.1612778    1.000000000000

 O.1-1     

      3   S       5          5484.6716600    0.001831074430
      3   S       6           825.2349460    0.013950172200
      3   S       7           188.0469580    0.068445078098
      3   S       8            52.9645000    0.232714335992
      3   S       9            16.8975704    0.470192897984
      3   S      10             5.7996353    0.358520852987

      4   L      11            15.5396162   -0.110777549525    0.070874268231
      4   L      12             3.5999336   -0.148026262701    0.339752839147
      4   L      13             1.0137618    1.130767015354    0.727158577316

      5   L      14             0.2700058    1.000000000000    1.000000000000

      6   D      15             0.8000000    1.000000000000

 C.1-1     

      7   S      16          3047.5248800    0.001834737132
      7   S      17           457.3695180    0.014037322813
      7   S      18           103.9486850    0.068842622264
      7   S      19            29.2101553    0.232184443216
      7   S      20             9.2866630    0.467941348435
      7   S      21             3.1639270    0.362311985337

      8   L      22             7.8682723   -0.119332419775    0.068999066591
      8   L      23             1.8812885   -0.160854151696    0.316423960957
      8   L      24             0.5442493    1.143456437840    0.744308290898

      9   L      25             0.1687145    1.000000000000    1.000000000000

     10   D      26             0.8000000    1.000000000000

 N.1-1     

     11   S      27          4173.5114600    0.001834772160
     11   S      28           627.4579110    0.013994627002
     11   S      29           142.9020930    0.068586551812
     11   S      30            40.2343293    0.232240873040
     11   S      31            12.8202129    0.469069948082
     11   S      32             4.3904370    0.360455199063

     12   L      33            11.6263619   -0.114961181702    0.067579743878
     12   L      34             2.7162798   -0.169117478561    0.323907295893
     12   L      35             0.7722184    1.145851947027    0.740895139755

     13   L      36             0.2120315    1.000000000000    1.000000000000

     14   D      37             0.8000000    1.000000000000

 P.1-1     

     15   S      38         19413.3000000    0.001851598923
     15   S      39          2909.4200000    0.014206191735
     15   S      40           661.3640000    0.069999459277
     15   S      41           185.7590000    0.240078860331
     15   S      42            59.1943000    0.484761717984
     15   S      43            20.0310000    0.335199804993

     16   L      44           339.4780000   -0.002782170105    0.004564616191
     16   L      45            81.0101000   -0.036049901354    0.033693571881
     16   L      46            25.8780000   -0.116631004382    0.139754883368
     16   L      47             9.4522100    0.096832803638    0.339361716786
     16   L      48             3.6656600    0.614418023082    0.450920623685
     16   L      49             1.4674600    0.403798015170    0.238585800889

     17   L      50             2.1562300   -0.252924113863   -0.017765312733
     17   L      51             0.7489970    0.032851844678    0.274058196433
     17   L      52             0.2831450    1.081254761783    0.785421562957

     18   L      53             0.0998317    1.000000000000    1.000000000000

     19   D      54             0.5500000    1.000000000000

 TOTAL NUMBER OF BASIS SET SHELLS             =   19
 NUMBER OF CARTESIAN GAUSSIAN BASIS FUNCTIONS =   66

     $CONTRL OPTIONS
     ---------------
 SCFTYP=RHF          RUNTYP=ENERGY       EXETYP=RUN     
 MPLEVL=       0     CITYP =NONE         CCTYP =NONE         VBTYP =NONE    
 DFTTYP=NONE         TDDFT =NONE    
 MULT  =       1     ICHARG=       0     NZVAR =       0     COORD =UNIQUE  
 PP    =NONE         RELWFN=NONE         LOCAL =NONE         NUMGRD=       F
 ISPHER=       1     NOSYM =       0     MAXIT =     200     UNITS =ANGS    
 PLTORB=       F     MOLPLT=       F     AIMPAC=       F     FRIEND=        
 NPRINT=      -5     IREST =       0     GEOM  =INPUT   
 NORMF =       0     NORMP =       0     ITOL  =      24     ICUT  =      12
 INTTYP=BEST         GRDTYP=BEST         QMTTOL= 1.0E-06

     $SYSTEM OPTIONS
     ---------------
  REPLICATED MEMORY=    63000000 WORDS (ON EVERY NODE).
 DISTRIBUTED MEMDDI=          63 MILLION WORDS IN AGGREGATE,
 MEMDDI DISTRIBUTED OVER  16 PROCESSORS IS     3937500 WORDS/PROCESSOR.
 TOTAL MEMORY REQUESTED ON EACH PROCESSOR=    66937500 WORDS.
 TIMLIM=      525600.00 MINUTES, OR     365.0 DAYS.
 PARALL= T  BALTYP=  DLB     KDIAG=    0  COREFL= F
 MXSEQ2=     300 MXSEQ3=     150  mem10=         0

 ** LOOKING UP INTERNALLY STORED DATA FOR SOLVENT=WATER    **
 OPTICAL AND PHYSICAL CONSTANTS:
 EPS= 78.390; EPSINF=  1.776; RSOLV=  1.385 A; VMOL=  18.070 ML/MOL;
 TCE= .25700E-03 1/K; STEN= 71.810 DYN/CM;  DSTEN=  0.6500; CMF=  1.2770


     -----------------------------------
     INPUT FOR PCM SOLVATION CALCULATION 
     -----------------------------------
     IEF   =     -10
     ICOMP =       2     IFIELD=       0     ICAV  =       1
     IDISP =       1     IREP  =       0     IDP   =       0

     SOLVNT=WATER        EPS   = 78.3900     EPSINF=  1.7760
     VMOL  = 18.0700     TCE   =  0.00025700 STEN  = 71.8100
     DSTEN =  0.6500     CMF   =  1.2770     RSOLV =  1.3850

     NESFP =       0
     OMEGA = 40.0000     RET   =100.0000     FRO   =  0.7000

     TABS  =298.0000     IPRINT=       0

     --------------------------------
     INPUT FOR ITERATIVE C-PCM METHOD 
     --------------------------------
     IPCMIT  =         1     MXDIIS  =        50
     MXITR1  =       200     MXITR2  =       200
     THRES   = 0.100E-09     IMUL    =         3
     RCUT(1) =   20.0000     RCUT(2) =   50.0000

     IDIRCT  =         1
     IMGABI  =         0     RABI    =    4.0000
     IMGASC  =         0     RASC    =   20.0000
     THRSLS  = 0.500E-03     DENSLS  =    0.0100
     IEFPOL  =         1     REFPOL  =    0.0000

     INPUT FOR ISOTROPIC DIELECTRICS
     -------------------------------
     EPS=    78.39

          ----------------
          PROPERTIES INPUT
          ----------------

     MOMENTS            FIELD           POTENTIAL          DENSITY
 IEMOM =       1   IEFLD =       0   IEPOT =       0   IEDEN =       0
 WHERE =COMASS     WHERE =NUCLEI     WHERE =NUCLEI     WHERE =NUCLEI  
 OUTPUT=BOTH       OUTPUT=BOTH       OUTPUT=NONE       OUTPUT=BOTH    
 IEMINT=       0   IEFINT=       0                     IEDINT=       0
                                                       MORB  =       0
          EXTRAPOLATION IN EFFECT
          SOSCF IN EFFECT
 ORBITAL PRINTING OPTION: NPREO=     1 32767     2     1

     -------------------------------
     INTEGRAL TRANSFORMATION OPTIONS
     -------------------------------
     NWORD  =            0
     CUTOFF = 1.0E-10     MPTRAN =       0
     DIRTRF =       T     AOINTS =DUP     

          ----------------------
          INTEGRAL INPUT OPTIONS
          ----------------------
 NOPK  =       1 NORDER=       0 SCHWRZ=       T

 ..... DONE SETTING UP THE RUN .....
 CPU     0: STEP CPU TIME=     0.04 TOTAL CPU TIME=          0.0 (      0.0 MIN)
 TOTAL WALL CLOCK TIME=          0.1 SECONDS, CPU UTILIZATION IS    40.00%
 CPU     0: STEP CPU TIME=     0.00 TOTAL CPU TIME=          0.0 (      0.0 MIN)
 TOTAL WALL CLOCK TIME=          0.1 SECONDS, CPU UTILIZATION IS    40.00%

                    ----------------------
                    AO INTEGRAL TECHNOLOGY
                    ----------------------
     S,P,L SHELL ROTATED AXIS INTEGRALS, REPROGRAMMED BY
        KAZUYA ISHIMURA (IMS) AND JOSE SIERRA (SYNSTAR).
     S,P,D,L SHELL ROTATED AXIS INTEGRALS PROGRAMMED BY
        KAZUYA ISHIMURA (INSTITUTE FOR MOLECULAR SCIENCE).
     S,P,D,F,G SHELL TO TOTAL QUARTET ANGULAR MOMENTUM SUM 5,
        ERIC PROGRAM BY GRAHAM FLETCHER (ELORET AND NASA ADVANCED
        SUPERCOMPUTING DIVISION, AMES RESEARCH CENTER).
     S,P,D,F,G,L SHELL GENERAL RYS QUADRATURE PROGRAMMED BY
        MICHEL DUPUIS (PACIFIC NORTHWEST NATIONAL LABORATORY).
 Setting modorb=1 flag...
 Setting modorb=1 flag...

          -----------------------
          MP2 CONTROL INFORMATION
          -----------------------
          NACORE =        8  NBCORE =        8
          LMOMP2 =        F  AOINTS = DUP     
          METHOD =        2  NWORD  =               0
          MP2PRP =        F  OSPT   = NONE    
          CUTOFF = 1.00E-12  CPHFBS = BASISAO 
          CODE   = IMS     

          NUMBER OF CORE -A-  ORBITALS =     8
          NUMBER OF CORE -B-  ORBITALS =     8
          NUMBER OF OCC. -A-  ORBITALS =    18
          NUMBER OF OCC. -B-  ORBITALS =    18
          NUMBER OF MOLECULAR ORBITALS =    66
          NUMBER OF   BASIS  FUNCTIONS =    66

 CPU     0: STEP CPU TIME=     0.03 TOTAL CPU TIME=          0.1 (      0.0 MIN)
 TOTAL WALL CLOCK TIME=          0.1 SECONDS, CPU UTILIZATION IS    53.85%
 CPU     0: STEP CPU TIME=     0.00 TOTAL CPU TIME=          0.1 (      0.0 MIN)
 TOTAL WALL CLOCK TIME=          0.1 SECONDS, CPU UTILIZATION IS    53.85%

     INPUT FOR CAVITY DEFINITION 
     ---------------------------
   ATOM               COORDINATES                RADIUS       EPS
      1      7.0290      4.1020     18.5860      0.0100     78.3900
      2      7.0280      4.5290     17.7110      1.5900     78.3900
      3      5.6760      4.9250     17.4420      1.7700     78.3900
      4      5.3070      5.5630     18.2780      0.0100     78.3900
      5      5.0380      4.0140     17.3980      0.0100     78.3900
      6      5.5260      5.6900     16.1200      1.7700     78.3900
      7      4.4610      5.9560     15.9340      0.0100     78.3900
      8      6.2790      6.9360     16.1850      1.5900     78.3900
      9      6.8910      7.1800     14.9260      1.7700     78.3900
     10      6.5430      8.1880     14.6110      0.0100     78.3900
     11      8.3800      7.1870     14.9890      1.6800     78.3900
     12      9.0310      6.6300     16.0670      1.7700     78.3900
     13      8.4000      6.1930     16.8420      0.0100     78.3900
     14     10.3660      6.6570     16.1680      1.7700     78.3900
     15     10.8910      6.2450     17.0280      0.0100     78.3900
     16      9.1240      7.7600     13.9610      1.7700     78.3900
     17      8.5340      8.2560     12.9900      1.5900     78.3900
     18     10.4730      7.7810     14.0370      1.6800     78.3900
     19     11.0970      7.2770     15.1160      1.7700     78.3900
     20     12.4240      7.3620     15.1940      1.6800     78.3900
     21     12.9450      7.7700     14.4400      0.0100     78.3900
     22     12.9180      7.0020     15.9850      0.0100     78.3900
     23      6.3510      6.1520     13.9550      1.7700     78.3900
     24      7.0830      5.8930     13.1690      0.0100     78.3900
     25      5.1630      6.6250     13.3510      1.5900     78.3900
     26      4.8730      5.9260     12.7530      0.0100     78.3900
     27      6.0800      4.9730     14.8780      1.7700     78.3900
     28      7.0430      4.5050     15.1880      0.0100     78.3900
     29      5.1160      4.0160     14.3820      1.5900     78.3900
     30      5.6270      2.7490     13.5960      2.1000     78.3900
     31      6.7880      2.1590     14.2960      1.5900     78.3900
     32      4.4670      1.8600     13.3550      1.5900     78.3900
     33      6.1030      3.3640     12.2310      1.5900     78.3900
     34      5.1350      3.9200     11.3080      1.7700     78.3900
     35      4.4620      4.6600     11.8000      0.0100     78.3900
     36      4.4870      3.1130     10.8950      0.0100     78.3900
     37      5.8350      4.6220     10.1320      1.7700     78.3900
     38      5.0810      5.0660      9.4450      0.0100     78.3900
     39      6.6800      5.7080     10.6110      1.5900     78.3900
     40      7.8640      5.7670      9.8170      1.7700     78.3900
     41      7.9050      6.8070      9.4130      0.0100     78.3900
     42      9.1110      5.5120     10.6000      1.6800     78.3900
     43      9.0430      4.8760     11.8170      1.7700     78.3900
     44      8.0520      4.5600     12.1350      0.0100     78.3900
     45     10.1340      4.6750     12.5670      1.7700     78.3900
     46     10.0880      4.2070     13.5480      0.0100     78.3900
     47     10.3550      5.8720     10.0880      1.7700     78.3900
     48     10.4270      6.3730      8.9580      1.5900     78.3900
     49     11.4700      5.6760     10.8290      1.6800     78.3900
     50     11.3840      5.1130     12.0460      1.7700     78.3900
     51     12.4920      4.9620     12.7690      1.6800     78.3900
     52     13.3730      5.2580     12.3890      0.0100     78.3900
     53     12.4890      4.4830     13.6500      0.0100     78.3900
     54      7.6820      4.8010      8.6650      1.7700     78.3900
     55      8.6370      4.3550      8.3180      0.0100     78.3900
     56      7.0380      5.4610      7.5880      1.5900     78.3900
     57      6.8830      4.7810      6.9190      0.0100     78.3900
     58      6.7750      3.7500      9.2910      1.7700     78.3900
     59      7.3390      3.1290     10.0180      0.0100     78.3900
     60      6.0140      2.9690      8.3440      1.5900     78.3900
     61      6.5870      1.6040      7.8120      2.1000     78.3900
     62      7.2320      0.8970      8.9380      1.5900     78.3900
     63      5.4930      0.9060      7.1000      1.5900     78.3900
     64      7.7000      2.0320      6.7980      1.5900     78.3900
     65      7.4410      2.7550      5.5810      1.7700     78.3900
     66      6.8110      3.6600      5.7470      0.0100     78.3900
     67      6.8940      2.1030      4.8640      0.0100     78.3900
     68      8.7580      3.1910      4.9200      1.7700     78.3900
     69      8.5530      3.7860      4.0000      0.0100     78.3900
     70      9.5210      4.0520      5.8140      1.5900     78.3900
     71     10.9060      3.7810      5.6640      1.7700     78.3900
     72     11.3720      4.7480      5.3650      0.0100     78.3900
     73     11.5160      3.2980      6.9440      1.6800     78.3900
     74     10.7340      2.7020      7.9060      1.7700     78.3900
     75      9.6750      2.6350      7.6630      0.0100     78.3900
     76     12.8720      3.4510      7.1390      1.7700     78.3900
     77     13.6080      3.9420      6.2890      1.5900     78.3900
     78     13.3380      3.0360      8.3650      1.6800     78.3900
     79     14.3350      3.1310      8.5150      0.0100     78.3900
     80     12.5880      2.5290      9.4100      1.7700     78.3900
     81     13.0970      2.3230     10.5110      1.5900     78.3900
     82     11.2050      2.3240      9.1020      1.7700     78.3900
     83     10.5480      1.9390      9.8780      0.0100     78.3900
     84     11.0470      2.7850      4.5170      1.7700     78.3900
     85     11.8890      2.0940      4.6830      0.0100     78.3900
     86     11.2350      3.4580      3.2860      1.5900     78.3900
     87     11.3330      2.7630      2.6210      0.0100     78.3900
     88      9.7090      2.0450      4.5550      1.7700     78.3900
     89      9.6930      1.3010      5.3800      0.0100     78.3900
     90      9.2590      1.4680      3.3260      1.5900     78.3900
     91      9.7930      0.1970      2.5930      2.1000     78.3900
     92      9.0370      0.1510      1.3220      1.5900     78.3900
     93     11.2600      0.2580      2.4600      1.5900     78.3900
     94      9.3570     -1.0140      3.5030      1.5900     78.3900
     95      8.7330     -2.1900      2.9330      1.7700     78.3900
     96      8.9050     -2.2900      1.8360      0.0100     78.3900
     97      7.6330     -2.1160      3.0770      0.0100     78.3900
     98      9.2140     -3.4920      3.5940      1.7700     78.3900
     99      8.4240     -4.2700      3.5460      0.0100     78.3900
    100     10.3420     -4.0030      2.8260      1.5900     78.3900
    101     11.2740     -4.6220      3.7000      1.7700     78.3900
    102     11.3670     -5.6720      3.3430      0.0100     78.3900
    103     12.6050     -3.9520      3.6500      1.6800     78.3900
    104     12.7590     -2.7030      3.0830      1.7700     78.3900
    105     11.8400     -2.1940      2.7800      0.0100     78.3900
    106     13.6940     -4.6380      4.1420      1.7700     78.3900
    107     13.5990     -5.7640      4.6210      1.5900     78.3900
    108     14.8950     -3.9810      4.0340      1.6800     78.3900
    109     15.7030     -4.4860      4.3610      0.0100     78.3900
    110     15.1300     -2.7800      3.3950      1.7700     78.3900
    111     16.2770     -2.3510      3.2790      1.5900     78.3900
    112     13.9560     -2.1270      2.9100      1.7700     78.3900
    113     14.0570     -1.1620      2.4200      0.0100     78.3900
    114     10.6730     -4.6290      5.0910      1.7700     78.3900
    115     11.4550     -4.4840      5.8690      0.0100     78.3900
    116      9.9710     -5.8400      5.3300      1.5900     78.3900
    117      9.5240     -5.7290      6.1920      0.0100     78.3900
    118      9.7290     -3.4200      5.0410      1.7700     78.3900
    119     10.3140     -2.4830      5.1300      0.0100     78.3900
    120      8.6140     -3.4220      5.9650      1.5900     78.3900
    121      8.8250     -3.7360      7.4920      2.1000     78.3900
    122      7.9600     -2.8810      8.3240      1.5900     78.3900
    123      8.6820     -5.2020      7.6550      1.5900     78.3900
    124     10.3240     -3.3670      7.7750      1.5900     78.3900
    125     10.7840     -2.9850      9.0830      1.7700     78.3900
    126     10.2470     -3.5300      9.8950      0.0100     78.3900
    127     10.5770     -1.9010      9.2250      0.0100     78.3900
    128     12.2940     -3.2660      9.2630      1.7700     78.3900
    129     12.4470     -4.3110      9.6120      0.0100     78.3900
    130     13.0560     -3.0590      8.0340      1.5900     78.3900
    131     13.7170     -1.8040      8.0870      1.7700     78.3900
    132     14.8010     -2.0340      8.1910      0.0100     78.3900
    133     13.4820     -1.0410      6.8690      1.6800     78.3900
    134     14.3710     -0.2460      6.1920      1.7700     78.3900
    135     17.5130      1.1490      5.8370      1.6800     78.3900
    136     18.0270      1.6590      5.1430      0.0100     78.3900
    137     17.9940      0.7840      6.6400      0.0100     78.3900
    138     15.6500     -0.0080      6.5370      1.6800     78.3900
    139     16.2590      0.7930      5.6600      1.7700     78.3900
    140     15.6560      1.2990      4.5410      1.6800     78.3900
    141     16.2000      1.8810      3.9190      0.0100     78.3900
    142     14.3540      1.0370      4.1500      1.7700     78.3900
    143     13.9230      1.5300      3.1060      1.5900     78.3900
    144     13.6800      0.2150      5.0940      1.7700     78.3900
    145     12.3820     -0.2660      5.1030      1.6800     78.3900
    146     12.3040     -1.0010      6.1720      1.7700     78.3900
    147     11.4220     -1.5530      6.5010      0.0100     78.3900
    148     13.2270     -1.0890      9.3220      1.7700     78.3900
    149     12.3080     -0.4970      9.1210      0.0100     78.3900
    150     14.2220     -0.2880      9.9060      1.5900     78.3900
    151     14.8170     -0.9360     10.3120      0.0100     78.3900
    152     12.9250     -2.2670     10.2350      1.7700     78.3900
    153     12.1500     -1.9380     10.9680      0.0100     78.3900
    154     14.1120     -2.8050     10.8730      1.5900     78.3900
    155     14.0090     -3.4590     12.2980      2.1000     78.3900
    156     15.1540     -2.9980     13.1110      1.5900     78.3900
    157     12.6590     -3.2210     12.8570      1.5900     78.3900
    158     14.1670     -5.0020     11.9800      1.5900     78.3900
    159     13.2860     -5.9730     12.6180      1.7700     78.3900
    160     12.5570     -6.3480     11.8680      0.0100     78.3900
    161     12.6830     -5.5410     13.4540      0.0100     78.3900
    162     14.0270     -7.1840     13.2160      1.7700     78.3900
    163     13.3220     -7.8270     13.7850      0.0100     78.3900
    164     14.5660     -8.0140     12.1560      1.5900     78.3900
    165     15.8520     -8.4900     12.5330      1.7700     78.3900
    166     15.7980     -9.5980     12.4380      0.0100     78.3900
    167     16.9390     -7.9860     11.6440      1.6800     78.3900
    168     16.6670     -7.0120     10.7040      1.7700     78.3900
    169     15.6470     -6.6180     10.6900      0.0100     78.3900
    170     17.6150     -6.5650      9.8710      1.7700     78.3900
    171     17.4190     -5.8030      9.1210      0.0100     78.3900
    172     18.2310     -8.5110     11.7380      1.7700     78.3900
    173     18.4770     -9.3860     12.5860      1.5900     78.3900
    174     19.1950     -8.0710     10.8970      1.6800     78.3900
    175     18.9110     -7.1400      9.9710      1.7700     78.3900
    176     19.8640     -6.7650      9.1250      1.6800     78.3900
    177     20.7890     -7.1130      9.2810      0.0100     78.3900
    178     19.7410     -6.0130      8.4790      0.0100     78.3900
    179     16.0640     -8.1280     13.9930      1.7700     78.3900
    180     17.1300     -7.9100     14.2190      0.0100     78.3900
    181     15.5870     -9.1480     14.8600      1.5900     78.3900
    182     15.6210     -8.7850     15.7590      0.0100     78.3900
    183     15.2320     -6.8590     14.1110      1.7700     78.3900
    184     15.7710     -6.0000     13.6510      0.0100     78.3900
    185     14.7760     -6.5440     15.4340      1.5900     78.3900
    186     15.7640     -6.1970     16.6030      2.1000     78.3900
    187     15.1990     -5.0160     17.2930      1.5900     78.3900
    188     15.9690     -7.4310     17.3980      1.5900     78.3900
    189     17.1190     -5.8160     15.9210      1.5900     78.3900
    190     17.8250     -4.5860     16.2060      1.7700     78.3900
    191     17.7680     -4.3070     17.2840      0.0100     78.3900
    192     17.3660     -3.7590     15.6150      0.0100     78.3900
    193     19.3200     -4.6810     15.8310      1.7700     78.3900
    194     19.8910     -5.2230     16.6140      0.0100     78.3900
    195     19.4770     -5.4500     14.6010      1.5900     78.3900
    196     20.4340     -4.8360     13.7670      1.7700     78.3900
    197     21.1700     -5.6440     13.5400      0.0100     78.3900
    198     19.8310     -4.3330     12.5040      1.6800     78.3900
    199     18.5120     -3.9250     12.4780      1.7700     78.3900
    200     17.9590     -4.0250     13.4170      0.0100     78.3900
    201     17.9420     -3.4870     11.3460      1.7700     78.3900
    202     16.8980     -3.1850     11.3000      0.0100     78.3900
    203     20.6010     -4.2670     11.3460      1.7700     78.3900
    204     21.7820     -4.6470     11.3820      1.5900     78.3900
    205     20.0470     -3.7980     10.2040      1.6800     78.3900
    206     18.7470     -3.4620     10.1700      1.7700     78.3900
    207     18.2160     -3.1470      8.9870      1.6800     78.3900
    208     17.2890     -2.7900      8.9020      0.0100     78.3900
    209     18.8010     -3.1470      8.1730      0.0100     78.3900
    210     21.1260     -3.7520     14.5770      1.7700     78.3900
    211     21.4500     -2.8960     13.9500      0.0100     78.3900
    212     22.2390     -4.2940     15.2710      1.5900     78.3900
    213     22.5500     -3.6250     15.9040      0.0100     78.3900
    214     20.0160     -3.3380     15.5380      1.7700     78.3900
    215     19.2660     -2.7190     14.9930      0.0100     78.3900
    216     20.4750     -2.7300     16.7700      1.5900     78.3900
    217     20.5390     -1.1590     16.8790      2.1000     78.3900
    218     19.3810     -0.6110     16.1350      1.5900     78.3900
    219     20.6680     -0.7510     18.2970      1.5900     78.3900
    220     21.8850     -0.7680     16.1630      1.5900     78.3900
    221     22.0910      0.5720     15.6370      1.7700     78.3900
    222     22.7140      1.1660     16.3440      0.0100     78.3900
    223     21.1320      1.1320     15.5070      0.0100     78.3900
    224     22.8040      0.5440     14.2720      1.7700     78.3900
    225     23.8870      0.3170     14.3970      0.0100     78.3900
    226     22.2540     -0.5290     13.4610      1.5900     78.3900
    227     22.1480     -0.1220     12.1230      1.7700     78.3900
    228     22.7010     -0.8740     11.5150      0.0100     78.3900
    229     20.7460     -0.1110     11.7130      1.6800     78.3900
    230     18.9270     -0.0840     10.4960      1.7700     78.3900
    231     18.5030     -0.2210     11.8090      1.6800     78.3900
    232     19.6180     -0.2290     12.4980      1.7700     78.3900
    233     19.6880     -0.3210     13.5870      0.0100     78.3900
    234     18.9550      0.1430      8.1420      1.6800     78.3900
    235     20.2840      0.1970      8.2330      1.7700     78.3900
    236     20.8170      0.3090      7.2840      0.0100     78.3900
    237     21.0540      0.1060      9.3210      1.6800     78.3900
    238     20.3040     -0.0230     10.4270      1.7700     78.3900
    239     18.2310     -0.0070      9.2750      1.7700     78.3900
    240     16.9040     -0.0910      9.1740      1.6800     78.3900
    241     16.3110      0.1450      9.9430      0.0100     78.3900
    242     16.4710     -0.0150      8.2650      0.0100     78.3900
    243     22.8150      1.2350     11.9960      1.7700     78.3900
    244     22.3300      1.8830     11.2370      0.0100     78.3900
    245     24.1810      1.0650     11.6640      1.5900     78.3900
    246     24.6250      1.9140     11.8000      0.0100     78.3900
    247     22.6420      1.8030     13.4010      1.7700     78.3900
    248     21.5890      2.1440     13.5460      0.0100     78.3900
    249     23.6260      2.8030     13.7670      1.5900     78.3900
    250     23.2360      4.3260     13.6440      2.1000     78.3900
    251     21.9800      4.5540     14.3890      1.5900     78.3900
    252     24.4060      5.1580     14.0250      1.5900     78.3900
    253     22.9260      4.5530     12.1220      1.5900     78.3900
    254     23.9560      4.6640     11.1190      1.7700     78.3900
    255     24.5700      3.7360     11.0830      0.0100     78.3900
    256     24.6360      5.5190     11.3400      0.0100     78.3900
    257     23.3450      4.8850      9.7230      1.7700     78.3900
    258     24.1390      4.9860      8.9520      0.0100     78.3900
    259     22.5390      3.7220      9.3690      1.5900     78.3900
    260     21.3470      4.1460      8.7260      1.7700     78.3900
    261     21.2980      3.5960      7.7580      0.0100     78.3900
    262     20.1610      3.8140      9.5240      1.6800     78.3900
    263     18.1160      3.3130     10.1570      1.7700     78.3900
    264     18.9120      3.2020     11.2890      1.6800     78.3900
    265     20.1060      3.5230     10.8660      1.7700     78.3900
    266     21.0000      3.5460     11.4870      0.0100     78.3900
    267     16.2620      3.2890      8.6850      1.6800     78.3900
    268     17.1200      3.6660      7.7300      1.7700     78.3900
    269     16.6860      3.7970      6.7320      0.0100     78.3900
    270     18.4370      3.8880      7.8120      1.6800     78.3900
    271     18.8740      3.6900      9.0640      1.7700     78.3900
    272     16.7380      3.0940      9.9440      1.7700     78.3900
    273     15.9100      2.6980     10.9340      1.6800     78.3900
    274     16.2340      2.5840     11.8800      0.0100     78.3900
    275     14.9500      2.4720     10.7370      0.0100     78.3900
    276     21.4790      5.6270      8.4520      1.7700     78.3900
    277     20.5030      6.1510      8.4720      0.0100     78.3900
    278     22.0950      5.8310      7.1960      1.5900     78.3900
    279     22.2650      6.7790      7.1210      0.0100     78.3900
    280     22.3800      6.0810      9.5950      1.7700     78.3900
    281     21.8010      6.1260     10.5470      0.0100     78.3900
    282     23.1190      7.2980      9.3280      1.5900     78.3900
    283     22.4930      8.6820      9.7640      2.1000     78.3900
    284     22.0380      8.5680     11.1650      1.5900     78.3900
    285     23.4580      9.7600      9.4640      1.5900     78.3900
    286     21.2290      8.8730      8.8520      1.5900     78.3900
    287     21.3830      9.2030      7.4510      1.7700     78.3900
    288     22.0580      8.4840      6.9290      0.0100     78.3900
    289     21.8310     10.2170      7.3410      0.0100     78.3900
    290     20.0220      9.2080      6.7380      1.7700     78.3900
    291     20.1420      9.4500      5.6590      0.0100     78.3900
    292     19.4110      7.8840      6.8270      1.5900     78.3900
    293     18.0060      8.0250      6.9900      1.7700     78.3900
    294     17.5290      7.4490      6.1630      0.0100     78.3900
    295     17.5480      7.4890      8.2820      1.6800     78.3900
    296     16.2640      7.1390      8.6020      1.7700     78.3900
    297     12.9090      6.9050      7.7680      1.6800     78.3900
    298     12.8860      7.2520      6.8310      0.0100     78.3900
    299     12.0450      6.6590      8.2170      0.0100     78.3900
    300     15.1930      7.2410      7.7940      1.6800     78.3900
    301     14.0720      6.8410      8.3880      1.7700     78.3900
    302     14.0370      6.3450      9.6640      1.6800     78.3900
    303     13.1450      6.0630     10.0410      0.0100     78.3900
    304     15.1280      6.2160     10.5110      1.7700     78.3900
    305     15.0020      5.7640     11.6520      1.5900     78.3900
    306     16.3220      6.6750      9.9020      1.7700     78.3900
    307     17.6150      6.7480     10.4020      1.6800     78.3900
    308     18.3060      7.2470      9.4050      1.7700     78.3900
    309     19.3720      7.4740      9.4250      0.0100     78.3900
    310     17.6780      9.4940      6.8370      1.7700     78.3900
    311     16.8070      9.8030      7.4480      0.0100     78.3900
    312     17.4220      9.7860      5.4780      1.5900     78.3900
    313     17.2910     10.7390      5.4210      0.0100     78.3900
    314     18.9660     10.1530      7.3280      1.7700     78.3900
    315     19.0450     10.0630      8.4370      0.0100     78.3900
    316     19.1890     11.5010      6.8490      1.5900     78.3900
    317     18.7800     12.7190      7.7630      2.1000     78.3900
    318     19.1940     12.4480      9.1540      1.5900     78.3900
    319     19.3110     13.9630      7.1610      1.5900     78.3900
    320     17.2110     12.7110      7.6730      1.5900     78.3900
    321     16.5660     13.0000      6.4090      1.7700     78.3900
    322     16.9430     12.3410      5.5960      0.0100     78.3900
    323     16.7660     14.0530      6.1040      0.0100     78.3900
    324     15.0470     12.8250      6.5210      1.7700     78.3900
    325     14.5390     13.1020      5.5730      0.0100     78.3900
    326     14.7270     11.4320      6.7980      1.5900     78.3900
    327     13.6180     11.3780      7.6850      1.7700     78.3900
    328     12.8330     10.7680      7.1810      0.0100     78.3900
    329     13.9860     10.7330      8.9540      1.6800     78.3900
    330     13.1270     10.1860      9.8680      1.7700     78.3900
    331      9.9070      9.4170     10.8820      1.6800     78.3900
    332      9.3530      9.8430     10.1690      0.0100     78.3900
    333      9.4510      8.9840     11.6630      0.0100     78.3900
    334     11.7870     10.1600      9.7730      1.6800     78.3900
    335     11.2200      9.5280     10.8000      1.7700     78.3900
    336     11.9350      8.9990     11.8430      1.6800     78.3900
    337     11.4240      8.5580     12.5910      0.0100     78.3900
    338     13.3180      9.0320     11.9800      1.7700     78.3900
    339     13.8860      8.5340     12.9590      1.5900     78.3900
    340     13.9280      9.6850     10.8760      1.7700     78.3900
    341     15.2680      9.9250     10.6060      1.6800     78.3900
    342     15.2540     10.5570      9.4590      1.7700     78.3900
    343     16.1330     10.9360      8.9350      0.0100     78.3900
    344     13.1090     12.7970      7.8820      1.7700     78.3900
    345     12.7060     12.9580      8.9060      0.0100     78.3900
    346     12.1130     13.0870      6.9130      1.5900     78.3900
    347     11.8790     14.0330      6.9650      0.0100     78.3900
    348     14.3860     13.6030      7.6660      1.7700     78.3900
    349     15.0420     13.5280      8.5600      0.0100     78.3900
    350     14.1800     14.9800      7.2930      1.5900     78.3900
    351     13.7590     15.4620      8.0260      0.0100     78.3900

     ----------------------------
     INPUT FOR TESSERA DEFINITION
     ----------------------------
     NTSALL  =        60     MTHALL  =         4
     MTHAUT  =         0     AUTFRE  =    2.0000
     NTSFRZ  =        60     KEEPSM  =         0
     AREAKP  =   10.0000     BONDRY  =    1.0000
     AREATL  =    0.0100

     SPHERE     INITS       METHOD
          1        60       FIXPVA
          2        60       FIXPVA
          3        60       FIXPVA
          4        60       FIXPVA
          5        60       FIXPVA
          6        60       FIXPVA
          7        60       FIXPVA
          8        60       FIXPVA
          9        60       FIXPVA
         10        60       FIXPVA
         11        60       FIXPVA
         12        60       FIXPVA
         13        60       FIXPVA
         14        60       FIXPVA
         15        60       FIXPVA
         16        60       FIXPVA
         17        60       FIXPVA
         18        60       FIXPVA
         19        60       FIXPVA
         20        60       FIXPVA
         21        60       FIXPVA
         22        60       FIXPVA
         23        60       FIXPVA
         24        60       FIXPVA
         25        60       FIXPVA
         26        60       FIXPVA
         27        60       FIXPVA
         28        60       FIXPVA
         29        60       FIXPVA
         30        60       FIXPVA
         31        60       FIXPVA
         32        60       FIXPVA
         33        60       FIXPVA
         34        60       FIXPVA
         35        60       FIXPVA
         36        60       FIXPVA
         37        60       FIXPVA
         38        60       FIXPVA
         39        60       FIXPVA
         40        60       FIXPVA
         41        60       FIXPVA
         42        60       FIXPVA
         43        60       FIXPVA
         44        60       FIXPVA
         45        60       FIXPVA
         46        60       FIXPVA
         47        60       FIXPVA
         48        60       FIXPVA
         49        60       FIXPVA
         50        60       FIXPVA
         51        60       FIXPVA
         52        60       FIXPVA
         53        60       FIXPVA
         54        60       FIXPVA
         55        60       FIXPVA
         56        60       FIXPVA
         57        60       FIXPVA
         58        60       FIXPVA
         59        60       FIXPVA
         60        60       FIXPVA
         61        60       FIXPVA
         62        60       FIXPVA
         63        60       FIXPVA
         64        60       FIXPVA
         65        60       FIXPVA
         66        60       FIXPVA
         67        60       FIXPVA
         68        60       FIXPVA
         69        60       FIXPVA
         70        60       FIXPVA
         71        60       FIXPVA
         72        60       FIXPVA
         73        60       FIXPVA
         74        60       FIXPVA
         75        60       FIXPVA
         76        60       FIXPVA
         77        60       FIXPVA
         78        60       FIXPVA
         79        60       FIXPVA
         80        60       FIXPVA
         81        60       FIXPVA
         82        60       FIXPVA
         83        60       FIXPVA
         84        60       FIXPVA
         85        60       FIXPVA
         86        60       FIXPVA
         87        60       FIXPVA
         88        60       FIXPVA
         89        60       FIXPVA
         90        60       FIXPVA
         91        60       FIXPVA
         92        60       FIXPVA
         93        60       FIXPVA
         94        60       FIXPVA
         95        60       FIXPVA
         96        60       FIXPVA
         97        60       FIXPVA
         98        60       FIXPVA
         99        60       FIXPVA
        100        60       FIXPVA
        101        60       FIXPVA
        102        60       FIXPVA
        103        60       FIXPVA
        104        60       FIXPVA
        105        60       FIXPVA
        106        60       FIXPVA
        107        60       FIXPVA
        108        60       FIXPVA
        109        60       FIXPVA
        110        60       FIXPVA
        111        60       FIXPVA
        112        60       FIXPVA
        113        60       FIXPVA
        114        60       FIXPVA
        115        60       FIXPVA
        116        60       FIXPVA
        117        60       FIXPVA
        118        60       FIXPVA
        119        60       FIXPVA
        120        60       FIXPVA
        121        60       FIXPVA
        122        60       FIXPVA
        123        60       FIXPVA
        124        60       FIXPVA
        125        60       FIXPVA
        126        60       FIXPVA
        127        60       FIXPVA
        128        60       FIXPVA
        129        60       FIXPVA
        130        60       FIXPVA
        131        60       FIXPVA
        132        60       FIXPVA
        133        60       FIXPVA
        134        60       FIXPVA
        135        60       FIXPVA
        136        60       FIXPVA
        137        60       FIXPVA
        138        60       FIXPVA
        139        60       FIXPVA
        140        60       FIXPVA
        141        60       FIXPVA
        142        60       FIXPVA
        143        60       FIXPVA
        144        60       FIXPVA
        145        60       FIXPVA
        146        60       FIXPVA
        147        60       FIXPVA
        148        60       FIXPVA
        149        60       FIXPVA
        150        60       FIXPVA
        151        60       FIXPVA
        152        60       FIXPVA
        153        60       FIXPVA
        154        60       FIXPVA
        155        60       FIXPVA
        156        60       FIXPVA
        157        60       FIXPVA
        158        60       FIXPVA
        159        60       FIXPVA
        160        60       FIXPVA
        161        60       FIXPVA
        162        60       FIXPVA
        163        60       FIXPVA
        164        60       FIXPVA
        165        60       FIXPVA
        166        60       FIXPVA
        167        60       FIXPVA
        168        60       FIXPVA
        169        60       FIXPVA
        170        60       FIXPVA
        171        60       FIXPVA
        172        60       FIXPVA
        173        60       FIXPVA
        174        60       FIXPVA
        175        60       FIXPVA
        176        60       FIXPVA
        177        60       FIXPVA
        178        60       FIXPVA
        179        60       FIXPVA
        180        60       FIXPVA
        181        60       FIXPVA
        182        60       FIXPVA
        183        60       FIXPVA
        184        60       FIXPVA
        185        60       FIXPVA
        186        60       FIXPVA
        187        60       FIXPVA
        188        60       FIXPVA
        189        60       FIXPVA
        190        60       FIXPVA
        191        60       FIXPVA
        192        60       FIXPVA
        193        60       FIXPVA
        194        60       FIXPVA
        195        60       FIXPVA
        196        60       FIXPVA
        197        60       FIXPVA
        198        60       FIXPVA
        199        60       FIXPVA
        200        60       FIXPVA
        201        60       FIXPVA
        202        60       FIXPVA
        203        60       FIXPVA
        204        60       FIXPVA
        205        60       FIXPVA
        206        60       FIXPVA
        207        60       FIXPVA
        208        60       FIXPVA
        209        60       FIXPVA
        210        60       FIXPVA
        211        60       FIXPVA
        212        60       FIXPVA
        213        60       FIXPVA
        214        60       FIXPVA
        215        60       FIXPVA
        216        60       FIXPVA
        217        60       FIXPVA
        218        60       FIXPVA
        219        60       FIXPVA
        220        60       FIXPVA
        221        60       FIXPVA
        222        60       FIXPVA
        223        60       FIXPVA
        224        60       FIXPVA
        225        60       FIXPVA
        226        60       FIXPVA
        227        60       FIXPVA
        228        60       FIXPVA
        229        60       FIXPVA
        230        60       FIXPVA
        231        60       FIXPVA
        232        60       FIXPVA
        233        60       FIXPVA
        234        60       FIXPVA
        235        60       FIXPVA
        236        60       FIXPVA
        237        60       FIXPVA
        238        60       FIXPVA
        239        60       FIXPVA
        240        60       FIXPVA
        241        60       FIXPVA
        242        60       FIXPVA
        243        60       FIXPVA
        244        60       FIXPVA
        245        60       FIXPVA
        246        60       FIXPVA
        247        60       FIXPVA
        248        60       FIXPVA
        249        60       FIXPVA
        250        60       FIXPVA
        251        60       FIXPVA
        252        60       FIXPVA
        253        60       FIXPVA
        254        60       FIXPVA
        255        60       FIXPVA
        256        60       FIXPVA
        257        60       FIXPVA
        258        60       FIXPVA
        259        60       FIXPVA
        260        60       FIXPVA
        261        60       FIXPVA
        262        60       FIXPVA
        263        60       FIXPVA
        264        60       FIXPVA
        265        60       FIXPVA
        266        60       FIXPVA
        267        60       FIXPVA
        268        60       FIXPVA
        269        60       FIXPVA
        270        60       FIXPVA
        271        60       FIXPVA
        272        60       FIXPVA
        273        60       FIXPVA
        274        60       FIXPVA
        275        60       FIXPVA
        276        60       FIXPVA
        277        60       FIXPVA
        278        60       FIXPVA
        279        60       FIXPVA
        280        60       FIXPVA
        281        60       FIXPVA
        282        60       FIXPVA
        283        60       FIXPVA
        284        60       FIXPVA
        285        60       FIXPVA
        286        60       FIXPVA
        287        60       FIXPVA
        288        60       FIXPVA
        289        60       FIXPVA
        290        60       FIXPVA
        291        60       FIXPVA
        292        60       FIXPVA
        293        60       FIXPVA
        294        60       FIXPVA
        295        60       FIXPVA
        296        60       FIXPVA
        297        60       FIXPVA
        298        60       FIXPVA
        299        60       FIXPVA
        300        60       FIXPVA
        301        60       FIXPVA
        302        60       FIXPVA
        303        60       FIXPVA
        304        60       FIXPVA
        305        60       FIXPVA
        306        60       FIXPVA
        307        60       FIXPVA
        308        60       FIXPVA
        309        60       FIXPVA
        310        60       FIXPVA
        311        60       FIXPVA
        312        60       FIXPVA
        313        60       FIXPVA
        314        60       FIXPVA
        315        60       FIXPVA
        316        60       FIXPVA
        317        60       FIXPVA
        318        60       FIXPVA
        319        60       FIXPVA
        320        60       FIXPVA
        321        60       FIXPVA
        322        60       FIXPVA
        323        60       FIXPVA
        324        60       FIXPVA
        325        60       FIXPVA
        326        60       FIXPVA
        327        60       FIXPVA
        328        60       FIXPVA
        329        60       FIXPVA
        330        60       FIXPVA
        331        60       FIXPVA
        332        60       FIXPVA
        333        60       FIXPVA
        334        60       FIXPVA
        335        60       FIXPVA
        336        60       FIXPVA
        337        60       FIXPVA
        338        60       FIXPVA
        339        60       FIXPVA
        340        60       FIXPVA
        341        60       FIXPVA
        342        60       FIXPVA
        343        60       FIXPVA
        344        60       FIXPVA
        345        60       FIXPVA
        346        60       FIXPVA
        347        60       FIXPVA
        348        60       FIXPVA
        349        60       FIXPVA
        350        60       FIXPVA
        351        60       FIXPVA

     ------------------------------
      FIXPVA TESSELLATION FOR PCM
         PEIFENG SU AND HUI LI
     UNIVERSITY OF NEBRASKA-LINCOLN
     ------------------------------


 PCM DIMENSIONS: MXSP=   351, MXTS=     14040, MEMORY=        144264

     INPUT FOR CAVITY DEFINITION 
     ---------------------------
   ATOM               COORDINATES                RADIUS       EPS
      1      7.0290      4.1020     18.5860      0.0100     78.3900
      2      7.0280      4.5290     17.7110      1.5900     78.3900
      3      5.6760      4.9250     17.4420      1.7700     78.3900
      4      5.3070      5.5630     18.2780      0.0100     78.3900
      5      5.0380      4.0140     17.3980      0.0100     78.3900
      6      5.5260      5.6900     16.1200      1.7700     78.3900
      7      4.4610      5.9560     15.9340      0.0100     78.3900
      8      6.2790      6.9360     16.1850      1.5900     78.3900
      9      6.8910      7.1800     14.9260      1.7700     78.3900
     10      6.5430      8.1880     14.6110      0.0100     78.3900
     11      8.3800      7.1870     14.9890      1.6800     78.3900
     12      9.0310      6.6300     16.0670      1.7700     78.3900
     13      8.4000      6.1930     16.8420      0.0100     78.3900
     14     10.3660      6.6570     16.1680      1.7700     78.3900
     15     10.8910      6.2450     17.0280      0.0100     78.3900
     16      9.1240      7.7600     13.9610      1.7700     78.3900
     17      8.5340      8.2560     12.9900      1.5900     78.3900
     18     10.4730      7.7810     14.0370      1.6800     78.3900
     19     11.0970      7.2770     15.1160      1.7700     78.3900
     20     12.4240      7.3620     15.1940      1.6800     78.3900
     21     12.9450      7.7700     14.4400      0.0100     78.3900
     22     12.9180      7.0020     15.9850      0.0100     78.3900
     23      6.3510      6.1520     13.9550      1.7700     78.3900
     24      7.0830      5.8930     13.1690      0.0100     78.3900
     25      5.1630      6.6250     13.3510      1.5900     78.3900
     26      4.8730      5.9260     12.7530      0.0100     78.3900
     27      6.0800      4.9730     14.8780      1.7700     78.3900
     28      7.0430      4.5050     15.1880      0.0100     78.3900
     29      5.1160      4.0160     14.3820      1.5900     78.3900
     30      5.6270      2.7490     13.5960      2.1000     78.3900
     31      6.7880      2.1590     14.2960      1.5900     78.3900
     32      4.4670      1.8600     13.3550      1.5900     78.3900
     33      6.1030      3.3640     12.2310      1.5900     78.3900
     34      5.1350      3.9200     11.3080      1.7700     78.3900
     35      4.4620      4.6600     11.8000      0.0100     78.3900
     36      4.4870      3.1130     10.8950      0.0100     78.3900
     37      5.8350      4.6220     10.1320      1.7700     78.3900
     38      5.0810      5.0660      9.4450      0.0100     78.3900
     39      6.6800      5.7080     10.6110      1.5900     78.3900
     40      7.8640      5.7670      9.8170      1.7700     78.3900
     41      7.9050      6.8070      9.4130      0.0100     78.3900
     42      9.1110      5.5120     10.6000      1.6800     78.3900
     43      9.0430      4.8760     11.8170      1.7700     78.3900
     44      8.0520      4.5600     12.1350      0.0100     78.3900
     45     10.1340      4.6750     12.5670      1.7700     78.3900
     46     10.0880      4.2070     13.5480      0.0100     78.3900
     47     10.3550      5.8720     10.0880      1.7700     78.3900
     48     10.4270      6.3730      8.9580      1.5900     78.3900
     49     11.4700      5.6760     10.8290      1.6800     78.3900
     50     11.3840      5.1130     12.0460      1.7700     78.3900
     51     12.4920      4.9620     12.7690      1.6800     78.3900
     52     13.3730      5.2580     12.3890      0.0100     78.3900
     53     12.4890      4.4830     13.6500      0.0100     78.3900
     54      7.6820      4.8010      8.6650      1.7700     78.3900
     55      8.6370      4.3550      8.3180      0.0100     78.3900
     56      7.0380      5.4610      7.5880      1.5900     78.3900
     57      6.8830      4.7810      6.9190      0.0100     78.3900
     58      6.7750      3.7500      9.2910      1.7700     78.3900
     59      7.3390      3.1290     10.0180      0.0100     78.3900
     60      6.0140      2.9690      8.3440      1.5900     78.3900
     61      6.5870      1.6040      7.8120      2.1000     78.3900
     62      7.2320      0.8970      8.9380      1.5900     78.3900
     63      5.4930      0.9060      7.1000      1.5900     78.3900
     64      7.7000      2.0320      6.7980      1.5900     78.3900
     65      7.4410      2.7550      5.5810      1.7700     78.3900
     66      6.8110      3.6600      5.7470      0.0100     78.3900
     67      6.8940      2.1030      4.8640      0.0100     78.3900
     68      8.7580      3.1910      4.9200      1.7700     78.3900
     69      8.5530      3.7860      4.0000      0.0100     78.3900
     70      9.5210      4.0520      5.8140      1.5900     78.3900
     71     10.9060      3.7810      5.6640      1.7700     78.3900
     72     11.3720      4.7480      5.3650      0.0100     78.3900
     73     11.5160      3.2980      6.9440      1.6800     78.3900
     74     10.7340      2.7020      7.9060      1.7700     78.3900
     75      9.6750      2.6350      7.6630      0.0100     78.3900
     76     12.8720      3.4510      7.1390      1.7700     78.3900
     77     13.6080      3.9420      6.2890      1.5900     78.3900
     78     13.3380      3.0360      8.3650      1.6800     78.3900
     79     14.3350      3.1310      8.5150      0.0100     78.3900
     80     12.5880      2.5290      9.4100      1.7700     78.3900
     81     13.0970      2.3230     10.5110      1.5900     78.3900
     82     11.2050      2.3240      9.1020      1.7700     78.3900
     83     10.5480      1.9390      9.8780      0.0100     78.3900
     84     11.0470      2.7850      4.5170      1.7700     78.3900
     85     11.8890      2.0940      4.6830      0.0100     78.3900
     86     11.2350      3.4580      3.2860      1.5900     78.3900
     87     11.3330      2.7630      2.6210      0.0100     78.3900
     88      9.7090      2.0450      4.5550      1.7700     78.3900
     89      9.6930      1.3010      5.3800      0.0100     78.3900
     90      9.2590      1.4680      3.3260      1.5900     78.3900
     91      9.7930      0.1970      2.5930      2.1000     78.3900
     92      9.0370      0.1510      1.3220      1.5900     78.3900
     93     11.2600      0.2580      2.4600      1.5900     78.3900
     94      9.3570     -1.0140      3.5030      1.5900     78.3900
     95      8.7330     -2.1900      2.9330      1.7700     78.3900
     96      8.9050     -2.2900      1.8360      0.0100     78.3900
     97      7.6330     -2.1160      3.0770      0.0100     78.3900
     98      9.2140     -3.4920      3.5940      1.7700     78.3900
     99      8.4240     -4.2700      3.5460      0.0100     78.3900
    100     10.3420     -4.0030      2.8260      1.5900     78.3900
    101     11.2740     -4.6220      3.7000      1.7700     78.3900
    102     11.3670     -5.6720      3.3430      0.0100     78.3900
    103     12.6050     -3.9520      3.6500      1.6800     78.3900
    104     12.7590     -2.7030      3.0830      1.7700     78.3900
    105     11.8400     -2.1940      2.7800      0.0100     78.3900
    106     13.6940     -4.6380      4.1420      1.7700     78.3900
    107     13.5990     -5.7640      4.6210      1.5900     78.3900
    108     14.8950     -3.9810      4.0340      1.6800     78.3900
    109     15.7030     -4.4860      4.3610      0.0100     78.3900
    110     15.1300     -2.7800      3.3950      1.7700     78.3900
    111     16.2770     -2.3510      3.2790      1.5900     78.3900
    112     13.9560     -2.1270      2.9100      1.7700     78.3900
    113     14.0570     -1.1620      2.4200      0.0100     78.3900
    114     10.6730     -4.6290      5.0910      1.7700     78.3900
    115     11.4550     -4.4840      5.8690      0.0100     78.3900
    116      9.9710     -5.8400      5.3300      1.5900     78.3900
    117      9.5240     -5.7290      6.1920      0.0100     78.3900
    118      9.7290     -3.4200      5.0410      1.7700     78.3900
    119     10.3140     -2.4830      5.1300      0.0100     78.3900
    120      8.6140     -3.4220      5.9650      1.5900     78.3900
    121      8.8250     -3.7360      7.4920      2.1000     78.3900
    122      7.9600     -2.8810      8.3240      1.5900     78.3900
    123      8.6820     -5.2020      7.6550      1.5900     78.3900
    124     10.3240     -3.3670      7.7750      1.5900     78.3900
    125     10.7840     -2.9850      9.0830      1.7700     78.3900
    126     10.2470     -3.5300      9.8950      0.0100     78.3900
    127     10.5770     -1.9010      9.2250      0.0100     78.3900
    128     12.2940     -3.2660      9.2630      1.7700     78.3900
    129     12.4470     -4.3110      9.6120      0.0100     78.3900
    130     13.0560     -3.0590      8.0340      1.5900     78.3900
    131     13.7170     -1.8040      8.0870      1.7700     78.3900
    132     14.8010     -2.0340      8.1910      0.0100     78.3900
    133     13.4820     -1.0410      6.8690      1.6800     78.3900
    134     14.3710     -0.2460      6.1920      1.7700     78.3900
    135     17.5130      1.1490      5.8370      1.6800     78.3900
    136     18.0270      1.6590      5.1430      0.0100     78.3900
    137     17.9940      0.7840      6.6400      0.0100     78.3900
    138     15.6500     -0.0080      6.5370      1.6800     78.3900
    139     16.2590      0.7930      5.6600      1.7700     78.3900
    140     15.6560      1.2990      4.5410      1.6800     78.3900
    141     16.2000      1.8810      3.9190      0.0100     78.3900
    142     14.3540      1.0370      4.1500      1.7700     78.3900
    143     13.9230      1.5300      3.1060      1.5900     78.3900
    144     13.6800      0.2150      5.0940      1.7700     78.3900
    145     12.3820     -0.2660      5.1030      1.6800     78.3900
    146     12.3040     -1.0010      6.1720      1.7700     78.3900
    147     11.4220     -1.5530      6.5010      0.0100     78.3900
    148     13.2270     -1.0890      9.3220      1.7700     78.3900
    149     12.3080     -0.4970      9.1210      0.0100     78.3900
    150     14.2220     -0.2880      9.9060      1.5900     78.3900
    151     14.8170     -0.9360     10.3120      0.0100     78.3900
    152     12.9250     -2.2670     10.2350      1.7700     78.3900
    153     12.1500     -1.9380     10.9680      0.0100     78.3900
    154     14.1120     -2.8050     10.8730      1.5900     78.3900
    155     14.0090     -3.4590     12.2980      2.1000     78.3900
    156     15.1540     -2.9980     13.1110      1.5900     78.3900
    157     12.6590     -3.2210     12.8570      1.5900     78.3900
    158     14.1670     -5.0020     11.9800      1.5900     78.3900
    159     13.2860     -5.9730     12.6180      1.7700     78.3900
    160     12.5570     -6.3480     11.8680      0.0100     78.3900
    161     12.6830     -5.5410     13.4540      0.0100     78.3900
    162     14.0270     -7.1840     13.2160      1.7700     78.3900
    163     13.3220     -7.8270     13.7850      0.0100     78.3900
    164     14.5660     -8.0140     12.1560      1.5900     78.3900
    165     15.8520     -8.4900     12.5330      1.7700     78.3900
    166     15.7980     -9.5980     12.4380      0.0100     78.3900
    167     16.9390     -7.9860     11.6440      1.6800     78.3900
    168     16.6670     -7.0120     10.7040      1.7700     78.3900
    169     15.6470     -6.6180     10.6900      0.0100     78.3900
    170     17.6150     -6.5650      9.8710      1.7700     78.3900
    171     17.4190     -5.8030      9.1210      0.0100     78.3900
    172     18.2310     -8.5110     11.7380      1.7700     78.3900
    173     18.4770     -9.3860     12.5860      1.5900     78.3900
    174     19.1950     -8.0710     10.8970      1.6800     78.3900
    175     18.9110     -7.1400      9.9710      1.7700     78.3900
    176     19.8640     -6.7650      9.1250      1.6800     78.3900
    177     20.7890     -7.1130      9.2810      0.0100     78.3900
    178     19.7410     -6.0130      8.4790      0.0100     78.3900
    179     16.0640     -8.1280     13.9930      1.7700     78.3900
    180     17.1300     -7.9100     14.2190      0.0100     78.3900
    181     15.5870     -9.1480     14.8600      1.5900     78.3900
    182     15.6210     -8.7850     15.7590      0.0100     78.3900
    183     15.2320     -6.8590     14.1110      1.7700     78.3900
    184     15.7710     -6.0000     13.6510      0.0100     78.3900
    185     14.7760     -6.5440     15.4340      1.5900     78.3900
    186     15.7640     -6.1970     16.6030      2.1000     78.3900
    187     15.1990     -5.0160     17.2930      1.5900     78.3900
    188     15.9690     -7.4310     17.3980      1.5900     78.3900
    189     17.1190     -5.8160     15.9210      1.5900     78.3900
    190     17.8250     -4.5860     16.2060      1.7700     78.3900
    191     17.7680     -4.3070     17.2840      0.0100     78.3900
    192     17.3660     -3.7590     15.6150      0.0100     78.3900
    193     19.3200     -4.6810     15.8310      1.7700     78.3900
    194     19.8910     -5.2230     16.6140      0.0100     78.3900
    195     19.4770     -5.4500     14.6010      1.5900     78.3900
    196     20.4340     -4.8360     13.7670      1.7700     78.3900
    197     21.1700     -5.6440     13.5400      0.0100     78.3900
    198     19.8310     -4.3330     12.5040      1.6800     78.3900
    199     18.5120     -3.9250     12.4780      1.7700     78.3900
    200     17.9590     -4.0250     13.4170      0.0100     78.3900
    201     17.9420     -3.4870     11.3460      1.7700     78.3900
    202     16.8980     -3.1850     11.3000      0.0100     78.3900
    203     20.6010     -4.2670     11.3460      1.7700     78.3900
    204     21.7820     -4.6470     11.3820      1.5900     78.3900
    205     20.0470     -3.7980     10.2040      1.6800     78.3900
    206     18.7470     -3.4620     10.1700      1.7700     78.3900
    207     18.2160     -3.1470      8.9870      1.6800     78.3900
    208     17.2890     -2.7900      8.9020      0.0100     78.3900
    209     18.8010     -3.1470      8.1730      0.0100     78.3900
    210     21.1260     -3.7520     14.5770      1.7700     78.3900
    211     21.4500     -2.8960     13.9500      0.0100     78.3900
    212     22.2390     -4.2940     15.2710      1.5900     78.3900
    213     22.5500     -3.6250     15.9040      0.0100     78.3900
    214     20.0160     -3.3380     15.5380      1.7700     78.3900
    215     19.2660     -2.7190     14.9930      0.0100     78.3900
    216     20.4750     -2.7300     16.7700      1.5900     78.3900
    217     20.5390     -1.1590     16.8790      2.1000     78.3900
    218     19.3810     -0.6110     16.1350      1.5900     78.3900
    219     20.6680     -0.7510     18.2970      1.5900     78.3900
    220     21.8850     -0.7680     16.1630      1.5900     78.3900
    221     22.0910      0.5720     15.6370      1.7700     78.3900
    222     22.7140      1.1660     16.3440      0.0100     78.3900
    223     21.1320      1.1320     15.5070      0.0100     78.3900
    224     22.8040      0.5440     14.2720      1.7700     78.3900
    225     23.8870      0.3170     14.3970      0.0100     78.3900
    226     22.2540     -0.5290     13.4610      1.5900     78.3900
    227     22.1480     -0.1220     12.1230      1.7700     78.3900
    228     22.7010     -0.8740     11.5150      0.0100     78.3900
    229     20.7460     -0.1110     11.7130      1.6800     78.3900
    230     18.9270     -0.0840     10.4960      1.7700     78.3900
    231     18.5030     -0.2210     11.8090      1.6800     78.3900
    232     19.6180     -0.2290     12.4980      1.7700     78.3900
    233     19.6880     -0.3210     13.5870      0.0100     78.3900
    234     18.9550      0.1430      8.1420      1.6800     78.3900
    235     20.2840      0.1970      8.2330      1.7700     78.3900
    236     20.8170      0.3090      7.2840      0.0100     78.3900
    237     21.0540      0.1060      9.3210      1.6800     78.3900
    238     20.3040     -0.0230     10.4270      1.7700     78.3900
    239     18.2310     -0.0070      9.2750      1.7700     78.3900
    240     16.9040     -0.0910      9.1740      1.6800     78.3900
    241     16.3110      0.1450      9.9430      0.0100     78.3900
    242     16.4710     -0.0150      8.2650      0.0100     78.3900
    243     22.8150      1.2350     11.9960      1.7700     78.3900
    244     22.3300      1.8830     11.2370      0.0100     78.3900
    245     24.1810      1.0650     11.6640      1.5900     78.3900
    246     24.6250      1.9140     11.8000      0.0100     78.3900
    247     22.6420      1.8030     13.4010      1.7700     78.3900
    248     21.5890      2.1440     13.5460      0.0100     78.3900
    249     23.6260      2.8030     13.7670      1.5900     78.3900
    250     23.2360      4.3260     13.6440      2.1000     78.3900
    251     21.9800      4.5540     14.3890      1.5900     78.3900
    252     24.4060      5.1580     14.0250      1.5900     78.3900
    253     22.9260      4.5530     12.1220      1.5900     78.3900
    254     23.9560      4.6640     11.1190      1.7700     78.3900
    255     24.5700      3.7360     11.0830      0.0100     78.3900
    256     24.6360      5.5190     11.3400      0.0100     78.3900
    257     23.3450      4.8850      9.7230      1.7700     78.3900
    258     24.1390      4.9860      8.9520      0.0100     78.3900
    259     22.5390      3.7220      9.3690      1.5900     78.3900
    260     21.3470      4.1460      8.7260      1.7700     78.3900
    261     21.2980      3.5960      7.7580      0.0100     78.3900
    262     20.1610      3.8140      9.5240      1.6800     78.3900
    263     18.1160      3.3130     10.1570      1.7700     78.3900
    264     18.9120      3.2020     11.2890      1.6800     78.3900
    265     20.1060      3.5230     10.8660      1.7700     78.3900
    266     21.0000      3.5460     11.4870      0.0100     78.3900
    267     16.2620      3.2890      8.6850      1.6800     78.3900
    268     17.1200      3.6660      7.7300      1.7700     78.3900
    269     16.6860      3.7970      6.7320      0.0100     78.3900
    270     18.4370      3.8880      7.8120      1.6800     78.3900
    271     18.8740      3.6900      9.0640      1.7700     78.3900
    272     16.7380      3.0940      9.9440      1.7700     78.3900
    273     15.9100      2.6980     10.9340      1.6800     78.3900
    274     16.2340      2.5840     11.8800      0.0100     78.3900
    275     14.9500      2.4720     10.7370      0.0100     78.3900
    276     21.4790      5.6270      8.4520      1.7700     78.3900
    277     20.5030      6.1510      8.4720      0.0100     78.3900
    278     22.0950      5.8310      7.1960      1.5900     78.3900
    279     22.2650      6.7790      7.1210      0.0100     78.3900
    280     22.3800      6.0810      9.5950      1.7700     78.3900
    281     21.8010      6.1260     10.5470      0.0100     78.3900
    282     23.1190      7.2980      9.3280      1.5900     78.3900
    283     22.4930      8.6820      9.7640      2.1000     78.3900
    284     22.0380      8.5680     11.1650      1.5900     78.3900
    285     23.4580      9.7600      9.4640      1.5900     78.3900
    286     21.2290      8.8730      8.8520      1.5900     78.3900
    287     21.3830      9.2030      7.4510      1.7700     78.3900
    288     22.0580      8.4840      6.9290      0.0100     78.3900
    289     21.8310     10.2170      7.3410      0.0100     78.3900
    290     20.0220      9.2080      6.7380      1.7700     78.3900
    291     20.1420      9.4500      5.6590      0.0100     78.3900
    292     19.4110      7.8840      6.8270      1.5900     78.3900
    293     18.0060      8.0250      6.9900      1.7700     78.3900
    294     17.5290      7.4490      6.1630      0.0100     78.3900
    295     17.5480      7.4890      8.2820      1.6800     78.3900
    296     16.2640      7.1390      8.6020      1.7700     78.3900
    297     12.9090      6.9050      7.7680      1.6800     78.3900
    298     12.8860      7.2520      6.8310      0.0100     78.3900
    299     12.0450      6.6590      8.2170      0.0100     78.3900
    300     15.1930      7.2410      7.7940      1.6800     78.3900
    301     14.0720      6.8410      8.3880      1.7700     78.3900
    302     14.0370      6.3450      9.6640      1.6800     78.3900
    303     13.1450      6.0630     10.0410      0.0100     78.3900
    304     15.1280      6.2160     10.5110      1.7700     78.3900
    305     15.0020      5.7640     11.6520      1.5900     78.3900
    306     16.3220      6.6750      9.9020      1.7700     78.3900
    307     17.6150      6.7480     10.4020      1.6800     78.3900
    308     18.3060      7.2470      9.4050      1.7700     78.3900
    309     19.3720      7.4740      9.4250      0.0100     78.3900
    310     17.6780      9.4940      6.8370      1.7700     78.3900
    311     16.8070      9.8030      7.4480      0.0100     78.3900
    312     17.4220      9.7860      5.4780      1.5900     78.3900
    313     17.2910     10.7390      5.4210      0.0100     78.3900
    314     18.9660     10.1530      7.3280      1.7700     78.3900
    315     19.0450     10.0630      8.4370      0.0100     78.3900
    316     19.1890     11.5010      6.8490      1.5900     78.3900
    317     18.7800     12.7190      7.7630      2.1000     78.3900
    318     19.1940     12.4480      9.1540      1.5900     78.3900
    319     19.3110     13.9630      7.1610      1.5900     78.3900
    320     17.2110     12.7110      7.6730      1.5900     78.3900
    321     16.5660     13.0000      6.4090      1.7700     78.3900
    322     16.9430     12.3410      5.5960      0.0100     78.3900
    323     16.7660     14.0530      6.1040      0.0100     78.3900
    324     15.0470     12.8250      6.5210      1.7700     78.3900
    325     14.5390     13.1020      5.5730      0.0100     78.3900
    326     14.7270     11.4320      6.7980      1.5900     78.3900
[...]
     8   1.0   0.7530587
     9   7.0   7.8336021
    10   6.0   5.8231527
    11   1.0   0.6637816
    12   6.0   4.8821158
    13   8.0   8.6799316
    14   7.0   7.9441197
    15   1.0   0.5152325
    16   6.0   5.0992649
    17   8.0   8.7258521
    18   6.0   6.4812872
    19   1.0   0.7348374
    20   6.0   5.8548461
    21   1.0   0.7612632
    22   8.0   8.8520903
    23   1.0   0.4924885
    24   6.0   5.8259992
    25   1.0   0.7817519
    26   8.0   8.7754966
    27  15.0  13.4313504
    28   8.0   8.9226968
    29   8.0   8.8588005
    30   8.0   8.9694270
    31   5.0   5.3769274
    32   1.0   0.8587500
    33   1.0   0.7473714
    34   6.0   5.9060890
    35   1.0   0.7486279
    36   8.0   8.7333619
    37   6.0   5.5682409
    38   1.0   0.7462065
    39   7.0   7.8285537
    40   6.0   5.8088824
    41   1.0   0.6981209
    42   6.0   6.4083654
    43   1.0   0.7306892
    44   6.0   4.9351387
    45   8.0   8.7892782
    46   7.0   7.8778235
    47   6.0   5.2410481
    48   7.0   7.9486579
    49   1.0   0.5319486
    50   1.0   0.5588797
    51   6.0   5.9052053
    52   1.0   0.7635904
    53   8.0   8.8440148
    54   1.0   0.4749522
    55   6.0   5.8640660
    56   1.0   0.7560148
    57   8.0   8.7955209
    58  15.0  13.3430028
    59   8.0   8.8852917
    60   8.0   8.8920675
    61   8.0   8.7849109
    62   1.0   0.4072569
 Redoing 1e ESP:                    -1

  iFrag=      3 jFrag=      2 EFMOc= -2761.520497935

  iFrag=      3 jFrag=      2 EFMOu= -2755.662645356 Tr=-0.000447508

 I,J=       4       2 Ees_I(J)=  -23.189 Ees_J(I)=  -31.873 Ees_IJ=  -55.062

 energy of the separated dimer    4    2, L1=  680 is     -2740.605260199

 CPU     0: STEP CPU TIME=   256.31 TOTAL CPU TIME=      16483.1 (    274.7 MIN)
 TOTAL WALL CLOCK TIME=      38641.2 SECONDS, CPU UTILIZATION IS    42.66%

 RHF      dimer      4      2 corr= MP2        , LL1=   680 ID=            24

          -----------------------
          MP2 CONTROL INFORMATION
          -----------------------
          NACORE =       48  NBCORE =       48
          LMOMP2 =        F  AOINTS = DUP     
          METHOD =        2  NWORD  =               0
          MP2PRP =        F  OSPT   = NONE    
          CUTOFF = 1.00E-12  CPHFBS = BASISAO 
          CODE   = IMS     

          NUMBER OF CORE -A-  ORBITALS =    48
          NUMBER OF CORE -B-  ORBITALS =    48
          NUMBER OF OCC. -A-  ORBITALS =   158
          NUMBER OF OCC. -B-  ORBITALS =   158
          NUMBER OF MOLECULAR ORBITALS =   680
          NUMBER OF   BASIS  FUNCTIONS =   680


 AO spaces for     4     2     0 n-mer: L1=   680, L0=   638

 DIRECT SCF CALCULATION, SCHWRZ=T   FDIFF=T,  DIRTHR=  0.00E+00 NITDIR=10

                                                                                   NONZERO     BLOCKS
 ITER EX DEM     TOTAL ENERGY        E CHANGE  DENSITY CHANGE     ORB. GRAD      INTEGRALS    SKIPPED
   1  0  0    -2663.5156274889 -2663.5156274889   0.020279268   0.000000000     2755751619  229197131
          ---------------START SECOND ORDER SCF---------------
   2  1  0    -2663.6300838471    -0.1144563582   0.003194422   0.000311529     2266180762  236947135
   3  2  0    -2663.6300897838    -0.0000059367   0.000732952   0.000068702     2056896116  238876581
   4  3  0    -2663.6300898992    -0.0000001154   0.000074944   0.000014377     1928454540  240022407
   5  4  0    -2663.6300880754     0.0000018238   0.000037764   0.000006470     1807166470  240975512
   6  5  0    -2663.6300888061    -0.0000007308   0.000007894   0.000002008     1616105456  242696415
   7  6  0    -2663.6300886480     0.0000001581   0.000004406   0.000000922     1484674444  243734319
   8  7  0    -2663.6300886407     0.0000000073   0.000000667   0.000000221     1409134789  244337297
   9  8  0    -2663.6300886481    -0.0000000074   0.000000636   0.000000148     1227813019  245858464
  10  9  0    -2663.6300886437     0.0000000044   0.000000140   0.000000039     1134883872  246601397
  11 10  0    -2663.6300886479    -0.0000000042   0.000000034   0.000000014      997492851  247737314

          -----------------
          DENSITY CONVERGED
          -----------------
     TIME TO FORM FOCK OPERATORS=      66.4 SECONDS (       6.0 SEC/ITER)
     FOCK TIME ON FIRST ITERATION=      11.3, LAST ITERATION=       3.4
     TIME TO SOLVE SCF EQUATIONS=       1.1 SECONDS (       0.1 SEC/ITER)

 FINAL RHF ENERGY IS    -2663.6300886479 AFTER  11 ITERATIONS
 ...... END OF RHF CALCULATION ......
 CPU     0: STEP CPU TIME=   127.87 TOTAL CPU TIME=      16611.0 (    276.8 MIN)
 TOTAL WALL CLOCK TIME=      38899.9 SECONDS, CPU UTILIZATION IS    42.70%

 --------------------------   -----------------------------
 RHF-MP2 ENERGY CALCULATION   PROGRAM WRITTEN BY K.ISHIMURA
 --------------------------   -----------------------------
 NUMBER OF OCCUPIED ORBITALS            =  158
 NUMBER OF CORRELATED OCCUPIED ORBITALS =  110
 NUMBER OF VIRTUAL ORBITALS             =  470
 NUMBER OF BASIS FUNCTIONS              =  680
 NUMBER OF BASIS SHELLS                 =  212
 AO-TRANSFORMED INTEGRAL THRESHOLD      = 1.00E-12
 HALF-TRANSFORMED INTEGRAL THRESHOLD    = 4.37E-14

 NUMBER OF REDUNDANT MOS IN FMO         =   10
 TOTAL DISK REQUIRED (ALL PROCESSORS)=          15609 MBYTES
                  DISK SPACE PER CORE=            975 MBYTES, USING P=   16
 MEMORY REQUIRED FOR TRANSFORMATION OF 1ST THREE INDICES=    28876331
 MEMORY REQUIRED FOR    4TH INDEX TRANSF. AND MP2 ENERGY=    57009476
 BEGINNING MP2 INTEGRAL TRANSFORMATION...
 BEGINNING    1ST SHELL LOOP...
 BEGINNING   26TH SHELL LOOP...
 BEGINNING   51ST SHELL LOOP...
 BEGINNING   76TH SHELL LOOP...
 BEGINNING  101ST SHELL LOOP...
 BEGINNING  126TH SHELL LOOP...
 BEGINNING  151ST SHELL LOOP...
 BEGINNING  176TH SHELL LOOP...
 BEGINNING  201ST SHELL LOOP...

 RESULTS OF MOLLER-PLESSET 2ND ORDER CORRECTION ARE
               E(0)=     -2663.6300886479
               E(1)=         0.0
               E(2)=        -5.7967535600
             E(MP2)=     -2669.4268422079
 SPIN-COMPONENT-SCALED MP2 RESULTS ARE
              E(2S)=        -4.2042271825
              E(2T)=        -1.5925263775
             E(2ST)=        -5.5759147448 = 6/5 * E(2S) + 1/3 * E(2T)
            SCS-MP2=     -2669.2060033927

          ---------------------
          ELECTROSTATIC MOMENTS
          ---------------------

 POINT   1           X           Y           Z (BOHR)    CHARGE
                27.778557    3.916521   18.816670       -2.00 (A.U.)
         DX          DY          DZ         /D/  (DEBYE)
    66.505326   35.690932   30.738304   81.496284

 Atomic populations
     I    Z      Q
     1   5.0   5.4083010
     2   1.0   0.7593369
     3   1.0   0.7872793
     4   6.0   5.9171918
     5   1.0   0.7585856
     6   8.0   8.7379670
     7   6.0   5.5682372
     8   1.0   0.7483572
     9   7.0   7.8379411
    10   6.0   5.7831509
    11   1.0   0.6703458
    12   6.0   4.8815017
    13   8.0   8.6937821
    14   7.0   7.9499034
    15   1.0   0.5363173
    16   6.0   5.1333710
    17   8.0   8.7067936
    18   6.0   6.4521127
    19   1.0   0.7328870
    20   6.0   5.9132731
    21   1.0   0.7634554
    22   8.0   8.8913191
    23   1.0   0.4607182
    24   6.0   5.7904406
    25   1.0   0.7925492
    26   8.0   8.7868843
    27  15.0  13.3728574
    28   8.0   8.8652015
    29   8.0   8.9173796
    30   8.0   8.9799032
    31   5.0   5.3765626
    32   1.0   0.8589873
    33   1.0   0.7460983
    34   6.0   5.9070112
    35   1.0   0.7486044
    36   8.0   8.7328004
    37   6.0   5.5697937
    38   1.0   0.7460969
    39   7.0   7.8273842
    40   6.0   5.8084510
    41   1.0   0.6971117
    42   6.0   6.4088443
    43   1.0   0.7302393
    44   6.0   4.9373212
    45   8.0   8.7880141
    46   7.0   7.8770233
    47   6.0   5.2417413
    48   7.0   7.9485239
    49   1.0   0.5330595
    50   1.0   0.5588451
    51   6.0   5.8726273
    52   1.0   0.7948459
    53   8.0   8.8276616
    54   1.0   0.4980603
    55   6.0   5.8521452
    56   1.0   0.7548089
    57   8.0   8.7927961
    58  15.0  13.4022348
    59   8.0   8.8832328
    60   8.0   8.8951084
    61   8.0   8.9732265
    62   1.0   0.4019420
    63   1.0   0.4114525
 Redoing 1e ESP:                    -1

  iFrag=      4 jFrag=      2 EFMOc= -2746.402071207

  iFrag=      4 jFrag=      2 EFMOu= -2740.605317647 Tr=-0.000205292

 I,J=       4       3 Ees_I(J)=  -12.128 Ees_J(I)=  -20.452 Ees_IJ=  -32.580

 energy of the separated dimer    4    3, L1=  678 is     -2775.224833841

 CPU     0: STEP CPU TIME=    88.32 TOTAL CPU TIME=      16699.3 (    278.3 MIN)
 TOTAL WALL CLOCK TIME=      39263.9 SECONDS, CPU UTILIZATION IS    42.53%

 RHF      dimer      4      3 corr= MP2        , LL1=   678 ID=            25

          -----------------------
          MP2 CONTROL INFORMATION
          -----------------------
          NACORE =       48  NBCORE =       48
          LMOMP2 =        F  AOINTS = DUP     
          METHOD =        2  NWORD  =               0
          MP2PRP =        F  OSPT   = NONE    
          CUTOFF = 1.00E-12  CPHFBS = BASISAO 
          CODE   = IMS     

          NUMBER OF CORE -A-  ORBITALS =    48
          NUMBER OF CORE -B-  ORBITALS =    48
          NUMBER OF OCC. -A-  ORBITALS =   158
          NUMBER OF OCC. -B-  ORBITALS =   158
          NUMBER OF MOLECULAR ORBITALS =   663
          NUMBER OF   BASIS  FUNCTIONS =   663


 AO spaces for     4     3     0 n-mer: L1=   663, L0=   622

 DIRECT SCF CALCULATION, SCHWRZ=T   FDIFF=T,  DIRTHR=  0.00E+00 NITDIR=10

                                                                                   NONZERO     BLOCKS
 ITER EX DEM     TOTAL ENERGY        E CHANGE  DENSITY CHANGE     ORB. GRAD      INTEGRALS    SKIPPED
   1  0  0    -2676.5708005021 -2676.5708005021   0.120458683   0.000000000     3332043907  194883777
          ---------------START SECOND ORDER SCF---------------
   2  1  0    -2677.4143085249    -0.8435080229   0.036863701   0.006928679     3065292143  200867257
   3  2  0    -2677.4203441932    -0.0060356683   0.014054590   0.002512269     2919572828  202851203
   4  3  0    -2677.4213187758    -0.0009745826   0.004286128   0.001021414     2779332413  204341020
   5  4  0    -2677.4213116302     0.0000071456   0.000753407   0.000095648     2578509929  206440811
   6  5  0    -2677.4213220779    -0.0000104477   0.000223192   0.000054766     2406069436  208045175
   7  6  0    -2677.4213244360    -0.0000023581   0.000101032   0.000016323     2228802473  209635331
   8  7  0    -2677.4213243267     0.0000001093   0.000026839   0.000005799     2048044336  211216837
   9  8  0    -2677.4213245780    -0.0000002514   0.000007291   0.000003802     1883816092  212673033
  10  9  0    -2677.4213245355     0.0000000426   0.000002512   0.000001395     1700624241  214254071
  11 10  0    -2677.4213246012    -0.0000000658   0.000001058   0.000000502     1573133092  215348176
  12 11  0    -2677.4213246228    -0.0000000216   0.000000459   0.000000211     1406085335  216730101
  13 12  0    -2677.4213246433    -0.0000000204   0.000000147   0.000000038     1310666234  217500825
  14 13  0    -2677.4213246443    -0.0000000010   0.000000055   0.000000012     1107022006  219154767

          -----------------
          DENSITY CONVERGED
          -----------------
     TIME TO FORM FOCK OPERATORS=     103.6 SECONDS (       7.4 SEC/ITER)
     FOCK TIME ON FIRST ITERATION=      12.2, LAST ITERATION=       3.6
     TIME TO SOLVE SCF EQUATIONS=       1.2 SECONDS (       0.1 SEC/ITER)

 FINAL RHF ENERGY IS    -2677.4213246443 AFTER  14 ITERATIONS
 ...... END OF RHF CALCULATION ......
 CPU     0: STEP CPU TIME=   181.44 TOTAL CPU TIME=      16880.7 (    281.3 MIN)
 TOTAL WALL CLOCK TIME=      39595.7 SECONDS, CPU UTILIZATION IS    42.63%

 --------------------------   -----------------------------
 RHF-MP2 ENERGY CALCULATION   PROGRAM WRITTEN BY K.ISHIMURA
 --------------------------   -----------------------------
 NUMBER OF OCCUPIED ORBITALS            =  158
 NUMBER OF CORRELATED OCCUPIED ORBITALS =  110
 NUMBER OF VIRTUAL ORBITALS             =  459
 NUMBER OF BASIS FUNCTIONS              =  663
 NUMBER OF BASIS SHELLS                 =  206
 AO-TRANSFORMED INTEGRAL THRESHOLD      = 1.00E-12
 HALF-TRANSFORMED INTEGRAL THRESHOLD    = 4.40E-14

 NUMBER OF REDUNDANT MOS IN FMO         =    5
 TOTAL DISK REQUIRED (ALL PROCESSORS)=          14862 MBYTES
                  DISK SPACE PER CORE=            928 MBYTES, USING P=   16
 MEMORY REQUIRED FOR TRANSFORMATION OF 1ST THREE INDICES=    28187323
 MEMORY REQUIRED FOR    4TH INDEX TRANSF. AND MP2 ENERGY=    57344080
 BEGINNING MP2 INTEGRAL TRANSFORMATION...
 BEGINNING    1ST SHELL LOOP...
 BEGINNING   26TH SHELL LOOP...
 BEGINNING   51ST SHELL LOOP...
 BEGINNING   76TH SHELL LOOP...
 BEGINNING  101ST SHELL LOOP...
 BEGINNING  126TH SHELL LOOP...
 BEGINNING  151ST SHELL LOOP...
 BEGINNING  176TH SHELL LOOP...
 BEGINNING  201ST SHELL LOOP...

 RESULTS OF MOLLER-PLESSET 2ND ORDER CORRECTION ARE
               E(0)=     -2677.4213246443
               E(1)=         0.0
               E(2)=        -5.8627718914
             E(MP2)=     -2683.2840965357
 SPIN-COMPONENT-SCALED MP2 RESULTS ARE
              E(2S)=        -4.2436530252
              E(2T)=        -1.6191188662
             E(2ST)=        -5.6320899190 = 6/5 * E(2S) + 1/3 * E(2T)
            SCS-MP2=     -2683.0534145633

          ---------------------
          ELECTROSTATIC MOMENTS
          ---------------------

 POINT   1           X           Y           Z (BOHR)    CHARGE
                27.778557    3.916521   18.816670       -2.00 (A.U.)
         DX          DY          DZ         /D/  (DEBYE)
    43.574847   37.440596   51.144762   76.917828

 Atomic populations
     I    Z      Q
     1   6.0   5.9989864
     2   1.0   0.7860757
     3   1.0   0.8055985
     4   6.0   5.8535176
     5   1.0   0.7832982
     6   8.0   8.7434827
     7   6.0   5.5660181
     8   1.0   0.7502410
     9   7.0   7.8404389
    10   6.0   5.7901701
    11   1.0   0.6719138
    12   6.0   4.8812949
    13   8.0   8.6954035
    14   7.0   7.9499801
    15   1.0   0.5371435
    16   6.0   5.1330920
    17   8.0   8.7066050
    18   6.0   6.4569765
    19   1.0   0.7366886
    20   6.0   5.9136495
    21   1.0   0.7643713
    22   8.0   8.8927789
    23   1.0   0.4610836
    24   6.0   5.8172106
    25   1.0   0.7942432
    26   8.0   8.7877390
    27  15.0  13.3733156
    28   8.0   8.8661174
    29   8.0   8.9182881
    30   8.0   8.9799034
    31   5.0   5.3781102
    32   1.0   0.8464637
    33   1.0   0.7539738
    34   6.0   5.9190583
    35   1.0   0.7504055
    36   8.0   8.7290396
    37   6.0   5.5817256
    38   1.0   0.7505159
    39   7.0   7.8264698
    40   6.0   5.8120593
    41   1.0   0.6838482
    42   6.0   4.8828416
    43   8.0   8.6783734
    44   7.0   7.9430976
    45   1.0   0.5143851
    46   6.0   5.1041385
    47   8.0   8.7230258
    48   6.0   6.4710847
    49   1.0   0.7321781
    50   6.0   5.8548551
    51   1.0   0.7605704
    52   8.0   8.8497458
    53   1.0   0.4924005
    54   6.0   5.8143941
    55   1.0   0.7839179
    56   8.0   8.7688646
    57  15.0  13.3854042
    58   8.0   8.9069756
    59   8.0   8.8575977
    60   8.0   8.7859433
    61   1.0   0.4029103
 Redoing 1e ESP:                    -1

  iFrag=      4 jFrag=      3 EFMOc= -2781.426367174

  iFrag=      4 jFrag=      3 EFMOu= -2775.563595282 Tr=-0.001479044

 I,J=      11       1 Ees_I(J)=    4.453 Ees_J(I)=   -0.973 Ees_IJ=    3.481

 energy of the separated dimer   11    1, L1=  667 is     -2393.268700694

 CPU     0: STEP CPU TIME=   313.72 TOTAL CPU TIME=      17194.4 (    286.6 MIN)
 TOTAL WALL CLOCK TIME=      40031.9 SECONDS, CPU UTILIZATION IS    42.95%

 RHF      dimer     11      1 corr= MP2        , LL1=   667 ID=            26

          -----------------------
          MP2 CONTROL INFORMATION
          -----------------------
          NACORE =       44  NBCORE =       44
          LMOMP2 =        F  AOINTS = DUP     
          METHOD =        2  NWORD  =               0
          MP2PRP =        F  OSPT   = NONE    
          CUTOFF = 1.00E-12  CPHFBS = BASISAO 
          CODE   = IMS     

          NUMBER OF CORE -A-  ORBITALS =    44
          NUMBER OF CORE -B-  ORBITALS =    44
          NUMBER OF OCC. -A-  ORBITALS =   153
          NUMBER OF OCC. -B-  ORBITALS =   153
          NUMBER OF MOLECULAR ORBITALS =   667
          NUMBER OF   BASIS  FUNCTIONS =   667


 AO spaces for    11     1     0 n-mer: L1=   667, L0=   626

 DIRECT SCF CALCULATION, SCHWRZ=T   FDIFF=T,  DIRTHR=  0.00E+00 NITDIR=10

                                                                                   NONZERO     BLOCKS
 ITER EX DEM     TOTAL ENERGY        E CHANGE  DENSITY CHANGE     ORB. GRAD      INTEGRALS    SKIPPED
   1  0  0    -2297.9060252497 -2297.9060252497   0.092580684   0.000000000     3069313334  229345153
          ---------------START SECOND ORDER SCF---------------
   2  1  0    -2297.9214731123    -0.0154478626   0.016526993   0.001672361     2772565227  235167385
   3  2  0    -2297.9220182190    -0.0005451067   0.009591763   0.000758269     2641295736  236864455
   4  3  0    -2297.9221810403    -0.0001628213   0.001920572   0.000546227     2519376229  238105792
   5  4  0    -2297.9221091793     0.0000718610   0.000635507   0.000115616     2368793273  239757862
   6  5  0    -2297.9221130878    -0.0000039085   0.000214579   0.000059583     2243403715  240940601
   7  6  0    -2297.9221112506     0.0000018372   0.000088015   0.000026011     2139543067  241942531
   8  7  0    -2297.9221116599    -0.0000004093   0.000044608   0.000014686     1967251823  243505337
   9  8  0    -2297.9221104814     0.0000011785   0.000009537   0.000002813     1858786903  244511522
  10  9  0    -2297.9221107308    -0.0000002495   0.000003136   0.000002274     1669597138  246171436
  11 10  0    -2297.9221105486     0.0000001823   0.000001718   0.000000585     1540171415  247376856
  12 11  0    -2297.9221105636    -0.0000000150   0.000000540   0.000000198     1434099373  248345938
  13 12  0    -2297.9221105611     0.0000000025   0.000000299   0.000000080     1279608254  249662316
  14 13  0    -2297.9221105735    -0.0000000124   0.000000107   0.000000018     1171802431  250586244

          -----------------
          DENSITY CONVERGED
          -----------------
     TIME TO FORM FOCK OPERATORS=      99.5 SECONDS (       7.1 SEC/ITER)
     FOCK TIME ON FIRST ITERATION=      11.0, LAST ITERATION=       4.2
     TIME TO SOLVE SCF EQUATIONS=       1.2 SECONDS (       0.1 SEC/ITER)

 FINAL RHF ENERGY IS    -2297.9221105735 AFTER  14 ITERATIONS
 ...... END OF RHF CALCULATION ......
 CPU     0: STEP CPU TIME=   124.45 TOTAL CPU TIME=      17318.9 (    288.6 MIN)
 TOTAL WALL CLOCK TIME=      40275.8 SECONDS, CPU UTILIZATION IS    43.00%

 --------------------------   -----------------------------
 RHF-MP2 ENERGY CALCULATION   PROGRAM WRITTEN BY K.ISHIMURA
 --------------------------   -----------------------------
 NUMBER OF OCCUPIED ORBITALS            =  153
 NUMBER OF CORRELATED OCCUPIED ORBITALS =  109
 NUMBER OF VIRTUAL ORBITALS             =  468
 NUMBER OF BASIS FUNCTIONS              =  667
 NUMBER OF BASIS SHELLS                 =  213
 AO-TRANSFORMED INTEGRAL THRESHOLD      = 1.00E-12
 HALF-TRANSFORMED INTEGRAL THRESHOLD    = 2.53E-14

 NUMBER OF REDUNDANT MOS IN FMO         =    5
 TOTAL DISK REQUIRED (ALL PROCESSORS)=          14971 MBYTES
                  DISK SPACE PER CORE=            935 MBYTES, USING P=   16
 MEMORY REQUIRED FOR TRANSFORMATION OF 1ST THREE INDICES=    27898049
 MEMORY REQUIRED FOR    4TH INDEX TRANSF. AND MP2 ENERGY=    57406976
 BEGINNING MP2 INTEGRAL TRANSFORMATION...
 BEGINNING    1ST SHELL LOOP...
 BEGINNING   26TH SHELL LOOP...
 BEGINNING   51ST SHELL LOOP...
 BEGINNING   76TH SHELL LOOP...
