‘2LBJ_1_fmo_input.inp’ -> ‘/scratch/hazwong/820845/./2LBJ_1_fmo_input.inp’
‘rungms’ -> ‘/scratch/hazwong/820845/./rungms’
‘gms-files.csh’ -> ‘/scratch/hazwong/820845/./gms-files.csh’
----- GAMESS execution script 'rungms' -----
This job is running on host gollum060.lsa.umich.edu
under operating system Linux at Fri Dec 6 00:44:06 EST 2019
Available scratch disk space (Kbyte units) at beginning of the job is
Filesystem     1K-blocks  Used Available Use% Mounted on
/dev/sda4      426933580 33468 426900112   1% /scratch
GAMESS temporary binary files will be written to /scratch/hazwong/820845/2LBJ_1/usrc
GAMESS supplementary output files will be written to /scratch/hazwong/820845/2LBJ_1/src
Copying input file 2LBJ_1_fmo_input.inp to your run's scratch directory...
cp 2LBJ_1_fmo_input.inp /scratch/hazwong/820845/2LBJ_1/usrc/2LBJ_1_fmo_input.F05
unset echo
This is a GDDI run, keeping various output files on local disks
setenv OUTPUT /scratch/hazwong/820845/2LBJ_1/usrc/2LBJ_1_fmo_input.F06
setenv PUNCH /scratch/hazwong/820845/2LBJ_1/usrc/2LBJ_1_fmo_input.F07
unset echo
 
Assuming a single but multicore node.
 
/export/apps/CentOS7/gamess/src/build//ddikick.x /export/apps/CentOS7/gamess/src/build//gamess.R3.x 2LBJ_1_fmo_input -ddi 1 16 gollum060.lsa.umich.edu:cpus=16 -scr /scratch/hazwong/820845/2LBJ_1/usrc

 Distributed Data Interface kickoff program.
 Initiating 16 compute processes on 1 nodes to run the following command:
 /export/apps/CentOS7/gamess/src/build//gamess.R3.x 2LBJ_1_fmo_input 

          ******************************************************
          *         GAMESS VERSION = 30 SEP 2018 (R3)         *
          *             FROM IOWA STATE UNIVERSITY             *
          * M.W.SCHMIDT, K.K.BALDRIDGE, J.A.BOATZ, S.T.ELBERT, *
          *   M.S.GORDON, J.H.JENSEN, S.KOSEKI, N.MATSUNAGA,   *
          *          K.A.NGUYEN, S.J.SU, T.L.WINDUS,           *
          *       TOGETHER WITH M.DUPUIS, J.A.MONTGOMERY       *
          *         J.COMPUT.CHEM.  14, 1347-1363(1993)        *
          **************** 64 BIT LINUX VERSION ****************

  SINCE 1993, STUDENTS AND POSTDOCS WORKING AT IOWA STATE UNIVERSITY
  AND ALSO IN THEIR VARIOUS JOBS AFTER LEAVING ISU HAVE MADE IMPORTANT
  CONTRIBUTIONS TO THE CODE:
     IVANA ADAMOVIC, CHRISTINE AIKENS, YURI ALEXEEV, POOJA ARORA,
     ANDREY ASADCHEV, ROB BELL, PRADIPTA BANDYOPADHYAY, JONATHAN BENTZ,
     BRETT BODE, KURT BRORSEN, CALEB CARLIN, GALINA CHABAN, WEI CHEN,
     CHEOL HO CHOI, PAUL DAY, ALBERT DEFUSCO, NUWAN DESILVA, TIM DUDLEY,
     DMITRI FEDOROV, ALEX FINDLATER, GRAHAM FLETCHER, MARK FREITAG,
     KURT GLAESEMANN, ANASTASIA GUNINA,
     DAN KEMP, GRANT MERRILL, NORIYUKI MINEZAWA, JONATHAN MULLIN,
     TAKESHI NAGATA, SEAN NEDD, HEATHER NETZLOFF, BOSILJKA NJEGIC, RYAN OLSON,
     MIKE PAK, BUU PHAM,
     SPENCER PRUITT, LUKE ROSKOP, JIM SHOEMAKER, LYUDMILA SLIPCHENKO,
     TONY SMITH, SAROM SOK LEANG, JIE SONG, TETSUYA TAKETSUGU, SIMON WEBB,
     PENG XU, SOOHAENG YOO, FEDERICO ZAHARIEV

  ADDITIONAL CODE HAS BEEN PROVIDED BY COLLABORATORS IN OTHER GROUPS:
     IOWA STATE UNIVERSITY:
          JOE IVANIC, AARON WEST, LAIMUTIS BYTAUTAS, KLAUS RUEDENBERG
     UNIVERSITY OF TOKYO: KIMIHIKO HIRAO, TAKAHITO NAKAJIMA,
          TAKAO TSUNEDA, MUNEAKI KAMIYA, SUSUMU YANAGISAWA,
          KIYOSHI YAGI, MAHITO CHIBA, SEIKEN TOKURA, NAOAKI KAWAKAMI
     UNIVERSITY OF AARHUS: FRANK JENSEN
     UNIVERSITY OF IOWA: VISVALDAS KAIRYS, HUI LI
     NATIONAL INST. OF STANDARDS AND TECHNOLOGY: WALT STEVENS, DAVID GARMER
     UNIVERSITY OF PISA: BENEDETTA MENNUCCI, JACOPO TOMASI
     UNIVERSITY OF MEMPHIS: HENRY KURTZ, PRAKASHAN KORAMBATH
     UNIVERSITY OF ALBERTA: TOBY ZENG, MARIUSZ KLOBUKOWSKI
     UNIVERSITY OF NEW ENGLAND: MARK SPACKMAN
     MIE UNIVERSITY: HIROAKI UMEDA
     NAT. INST. OF ADVANCED INDUSTRIAL SCIENCE AND TECHNOLOGY: KAZUO KITAURA
     MICHIGAN STATE UNIVERSITY:
          KAROL KOWALSKI, MARTA WLOCH, JEFFREY GOUR, JESSE LUTZ,
          WEI LI, JUN SHEN, J. EMILIANO DEUSTUA, PIOTR PIECUCH
     UNIVERSITY OF MINNESOTA:
          YINAN SHU
     UNIVERSITY OF SILESIA: MONIKA MUSIAL, STANISLAW KUCHARSKI
     FACULTES UNIVERSITAIRES NOTRE-DAME DE LA PAIX:
          OLIVIER QUINET, BENOIT CHAMPAGNE
     UNIVERSITY OF CALIFORNIA - SANTA BARBARA: BERNARD KIRTMAN
     INSTITUTE FOR MOLECULAR SCIENCE:
          KAZUYA ISHIMURA, MICHIO KATOUDA, AND SHIGERU NAGASE
     UNIVERSITY OF NOTRE DAME: ANNA POMOGAEVA, DAN CHIPMAN
     KYUSHU UNIVERSITY:
          HARUYUKI NAKANO,
          FENG LONG GU, JACEK KORCHOWIEC, MARCIN MAKOWSKI, AND YURIKO AOKI,
          HIROTOSHI MORI AND EISAKU MIYOSHI
     PENNSYLVANIA STATE UNIVERSITY:
          TZVETELIN IORDANOV, CHET SWALINA, JONATHAN SKONE,
          SHARON HAMMES-SCHIFFER
     WASEDA UNIVERSITY:
          MASATO KOBAYASHI, TOMOKO AKAMA, TSUGUKI TOUMA,
          TAKESHI YOSHIKAWA, YASUHIRO IKABATA, JUNJI SEINO,
          YUYA NAKAJIMA, HIROMI NAKAI
     NANJING UNIVERSITY: SHUHUA LI
     UNIVERSITY OF NEBRASKA:
          PEIFENG SU, DEJUN SI, NANDUN THELLAMUREGE, YALI WANG, HUI LI
     UNIVERSITY OF ZURICH: ROBERTO PEVERATI, KIM BALDRIDGE
     N. COPERNICUS UNIVERSITY AND JACKSON STATE UNIVERSITY:
          MARIA BARYSZ
     UNIVERSITY OF COPENHAGEN: Jimmy Kromann, CASPER STEINMANN
     TOKYO INSTITUTE OF TECHNOLOGY: HIROYA NAKATA
     NAGOYA UNIVERSITY: YOSHIO NISHIMOTO, STEPHAN IRLE
     MOSCOW STATE UNIVERSITY: VLADIMIR MIRONOV


 PARALLEL VERSION RUNNING ON       16 PROCESSORS IN        1 NODES.

 EXECUTION OF GAMESS BEGUN Fri Dec  6 00:44:07 2019

            ECHO OF THE FIRST FEW INPUT CARDS -
 INPUT CARD>!*** FMO 5.3 (Gamess) INPUT generated by Facio 22.1.1.32 ***                    
 INPUT CARD> $CONTRL RUNTYP=ENERGY NPRINT=-5 ISPHER=1 MAXIT=200 $END                        
 INPUT CARD> $SYSTEM MWORDS=63 MEMDDI=63 $END                                               
 INPUT CARD> $GDDI NGROUP=1 $END                                                            
 INPUT CARD> $SCF DIRSCF=.TRUE. NPUNCH=0 $END                                               
 INPUT CARD>!*** NumCPU : 2  MemPerNode : 512MB                                             
 INPUT CARD> $PCM SOLVNT=WATER IEF=-10 ICOMP=2 ICAV=1 IDISP=1 IFMO=-1 $END                  
 INPUT CARD> $PCMCAV RADII=SUAHF $END                                                       
 INPUT CARD> $TESCAV NTSALL=60 $END                                                         
 INPUT CARD> $FMOPRP                                                                        
 INPUT CARD>    NAODIR=200                                                                  
 INPUT CARD>    NGRFMO(1)=1, 1, 0, 0, 0,   0, 0, 0, 0, 0                                    
 INPUT CARD>    IPIEDA=1                                                                    
 INPUT CARD>    NPRINT=9                                                                    
 INPUT CARD> $END                                                                           
 INPUT CARD> $FMO                                                                           
 INPUT CARD>      SCFTYP(1)=RHF                                                             
 INPUT CARD>      MODGRD=10                                                                 
 INPUT CARD>      MODMUL=0                                                                  
 INPUT CARD>      MAXCAO=5                                                                  
 INPUT CARD>      MAXBND=13                                                                 
 INPUT CARD>      NLAYER=1                                                                  
 INPUT CARD>      MPLEVL(1)=2                                                               
 INPUT CARD>      NFRAG=11                                                                  
 INPUT CARD>      ICHARG(1)=-1, -1, -1, -1, -1, -1, -1, -1, -1, -1, 0                       
 INPUT CARD>      FRGNAM(1)=F1, F2, F3, F4, F5, F6, F7, F8, F9, F10, F11                    
 INPUT CARD>      indat(1)=0                                                                
 INPUT CARD>               1   -33   0                                                      
 INPUT CARD>               34   -64   0                                                     
 INPUT CARD>               65   -94   0                                                     
 INPUT CARD>               95   -124   0                                                    
 INPUT CARD>               125   -158   0                                                   
 INPUT CARD>               159   -189   0                                                   
 INPUT CARD>               190   -220   0                                                   
 INPUT CARD>               221   -253   0                                                   
 INPUT CARD>               254   -286   0                                                   
 INPUT CARD>               287   -320   0                                                   
 INPUT CARD>               321   -351   0                                                   
 INPUT CARD> $END                                                                           
 INPUT CARD>                                                                                
 INPUT CARD> $FMOBND                                                                        
 INPUT CARD>   -34   33       6-31G*    MINI                                                
 INPUT CARD>   -65   64       6-31G*    MINI                                                
 INPUT CARD>   -95   94       6-31G*    MINI                                                
 INPUT CARD>   -125   124       6-31G*    MINI                                              
 INPUT CARD>   -159   158       6-31G*    MINI                                              
 INPUT CARD>   -190   189       6-31G*    MINI                                              
 INPUT CARD>   -221   220       6-31G*    MINI                                              
 INPUT CARD>   -254   253       6-31G*    MINI                                              
 INPUT CARD>   -287   286       6-31G*    MINI                                              


 -------------------------------------------------------------
 GROUP DDI, PROGRAMMED BY: RYAN M. OLSON AND DMITRI G. FEDOROV
        FEDOROV ET AL., J. COMPUT. CHEM., 25 (2004) 872.
 -------------------------------------------------------------

 -------------------------------------------------------
 GDDI: INITIALIZATION COMPLETED FOR GROUP     1 OF     1
 WITH    16 PROCESSES BALTYP=DLB   global rank=        0
 -------------------------------------------------------

   63000000 WORDS OF MEMORY AVAILABLE


     RUN TITLE
     ---------
  FMO calculation                                                                

 THE POINT GROUP OF THE MOLECULE IS C1      
 THE ORDER OF THE PRINCIPAL AXIS IS     0

 ATOM   ATOMIC CHARGE
 H.1-1       1.0
 O.1-1       8.0
 C.1-1       6.0
 N.1-1       7.0
 P.1-1      15.0

     ATOMIC BASIS SET LIBRARY
     ----------------
 THE CONTRACTED PRIMITIVE FUNCTIONS HAVE BEEN UNNORMALIZED
 THE CONTRACTED BASIS FUNCTIONS ARE NOW NORMALIZED TO UNITY

  SHELL TYPE  PRIMITIVE        EXPONENT          CONTRACTION COEFFICIENT(S)

 H.1-1     

      1   S       1            18.7311370    0.033494604338
      1   S       2             2.8253944    0.234726953484
      1   S       3             0.6401217    0.813757326146

      2   S       4             0.1612778    1.000000000000

 O.1-1     

      3   S       5          5484.6716600    0.001831074430
      3   S       6           825.2349460    0.013950172200
      3   S       7           188.0469580    0.068445078098
      3   S       8            52.9645000    0.232714335992
      3   S       9            16.8975704    0.470192897984
      3   S      10             5.7996353    0.358520852987

      4   L      11            15.5396162   -0.110777549525    0.070874268231
      4   L      12             3.5999336   -0.148026262701    0.339752839147
      4   L      13             1.0137618    1.130767015354    0.727158577316

      5   L      14             0.2700058    1.000000000000    1.000000000000

      6   D      15             0.8000000    1.000000000000

 C.1-1     

      7   S      16          3047.5248800    0.001834737132
      7   S      17           457.3695180    0.014037322813
      7   S      18           103.9486850    0.068842622264
      7   S      19            29.2101553    0.232184443216
      7   S      20             9.2866630    0.467941348435
      7   S      21             3.1639270    0.362311985337

      8   L      22             7.8682723   -0.119332419775    0.068999066591
      8   L      23             1.8812885   -0.160854151696    0.316423960957
      8   L      24             0.5442493    1.143456437840    0.744308290898

      9   L      25             0.1687145    1.000000000000    1.000000000000

     10   D      26             0.8000000    1.000000000000

 N.1-1     

     11   S      27          4173.5114600    0.001834772160
     11   S      28           627.4579110    0.013994627002
     11   S      29           142.9020930    0.068586551812
     11   S      30            40.2343293    0.232240873040
     11   S      31            12.8202129    0.469069948082
     11   S      32             4.3904370    0.360455199063

     12   L      33            11.6263619   -0.114961181702    0.067579743878
     12   L      34             2.7162798   -0.169117478561    0.323907295893
     12   L      35             0.7722184    1.145851947027    0.740895139755

     13   L      36             0.2120315    1.000000000000    1.000000000000

     14   D      37             0.8000000    1.000000000000

 P.1-1     

     15   S      38         19413.3000000    0.001851598923
     15   S      39          2909.4200000    0.014206191735
     15   S      40           661.3640000    0.069999459277
     15   S      41           185.7590000    0.240078860331
     15   S      42            59.1943000    0.484761717984
     15   S      43            20.0310000    0.335199804993

     16   L      44           339.4780000   -0.002782170105    0.004564616191
     16   L      45            81.0101000   -0.036049901354    0.033693571881
     16   L      46            25.8780000   -0.116631004382    0.139754883368
     16   L      47             9.4522100    0.096832803638    0.339361716786
     16   L      48             3.6656600    0.614418023082    0.450920623685
     16   L      49             1.4674600    0.403798015170    0.238585800889

     17   L      50             2.1562300   -0.252924113863   -0.017765312733
     17   L      51             0.7489970    0.032851844678    0.274058196433
     17   L      52             0.2831450    1.081254761783    0.785421562957

     18   L      53             0.0998317    1.000000000000    1.000000000000

     19   D      54             0.5500000    1.000000000000

 TOTAL NUMBER OF BASIS SET SHELLS             =   19
 NUMBER OF CARTESIAN GAUSSIAN BASIS FUNCTIONS =   66

     $CONTRL OPTIONS
     ---------------
 SCFTYP=RHF          RUNTYP=ENERGY       EXETYP=RUN     
 MPLEVL=       0     CITYP =NONE         CCTYP =NONE         VBTYP =NONE    
 DFTTYP=NONE         TDDFT =NONE    
 MULT  =       1     ICHARG=       0     NZVAR =       0     COORD =UNIQUE  
 PP    =NONE         RELWFN=NONE         LOCAL =NONE         NUMGRD=       F
 ISPHER=       1     NOSYM =       0     MAXIT =     200     UNITS =ANGS    
 PLTORB=       F     MOLPLT=       F     AIMPAC=       F     FRIEND=        
 NPRINT=      -5     IREST =       0     GEOM  =INPUT   
 NORMF =       0     NORMP =       0     ITOL  =      24     ICUT  =      12
 INTTYP=BEST         GRDTYP=BEST         QMTTOL= 1.0E-06

     $SYSTEM OPTIONS
     ---------------
  REPLICATED MEMORY=    63000000 WORDS (ON EVERY NODE).
 DISTRIBUTED MEMDDI=          63 MILLION WORDS IN AGGREGATE,
 MEMDDI DISTRIBUTED OVER  16 PROCESSORS IS     3937500 WORDS/PROCESSOR.
 TOTAL MEMORY REQUESTED ON EACH PROCESSOR=    66937500 WORDS.
 TIMLIM=      525600.00 MINUTES, OR     365.0 DAYS.
 PARALL= T  BALTYP=  DLB     KDIAG=    0  COREFL= F
 MXSEQ2=     300 MXSEQ3=     150  mem10=         0

 ** LOOKING UP INTERNALLY STORED DATA FOR SOLVENT=WATER    **
 OPTICAL AND PHYSICAL CONSTANTS:
 EPS= 78.390; EPSINF=  1.776; RSOLV=  1.385 A; VMOL=  18.070 ML/MOL;
 TCE= .25700E-03 1/K; STEN= 71.810 DYN/CM;  DSTEN=  0.6500; CMF=  1.2770


     -----------------------------------
     INPUT FOR PCM SOLVATION CALCULATION 
     -----------------------------------
     IEF   =     -10
     ICOMP =       2     IFIELD=       0     ICAV  =       1
     IDISP =       1     IREP  =       0     IDP   =       0

     SOLVNT=WATER        EPS   = 78.3900     EPSINF=  1.7760
     VMOL  = 18.0700     TCE   =  0.00025700 STEN  = 71.8100
     DSTEN =  0.6500     CMF   =  1.2770     RSOLV =  1.3850

     NESFP =       0
     OMEGA = 40.0000     RET   =100.0000     FRO   =  0.7000

     TABS  =298.0000     IPRINT=       0

     --------------------------------
     INPUT FOR ITERATIVE C-PCM METHOD 
     --------------------------------
     IPCMIT  =         1     MXDIIS  =        50
     MXITR1  =       200     MXITR2  =       200
     THRES   = 0.100E-09     IMUL    =         3
     RCUT(1) =   20.0000     RCUT(2) =   50.0000

     IDIRCT  =         1
     IMGABI  =         0     RABI    =    4.0000
     IMGASC  =         0     RASC    =   20.0000
     THRSLS  = 0.500E-03     DENSLS  =    0.0100
     IEFPOL  =         1     REFPOL  =    0.0000

     INPUT FOR ISOTROPIC DIELECTRICS
     -------------------------------
     EPS=    78.39

          ----------------
          PROPERTIES INPUT
          ----------------

     MOMENTS            FIELD           POTENTIAL          DENSITY
 IEMOM =       1   IEFLD =       0   IEPOT =       0   IEDEN =       0
 WHERE =COMASS     WHERE =NUCLEI     WHERE =NUCLEI     WHERE =NUCLEI  
 OUTPUT=BOTH       OUTPUT=BOTH       OUTPUT=NONE       OUTPUT=BOTH    
 IEMINT=       0   IEFINT=       0                     IEDINT=       0
                                                       MORB  =       0
          EXTRAPOLATION IN EFFECT
          SOSCF IN EFFECT
 ORBITAL PRINTING OPTION: NPREO=     1 32767     2     1

     -------------------------------
     INTEGRAL TRANSFORMATION OPTIONS
     -------------------------------
     NWORD  =            0
     CUTOFF = 1.0E-10     MPTRAN =       0
     DIRTRF =       T     AOINTS =DUP     

          ----------------------
          INTEGRAL INPUT OPTIONS
          ----------------------
 NOPK  =       1 NORDER=       0 SCHWRZ=       T

 ..... DONE SETTING UP THE RUN .....
 CPU     0: STEP CPU TIME=     0.05 TOTAL CPU TIME=          0.0 (      0.0 MIN)
 TOTAL WALL CLOCK TIME=          0.1 SECONDS, CPU UTILIZATION IS    50.00%
 CPU     0: STEP CPU TIME=     0.00 TOTAL CPU TIME=          0.0 (      0.0 MIN)
 TOTAL WALL CLOCK TIME=          0.1 SECONDS, CPU UTILIZATION IS    50.00%

                    ----------------------
                    AO INTEGRAL TECHNOLOGY
                    ----------------------
     S,P,L SHELL ROTATED AXIS INTEGRALS, REPROGRAMMED BY
        KAZUYA ISHIMURA (IMS) AND JOSE SIERRA (SYNSTAR).
     S,P,D,L SHELL ROTATED AXIS INTEGRALS PROGRAMMED BY
        KAZUYA ISHIMURA (INSTITUTE FOR MOLECULAR SCIENCE).
     S,P,D,F,G SHELL TO TOTAL QUARTET ANGULAR MOMENTUM SUM 5,
        ERIC PROGRAM BY GRAHAM FLETCHER (ELORET AND NASA ADVANCED
        SUPERCOMPUTING DIVISION, AMES RESEARCH CENTER).
     S,P,D,F,G,L SHELL GENERAL RYS QUADRATURE PROGRAMMED BY
        MICHEL DUPUIS (PACIFIC NORTHWEST NATIONAL LABORATORY).
 Setting modorb=1 flag...
 Setting modorb=1 flag...

          -----------------------
          MP2 CONTROL INFORMATION
          -----------------------
          NACORE =        8  NBCORE =        8
          LMOMP2 =        F  AOINTS = DUP     
          METHOD =        2  NWORD  =               0
          MP2PRP =        F  OSPT   = NONE    
          CUTOFF = 1.00E-12  CPHFBS = BASISAO 
          CODE   = IMS     

          NUMBER OF CORE -A-  ORBITALS =     8
          NUMBER OF CORE -B-  ORBITALS =     8
          NUMBER OF OCC. -A-  ORBITALS =    18
          NUMBER OF OCC. -B-  ORBITALS =    18
          NUMBER OF MOLECULAR ORBITALS =    66
          NUMBER OF   BASIS  FUNCTIONS =    66

 CPU     0: STEP CPU TIME=     0.02 TOTAL CPU TIME=          0.1 (      0.0 MIN)
 TOTAL WALL CLOCK TIME=          0.1 SECONDS, CPU UTILIZATION IS    53.85%
 CPU     0: STEP CPU TIME=     0.00 TOTAL CPU TIME=          0.1 (      0.0 MIN)
 TOTAL WALL CLOCK TIME=          0.1 SECONDS, CPU UTILIZATION IS    53.85%

     INPUT FOR CAVITY DEFINITION 
     ---------------------------
   ATOM               COORDINATES                RADIUS       EPS
      1      6.1110      8.7470     17.6320      0.0100     78.3900
      2      6.2170      8.9600     16.6860      1.5900     78.3900
      3      4.9980      9.5860     16.2590      1.7700     78.3900
      4      4.8150     10.4840     16.8880      0.0100     78.3900
      5      4.1490      8.8830     16.4160      0.0100     78.3900
      6      5.0230     10.0260     14.7880      1.7700     78.3900
      7      4.0430     10.4540     14.4900      0.0100     78.3900
      8      6.0290     11.0690     14.6040      1.5900     78.3900
      9      6.6940     10.8650     13.3640      1.7700     78.3900
     10      6.5860     11.8210     12.8040      0.0100     78.3900
     11      8.1470     10.5700     13.5230      1.6800     78.3900
     12      8.6450     10.1580     14.7400      1.7700     78.3900
     13      7.9230     10.0570     15.5510      0.0100     78.3900
     14      9.9530      9.9250     14.9170      1.7700     78.3900
     15     10.3640      9.6220     15.8770      0.0100     78.3900
     16      9.0110     10.7170     12.4410      1.7700     78.3900
     17      8.5540     11.0690     11.3450      1.5900     78.3900
     18     10.3340     10.4840     12.6020      1.6800     78.3900
     19     10.8160     10.1180     13.8020      1.7700     78.3900
     20     12.1290      9.9330     13.9410      1.6800     78.3900
     21     12.7270     10.0230     13.1410      0.0100     78.3900
     22     12.5280      9.6100     14.8020      0.0100     78.3900
     23      5.9370      9.7790     12.6220      1.7700     78.3900
     24      6.5890      9.1900     11.9490      0.0100     78.3900
     25      4.8770     10.3540     11.8800      1.5900     78.3900
     26      4.3890      9.6240     11.4770      0.0100     78.3900
     27      5.4100      8.9350     13.7770      1.7700     78.3900
     28      6.2440      8.3620     14.2420      0.0100     78.3900
     29      4.2610      8.1120     13.4690      1.5900     78.3900
     30      4.4590      6.6060     13.0380      2.1000     78.3900
     31      5.4550      5.9720     13.9300      1.5900     78.3900
     32      3.1300      5.9550     12.9530      1.5900     78.3900
     33      5.0700      6.7070     11.5890      1.5900     78.3900
     34      4.2720      7.2620     10.5120      1.7700     78.3900
     35      3.8590      8.2640     10.7680      0.0100     78.3900
     36      3.4010      6.6140     10.2830      0.0100     78.3900
     37      5.0920      7.3960      9.2240      1.7700     78.3900
     38      4.4480      7.7640      8.3930      0.0100     78.3900
     39      6.1460      8.3800      9.4230      1.5900     78.3900
     40      7.3100      7.9530      8.7260      1.7700     78.3900
     41      7.5680      8.7910      8.0370      0.0100     78.3900
     42      8.4690      7.6990      9.6290      1.6800     78.3900
     43      8.2600      7.4510     10.9630      1.7700     78.3900
     44      7.2220      7.4370     11.2890      0.0100     78.3900
     45      9.2810      7.2640     11.8100      1.7700     78.3900
     46      9.1310      7.1030     12.8750      0.0100     78.3900
     47      9.7650      7.6790      9.1210      1.7700     78.3900
     48      9.9440      7.8540      7.9080      1.5900     78.3900
     49     10.8100      7.4740      9.9580      1.6800     78.3900
     50     10.5980      7.2930     11.2720      1.7700     78.3900
     51     11.6460      7.1350     12.0780      1.6800     78.3900
     52     12.5720      7.1210     11.6920      0.0100     78.3900
     53     11.5380      6.9300     13.0500      0.0100     78.3900
     54      6.9280      6.7400      7.9020      1.7700     78.3900
     55      7.7710      6.0320      7.7680      0.0100     78.3900
     56      6.4430      7.1550      6.6380      1.5900     78.3900
     57      6.1370      6.3590      6.1880      0.0100     78.3900
     58      5.8170      6.1310      8.7460      1.7700     78.3900
     59      6.2360      5.6390      9.6530      0.0100     78.3900
     60      4.8980      5.2890      8.0180      1.5900     78.3900
     61      5.1220      3.7370      7.9600      2.1000     78.3900
     62      5.5300      3.2510      9.3000      1.5900     78.3900
     63      3.9150      3.1200      7.3800      1.5900     78.3900
     64      6.3260      3.5490      6.9680      1.5900     78.3900
     65      6.2430      3.8800      5.5650      1.7700     78.3900
     66      5.8300      4.9000      5.4140      0.0100     78.3900
     67      5.5760      3.1610      5.0340      0.0100     78.3900
     68      7.6200      3.8220      4.8810      1.7700     78.3900
     69      7.5280      4.0870      3.8070      0.0100     78.3900
     70      8.5280      4.7940      5.4800      1.5900     78.3900
     71      9.8460      4.2580      5.5050      1.7700     78.3900
     72     10.4790      4.9720      4.9250      0.0100     78.3900
     73     10.3640      4.1290      6.9020      1.6800     78.3900
     74      9.4940      4.0170      7.9630      1.7700     78.3900
     75      8.4380      4.0060      7.7010      0.0100     78.3900
     76     11.7270      4.1170      7.1080      1.7700     78.3900
     77     12.5380      4.1780      6.1930      1.5900     78.3900
     78     12.1110      4.0380      8.4240      1.6800     78.3900
     79     13.1090      3.9920      8.5970      0.0100     78.3900
     80     11.2980      3.9970      9.5350      1.7700     78.3900
     81     11.7870      3.9870     10.6620      1.5900     78.3900
     82      9.8990      3.9670      9.2400      1.7700     78.3900
     83      9.1920      3.9230     10.0630      0.0100     78.3900
     84      9.8040      2.9240      4.7740      1.7700     78.3900
     85     10.5120      2.1880      5.2040      0.0100     78.3900
     86     10.0880      3.1000      3.3990      1.5900     78.3900
     87     10.0000      2.2240      3.0060      0.0100     78.3900
     88      8.3610      2.4840      4.9880      1.7700     78.3900
     89      8.2130      2.1330      6.0350      0.0100     78.3900
     90      7.8590      1.5540      3.9990      1.5900     78.3900
     91      7.9550      0.0050      4.2800      2.1000     78.3900
     92      7.4900     -0.2470      5.6630      1.5900     78.3900
     93      7.2300     -0.7070      3.2070      1.5900     78.3900
     94      9.4940     -0.3230      4.1760      1.5900     78.3900
     95     10.1940     -0.2970      2.9090      1.7700     78.3900
     96     10.0300      0.6620      2.3640      0.0100     78.3900
     97      9.8250     -1.1090      2.2440      0.0100     78.3900
     98     11.7110     -0.4870      3.0960      1.7700     78.3900
     99     12.2380     -0.4290      2.1210      0.0100     78.3900
    100     12.2330      0.5800      3.9360      1.5900     78.3900
    101     13.2730      0.0780      4.7580      1.7700     78.3900
    102     14.1750      0.6840      4.4980      0.0100     78.3900
    103     12.9530      0.2250      6.2050      1.6800     78.3900
    104     11.6490      0.3010      6.6410      1.7700     78.3900
    105     10.8960      0.2470      5.8590      0.0100     78.3900
    106     13.9980      0.2680      7.0980      1.7700     78.3900
    107     15.1720      0.1700      6.7570      1.5900     78.3900
    108     13.6230      0.4390      8.4040      1.6800     78.3900
    109     14.3870      0.4460      9.0700      0.0100     78.3900
    110     12.3520      0.5720      8.9120      1.7700     78.3900
    111     12.1840      0.7640     10.1140      1.5900     78.3900
    112     11.3180      0.4900      7.9270      1.7700     78.3900
    113     10.2840      0.6040      8.2440      0.0100     78.3900
    114     13.5140     -1.3680      4.3600      1.7700     78.3900
    115     13.7890     -2.0010      5.2300      0.0100     78.3900
    116     14.5260     -1.4500      3.3720      1.5900     78.3900
    117     14.5390     -2.3700      3.0640      0.0100     78.3900
    118     12.1550     -1.7810      3.7980      1.7700     78.3900
    119     11.4300     -1.9580      4.6240      0.0100     78.3900
    120     12.2010     -2.8770      2.8510      1.5900     78.3900
    121     12.2250     -4.3540      3.4120      2.1000     78.3900
    122     11.0660     -4.5180      4.3190      1.5900     78.3900
    123     12.2920     -5.2830      2.2610      1.5900     78.3900
    124     13.5770     -4.4660      4.2130      1.5900     78.3900
    125     13.7070     -5.4300      5.2830      1.7700     78.3900
    126     13.8350     -6.4540      4.8710      0.0100     78.3900
    127     12.8080     -5.4320      5.9450      0.0100     78.3900
    128     14.9240     -5.1080      6.1620      1.7700     78.3900
    129     15.8660     -5.1360      5.5770      0.0100     78.3900
    130     14.7840     -3.7670      6.7110      1.5900     78.3900
    131     15.2230     -3.7510      8.0560      1.7700     78.3900
    132     15.9930     -2.9520      8.1240      0.0100     78.3900
    133     14.1170     -3.4240      8.9660      1.6800     78.3900
    134     14.2200     -3.1470     10.3030      1.7700     78.3900
    135     16.1400     -2.7250     13.1460      1.6800     78.3900
    136     15.9880     -2.4550     14.0990      0.0100     78.3900
    137     17.0230     -3.0610     12.8510      0.0100     78.3900
    138     15.3590     -3.1410     11.0220      1.6800     78.3900
    139     15.1380     -2.8040     12.2920      1.7700     78.3900
    140     13.8980     -2.5020     12.7960      1.6800     78.3900
    141     13.8240     -2.2250     13.7600      0.0100     78.3900
    142     12.7110     -2.4990     12.0750      1.7700     78.3900
    143     11.6310     -2.2170     12.6050      1.5900     78.3900
    144     12.9290     -2.8720     10.7210      1.7700     78.3900
    145     12.0290     -2.9900      9.6670      1.6800     78.3900
    146     12.7800     -3.3120      8.6420      1.7700     78.3900
    147     12.4240     -3.4880      7.6230      0.0100     78.3900
    148     15.8470     -5.1080      8.3500      1.7700     78.3900
    149     15.6940     -5.4320      9.4020      0.0100     78.3900
    150     17.2320     -5.1040      8.0390      1.5900     78.3900
    151     17.7180     -4.6100      8.7040      0.0100     78.3900
    152     15.0740     -6.0040      7.3960      1.7700     78.3900
    153     14.0350     -6.1490      7.7720      0.0100     78.3900
    154     15.7430     -7.2380      7.0480      1.5900     78.3900
    155     15.3230     -8.5820      7.7520      2.1000     78.3900
    156     14.0820     -8.3680      8.5250      1.5900     78.3900
    157     15.2880     -9.6420      6.7210      1.5900     78.3900
    158     16.5030     -8.9320      8.7390      1.5900     78.3900
    159     16.6120     -8.3300     10.0500      1.7700     78.3900
    160     15.6160     -8.2140     10.5270      0.0100     78.3900
    161     17.0670     -7.3190      9.9530      0.0100     78.3900
    162     17.4770     -9.1530     11.0310      1.7700     78.3900
    163     16.9470    -10.0800     11.3420      0.0100     78.3900
    164     18.7140     -9.5630     10.3860      1.5900     78.3900
    165     19.8020     -9.4240     11.2850      1.7700     78.3900
    166     20.2830    -10.4290     11.3210      0.0100     78.3900
    167     20.8060     -8.4320     10.8090      1.6800     78.3900
    168     20.4800     -7.5510      9.8000      1.7700     78.3900
    169     19.4610     -7.6100      9.4090      0.0100     78.3900
    170     21.3780     -6.6880      9.3120      1.7700     78.3900
    171     21.1360     -5.9850      8.5180      0.0100     78.3900
    172     22.0930     -8.4220     11.3510      1.7700     78.3900
    173     22.3830     -9.2370     12.2390      1.5900     78.3900
    174     23.0100     -7.5490     10.8710      1.6800     78.3900
    175     22.6880     -6.7100      9.8720      1.7700     78.3900
    176     23.6180     -5.8920      9.3890      1.6800     78.3900
    177     24.5040     -5.8530      9.8550      0.0100     78.3900
    178     23.3950     -5.1740      8.7320      0.0100     78.3900
    179     19.2310     -9.1000     12.6540      1.7700     78.3900
    180     19.8970     -8.4430     13.2540      0.0100     78.3900
    181     18.9800    -10.3060     13.3540      1.5900     78.3900
    182     18.4950    -10.0870     14.1670      0.0100     78.3900
    183     17.9350     -8.3850     12.2880      1.7700     78.3900
    184     18.1590     -7.3470     11.9540      0.0100     78.3900
    185     16.9120     -8.4400     13.3060      1.5900     78.3900
    186     16.7190     -7.2530     14.3210      2.1000     78.3900
    187     16.5240     -6.0090     13.5460      1.5900     78.3900
    188     15.6500     -7.6250     15.2720      1.5900     78.3900
    189     18.0660     -7.1450     15.1240      1.5900     78.3900
    190     18.4390     -5.9020     15.7890      1.7700     78.3900
    191     18.1730     -5.9620     16.8680      0.0100     78.3900
    192     17.8880     -5.0180     15.3810      0.0100     78.3900
    193     19.9510     -5.5850     15.6810      1.7700     78.3900
    194     20.5140     -6.0510     16.5160      0.0100     78.3900
    195     20.4930     -6.1560     14.4470      1.5900     78.3900
    196     21.3370     -5.2180     13.8130      1.7700     78.3900
    197     22.2860     -5.7630     13.6010      0.0100     78.3900
    198     20.7700     -4.7120     12.5310      1.6800     78.3900
    199     19.4270     -4.8500     12.2410      1.7700     78.3900
    200     18.8170     -5.3630     12.9930      0.0100     78.3900
    201     18.9170     -4.4040     11.0830      1.7700     78.3900
    202     17.8650     -4.5280     10.8290      0.0100     78.3900
    203     21.6080     -4.0530     11.6350      1.7700     78.3900
    204     22.8010     -3.8890     11.9330      1.5900     78.3900
    205     21.1150     -3.6270     10.4510      1.6800     78.3900
    206     19.8160     -3.7810     10.1640      1.7700     78.3900
    207     19.3940     -3.3580      8.9730      1.6800     78.3900
    208     20.1050     -2.9670      8.3790      0.0100     78.3900
    209     18.4610     -3.0770      8.7790      0.0100     78.3900
    210     21.6130     -4.1140     14.8110      1.7700     78.3900
    211     21.8030     -3.1380     14.3180      0.0100     78.3900
    212     22.7190     -4.4570     15.6270      1.5900     78.3900
    213     22.7940     -3.7790     16.3170      0.0100     78.3900
    214     20.3100     -4.0840     15.6060      1.7700     78.3900
    215     19.5140     -3.5860     15.0060      0.0100     78.3900
    216     20.4170     -3.5290     16.9370      1.5900     78.3900
    217     20.4390     -1.9610     17.1310      2.1000     78.3900
    218     19.2000     -1.4080     16.5440      1.5900     78.3900
    219     20.6910     -1.6720     18.5610      1.5900     78.3900
    220     21.6910     -1.4270     16.3340      1.5900     78.3900
    221     21.7000     -0.0820     15.7820      1.7700     78.3900
    222     22.5530      0.4900     16.2100      0.0100     78.3900
    223     20.7780      0.5010     16.0270      0.0100     78.3900
    224     21.8470     -0.1080     14.2510      1.7700     78.3900
    225     22.8450     -0.5030     13.9610      0.0100     78.3900
    226     20.8370     -0.9910     13.6840      1.5900     78.3900
    227     20.3320     -0.4390     12.4940      1.7700     78.3900
    228     20.4430     -1.2170     11.7040      0.0100     78.3900
    229     18.9230     -0.0910     12.6600      1.6800     78.3900
    230     16.7990      0.3080     12.2820      1.7700     78.3900
    231     16.9770      0.4530     13.6520      1.6800     78.3900
    232     18.2510      0.1980     13.8270      1.7700     78.3900
    233     18.7650      0.1920     14.7930      0.0100     78.3900
    234     15.8340      0.2050     10.1310      1.6800     78.3900
    235     17.0530     -0.0880      9.6770      1.7700     78.3900
    236     17.1210     -0.2350      8.5950      0.0100     78.3900
    237     18.1950     -0.2320     10.3540      1.6800     78.3900
    238     17.9930     -0.0190     11.6630      1.7700     78.3900
    239     15.6580      0.3950     11.4610      1.7700     78.3900
    240     14.4160      0.6150     11.9300      1.6800     78.3900
    241     14.2500      0.8630     12.8910      0.0100     78.3900
    242     13.6490      0.7020     11.2870      0.0100     78.3900
    243     21.1850      0.7570     12.1500      1.7700     78.3900
    244     20.6170      1.5410     11.6080      0.0100     78.3900
    245     22.3030      0.3570     11.3760      1.5900     78.3900
    246     22.8340      1.1500     11.2350      0.0100     78.3900
    247     21.6050      1.2360     13.5340      1.7700     78.3900
    248     20.7500      1.7240     14.0600      0.0100     78.3900
    249     22.8000      2.0440     13.5490      1.5900     78.3900
    250     22.6920      3.6000     13.3290      2.1000     78.3900
    251     21.6330      4.1040     14.2360      1.5900     78.3900
    252     24.0400      4.2020     13.4670      1.5900     78.3900
    253     22.1880      3.7690     11.8530      1.5900     78.3900
    254     23.0630      3.5850     10.7190      1.7700     78.3900
    255     23.5570      2.5860     10.7430      0.0100     78.3900
    256     23.8690      4.3590     10.7160      0.0100     78.3900
    257     22.2730      3.6930      9.4050      1.7700     78.3900
    258     22.9190      3.4460      8.5330      0.0100     78.3900
    259     21.1570      2.7540      9.4040      1.5900     78.3900
    260     20.0540      3.3350      8.7310      1.7700     78.3900
    261     19.7930      2.6440      7.8970      0.0100     78.3900
    262     18.8890      3.4770      9.6220      1.6800     78.3900
    263     16.8290      3.6280     10.3840      1.7700     78.3900
    264     17.6570      3.6160     11.5040      1.6800     78.3900
    265     18.8660      3.5380     10.9970      1.7700     78.3900
    266     19.7910      3.5190     11.5780      0.0100     78.3900
    267     14.9280      3.7250      8.9660      1.6800     78.3900
    268     15.7840      3.6360      7.9440      1.7700     78.3900
    269     15.3360      3.6470      6.9390      0.0100     78.3900
    270     17.1170      3.5580      7.9610      1.6800     78.3900
    271     17.5780      3.5500      9.2230      1.7700     78.3900
    272     15.4260      3.7180     10.2320      1.7700     78.3900
    273     14.5680      3.7910     11.2670      1.6800     78.3900
    274     14.8910      3.8430     12.2170      0.0100     78.3900
    275     13.5810      3.8500     11.0940      0.0100     78.3900
    276     20.5210      4.6570      8.1610      1.7700     78.3900
    277     19.7110      5.4110      8.1200      0.0100     78.3900
    278     21.0500      4.4640      6.8640      1.5900     78.3900
    279     21.3630      5.3260      6.5610      0.0100     78.3900
    280     21.6130      5.0520      9.1490      1.7700     78.3900
    281     21.1640      5.3580     10.1230      0.0100     78.3900
    282     22.5910      6.0000      8.6410      1.5900     78.3900
    283     22.2610      7.5310      8.8380      2.1000     78.3900
    284     21.7910      7.7300     10.2230      1.5900     78.3900
    285     23.4400      8.3310      8.4350      1.5900     78.3900
    286     21.0660      7.8370      7.8620      1.5900     78.3900
    287     21.2920      7.8780      6.4340      1.7700     78.3900
    288     21.7640      6.9370      6.0730      0.0100     78.3900
    289     21.9690      8.7270      6.1750      0.0100     78.3900
    290     19.9720      8.0490      5.6720      1.7700     78.3900
    291     20.1360      8.0140      4.5720      0.0100     78.3900
    292     19.0590      6.9650      6.0110      1.5900     78.3900
    293     17.7330      7.4740      6.0740      1.7700     78.3900
    294     17.1190      6.8660      5.3710      0.0100     78.3900
    295     17.1700      7.3520      7.4260      1.6800     78.3900
    296     15.8410      7.3750      7.7510      1.7700     78.3900
    297     12.5190      7.7010      6.8110      1.6800     78.3900
    298     12.5820      7.8380      5.8260      0.0100     78.3900
    299     11.6160      7.7420      7.2470      0.0100     78.3900
    300     14.8230      7.5350      6.8860      1.6800     78.3900
    301     13.6380      7.5300      7.4950      1.7700     78.3900
    302     13.4910      7.3500      8.8450      1.6800     78.3900
    303     12.5590      7.3560      9.2270      0.0100     78.3900
    304     14.5240      7.1670      9.7570      1.7700     78.3900
    305     14.2920      7.0170     10.9620      1.5900     78.3900
    306     15.7920      7.1970      9.1200      1.7700     78.3900
    307     17.0730      7.0810      9.6510      1.6800     78.3900
    308     17.8570      7.1950      8.6070      1.7700     78.3900
    309     18.9470      7.1700      8.6300      0.0100     78.3900
    310     17.7770      8.9090      5.6020      1.7700     78.3900
    311     17.0100      9.5430      6.0880      0.0100     78.3900
    312     17.6040      8.9510      4.2000      1.5900     78.3900
    313     17.6760      9.8760      3.9360      0.0100     78.3900
    314     19.1890      9.3230      6.0080      1.7700     78.3900
    315     19.2510      9.4420      7.1150      0.0100     78.3900
    316     19.7420     10.4470      5.2830      1.5900     78.3900
    317     19.5860     11.8940      5.8890      2.1000     78.3900
    318     19.8750     11.8460      7.3360      1.5900     78.3900
    319     20.3760     12.8610      5.0910      1.5900     78.3900
    320     18.0540     12.1870      5.6920      1.5900     78.3900
    321     17.5050     12.3300      4.3610      1.7700     78.3900
    322     17.7630     11.4650      3.7070      0.0100     78.3900
    323     17.9120     13.2370      3.8650      0.0100     78.3900
    324     15.9850     12.5160      4.4200      1.7700     78.3900
    325     15.5610     12.6670      3.4020      0.0100     78.3900
    326     15.3570     11.3280      4.9800      1.5900     78.3900
    327     14.2640     11.7270      5.7970      1.7700     78.3900
    328     13.3630     11.2110      5.3980      0.0100     78.3900
    329     14.4590     11.3230      7.1950      1.6800     78.3900
    330     13.4810     11.1860      8.1440      1.7700     78.3900
    331     10.1600     11.4050      9.0980      1.6800     78.3900
    332      9.7190     11.7530      8.2710      0.0100     78.3900
    333      9.6120     11.2800      9.9300      0.0100     78.3900
    334     12.1680     11.4240      7.9670      1.6800     78.3900
    335     11.4650     11.2190      9.0800      1.7700     78.3900
    336     12.0280     10.8080     10.2590      1.6800     78.3900
    337     11.4240     10.6820     11.0560      0.0100     78.3900
    338     13.3750     10.5450     10.4690      1.7700     78.3900
    339     13.7940     10.1780     11.5720      1.5900     78.3900
    340     14.1350     10.7750      9.2910      1.7700     78.3900
    341     15.5010     10.6710      9.0710      1.6800     78.3900
    342     15.6480     11.0160      7.8150      1.7700     78.3900
    343     16.5980     11.0750      7.2830      0.0100     78.3900
    344     14.0890     13.2280      5.6490      1.7700     78.3900
    345     13.7290     13.7050      6.5880      0.0100     78.3900
    346     13.1880     13.5040      4.5880      1.5900     78.3900
    347     13.2030     14.4590      4.4020      0.0100     78.3900
    348     15.5150     13.6630      5.3290      1.7700     78.3900
    349     16.1330     13.6550      6.2520      0.0100     78.3900
    350     15.6150     14.9310      4.6550      1.5900     78.3900
    351     15.2990     15.6430      5.2400      0.0100     78.3900

     ----------------------------
     INPUT FOR TESSERA DEFINITION
     ----------------------------
     NTSALL  =        60     MTHALL  =         4
     MTHAUT  =         0     AUTFRE  =    2.0000
     NTSFRZ  =        60     KEEPSM  =         0
     AREAKP  =   10.0000     BONDRY  =    1.0000
     AREATL  =    0.0100

     SPHERE     INITS       METHOD
          1        60       FIXPVA
          2        60       FIXPVA
          3        60       FIXPVA
          4        60       FIXPVA
          5        60       FIXPVA
          6        60       FIXPVA
          7        60       FIXPVA
          8        60       FIXPVA
          9        60       FIXPVA
         10        60       FIXPVA
         11        60       FIXPVA
         12        60       FIXPVA
         13        60       FIXPVA
         14        60       FIXPVA
         15        60       FIXPVA
         16        60       FIXPVA
         17        60       FIXPVA
         18        60       FIXPVA
         19        60       FIXPVA
         20        60       FIXPVA
         21        60       FIXPVA
         22        60       FIXPVA
         23        60       FIXPVA
         24        60       FIXPVA
         25        60       FIXPVA
         26        60       FIXPVA
         27        60       FIXPVA
         28        60       FIXPVA
         29        60       FIXPVA
         30        60       FIXPVA
         31        60       FIXPVA
         32        60       FIXPVA
         33        60       FIXPVA
         34        60       FIXPVA
         35        60       FIXPVA
         36        60       FIXPVA
         37        60       FIXPVA
         38        60       FIXPVA
         39        60       FIXPVA
         40        60       FIXPVA
         41        60       FIXPVA
         42        60       FIXPVA
         43        60       FIXPVA
         44        60       FIXPVA
         45        60       FIXPVA
         46        60       FIXPVA
         47        60       FIXPVA
         48        60       FIXPVA
         49        60       FIXPVA
         50        60       FIXPVA
         51        60       FIXPVA
         52        60       FIXPVA
         53        60       FIXPVA
         54        60       FIXPVA
         55        60       FIXPVA
         56        60       FIXPVA
         57        60       FIXPVA
         58        60       FIXPVA
         59        60       FIXPVA
         60        60       FIXPVA
         61        60       FIXPVA
         62        60       FIXPVA
         63        60       FIXPVA
         64        60       FIXPVA
         65        60       FIXPVA
         66        60       FIXPVA
         67        60       FIXPVA
         68        60       FIXPVA
         69        60       FIXPVA
         70        60       FIXPVA
         71        60       FIXPVA
         72        60       FIXPVA
         73        60       FIXPVA
         74        60       FIXPVA
         75        60       FIXPVA
         76        60       FIXPVA
         77        60       FIXPVA
         78        60       FIXPVA
         79        60       FIXPVA
         80        60       FIXPVA
         81        60       FIXPVA
         82        60       FIXPVA
         83        60       FIXPVA
         84        60       FIXPVA
         85        60       FIXPVA
         86        60       FIXPVA
         87        60       FIXPVA
         88        60       FIXPVA
         89        60       FIXPVA
         90        60       FIXPVA
         91        60       FIXPVA
         92        60       FIXPVA
         93        60       FIXPVA
         94        60       FIXPVA
         95        60       FIXPVA
         96        60       FIXPVA
         97        60       FIXPVA
         98        60       FIXPVA
         99        60       FIXPVA
        100        60       FIXPVA
        101        60       FIXPVA
        102        60       FIXPVA
        103        60       FIXPVA
        104        60       FIXPVA
        105        60       FIXPVA
        106        60       FIXPVA
        107        60       FIXPVA
        108        60       FIXPVA
        109        60       FIXPVA
        110        60       FIXPVA
        111        60       FIXPVA
        112        60       FIXPVA
        113        60       FIXPVA
        114        60       FIXPVA
        115        60       FIXPVA
        116        60       FIXPVA
        117        60       FIXPVA
        118        60       FIXPVA
        119        60       FIXPVA
        120        60       FIXPVA
        121        60       FIXPVA
        122        60       FIXPVA
        123        60       FIXPVA
        124        60       FIXPVA
        125        60       FIXPVA
        126        60       FIXPVA
        127        60       FIXPVA
        128        60       FIXPVA
        129        60       FIXPVA
        130        60       FIXPVA
        131        60       FIXPVA
        132        60       FIXPVA
        133        60       FIXPVA
        134        60       FIXPVA
        135        60       FIXPVA
        136        60       FIXPVA
        137        60       FIXPVA
        138        60       FIXPVA
        139        60       FIXPVA
        140        60       FIXPVA
        141        60       FIXPVA
        142        60       FIXPVA
        143        60       FIXPVA
        144        60       FIXPVA
        145        60       FIXPVA
        146        60       FIXPVA
        147        60       FIXPVA
        148        60       FIXPVA
        149        60       FIXPVA
        150        60       FIXPVA
        151        60       FIXPVA
        152        60       FIXPVA
        153        60       FIXPVA
        154        60       FIXPVA
        155        60       FIXPVA
        156        60       FIXPVA
        157        60       FIXPVA
        158        60       FIXPVA
        159        60       FIXPVA
        160        60       FIXPVA
        161        60       FIXPVA
        162        60       FIXPVA
        163        60       FIXPVA
        164        60       FIXPVA
        165        60       FIXPVA
        166        60       FIXPVA
        167        60       FIXPVA
        168        60       FIXPVA
        169        60       FIXPVA
        170        60       FIXPVA
        171        60       FIXPVA
        172        60       FIXPVA
        173        60       FIXPVA
        174        60       FIXPVA
        175        60       FIXPVA
        176        60       FIXPVA
        177        60       FIXPVA
        178        60       FIXPVA
        179        60       FIXPVA
        180        60       FIXPVA
        181        60       FIXPVA
        182        60       FIXPVA
        183        60       FIXPVA
        184        60       FIXPVA
        185        60       FIXPVA
        186        60       FIXPVA
        187        60       FIXPVA
        188        60       FIXPVA
        189        60       FIXPVA
        190        60       FIXPVA
        191        60       FIXPVA
        192        60       FIXPVA
        193        60       FIXPVA
        194        60       FIXPVA
        195        60       FIXPVA
        196        60       FIXPVA
        197        60       FIXPVA
        198        60       FIXPVA
        199        60       FIXPVA
        200        60       FIXPVA
        201        60       FIXPVA
        202        60       FIXPVA
        203        60       FIXPVA
        204        60       FIXPVA
        205        60       FIXPVA
        206        60       FIXPVA
        207        60       FIXPVA
        208        60       FIXPVA
        209        60       FIXPVA
        210        60       FIXPVA
        211        60       FIXPVA
        212        60       FIXPVA
        213        60       FIXPVA
        214        60       FIXPVA
        215        60       FIXPVA
        216        60       FIXPVA
        217        60       FIXPVA
        218        60       FIXPVA
        219        60       FIXPVA
        220        60       FIXPVA
        221        60       FIXPVA
        222        60       FIXPVA
        223        60       FIXPVA
        224        60       FIXPVA
        225        60       FIXPVA
        226        60       FIXPVA
        227        60       FIXPVA
        228        60       FIXPVA
        229        60       FIXPVA
        230        60       FIXPVA
        231        60       FIXPVA
        232        60       FIXPVA
        233        60       FIXPVA
        234        60       FIXPVA
        235        60       FIXPVA
        236        60       FIXPVA
        237        60       FIXPVA
        238        60       FIXPVA
        239        60       FIXPVA
        240        60       FIXPVA
        241        60       FIXPVA
        242        60       FIXPVA
        243        60       FIXPVA
        244        60       FIXPVA
        245        60       FIXPVA
        246        60       FIXPVA
        247        60       FIXPVA
        248        60       FIXPVA
        249        60       FIXPVA
        250        60       FIXPVA
        251        60       FIXPVA
        252        60       FIXPVA
        253        60       FIXPVA
        254        60       FIXPVA
        255        60       FIXPVA
        256        60       FIXPVA
        257        60       FIXPVA
        258        60       FIXPVA
        259        60       FIXPVA
        260        60       FIXPVA
        261        60       FIXPVA
        262        60       FIXPVA
        263        60       FIXPVA
        264        60       FIXPVA
        265        60       FIXPVA
        266        60       FIXPVA
        267        60       FIXPVA
        268        60       FIXPVA
        269        60       FIXPVA
        270        60       FIXPVA
        271        60       FIXPVA
        272        60       FIXPVA
        273        60       FIXPVA
        274        60       FIXPVA
        275        60       FIXPVA
        276        60       FIXPVA
        277        60       FIXPVA
        278        60       FIXPVA
        279        60       FIXPVA
        280        60       FIXPVA
        281        60       FIXPVA
        282        60       FIXPVA
        283        60       FIXPVA
        284        60       FIXPVA
        285        60       FIXPVA
        286        60       FIXPVA
        287        60       FIXPVA
        288        60       FIXPVA
        289        60       FIXPVA
        290        60       FIXPVA
        291        60       FIXPVA
        292        60       FIXPVA
        293        60       FIXPVA
        294        60       FIXPVA
        295        60       FIXPVA
        296        60       FIXPVA
        297        60       FIXPVA
        298        60       FIXPVA
        299        60       FIXPVA
        300        60       FIXPVA
        301        60       FIXPVA
        302        60       FIXPVA
        303        60       FIXPVA
        304        60       FIXPVA
        305        60       FIXPVA
        306        60       FIXPVA
        307        60       FIXPVA
        308        60       FIXPVA
        309        60       FIXPVA
        310        60       FIXPVA
        311        60       FIXPVA
        312        60       FIXPVA
        313        60       FIXPVA
        314        60       FIXPVA
        315        60       FIXPVA
        316        60       FIXPVA
        317        60       FIXPVA
        318        60       FIXPVA
        319        60       FIXPVA
        320        60       FIXPVA
        321        60       FIXPVA
        322        60       FIXPVA
        323        60       FIXPVA
        324        60       FIXPVA
        325        60       FIXPVA
        326        60       FIXPVA
        327        60       FIXPVA
        328        60       FIXPVA
        329        60       FIXPVA
        330        60       FIXPVA
        331        60       FIXPVA
        332        60       FIXPVA
        333        60       FIXPVA
        334        60       FIXPVA
        335        60       FIXPVA
        336        60       FIXPVA
        337        60       FIXPVA
        338        60       FIXPVA
        339        60       FIXPVA
        340        60       FIXPVA
        341        60       FIXPVA
        342        60       FIXPVA
        343        60       FIXPVA
        344        60       FIXPVA
        345        60       FIXPVA
        346        60       FIXPVA
        347        60       FIXPVA
        348        60       FIXPVA
        349        60       FIXPVA
        350        60       FIXPVA
        351        60       FIXPVA

     ------------------------------
      FIXPVA TESSELLATION FOR PCM
         PEIFENG SU AND HUI LI
     UNIVERSITY OF NEBRASKA-LINCOLN
     ------------------------------


 PCM DIMENSIONS: MXSP=   351, MXTS=     14040, MEMORY=        144264

     INPUT FOR CAVITY DEFINITION 
     ---------------------------
   ATOM               COORDINATES                RADIUS       EPS
      1      6.1110      8.7470     17.6320      0.0100     78.3900
      2      6.2170      8.9600     16.6860      1.5900     78.3900
      3      4.9980      9.5860     16.2590      1.7700     78.3900
      4      4.8150     10.4840     16.8880      0.0100     78.3900
      5      4.1490      8.8830     16.4160      0.0100     78.3900
      6      5.0230     10.0260     14.7880      1.7700     78.3900
      7      4.0430     10.4540     14.4900      0.0100     78.3900
      8      6.0290     11.0690     14.6040      1.5900     78.3900
      9      6.6940     10.8650     13.3640      1.7700     78.3900
     10      6.5860     11.8210     12.8040      0.0100     78.3900
     11      8.1470     10.5700     13.5230      1.6800     78.3900
     12      8.6450     10.1580     14.7400      1.7700     78.3900
     13      7.9230     10.0570     15.5510      0.0100     78.3900
     14      9.9530      9.9250     14.9170      1.7700     78.3900
     15     10.3640      9.6220     15.8770      0.0100     78.3900
     16      9.0110     10.7170     12.4410      1.7700     78.3900
     17      8.5540     11.0690     11.3450      1.5900     78.3900
     18     10.3340     10.4840     12.6020      1.6800     78.3900
     19     10.8160     10.1180     13.8020      1.7700     78.3900
     20     12.1290      9.9330     13.9410      1.6800     78.3900
     21     12.7270     10.0230     13.1410      0.0100     78.3900
     22     12.5280      9.6100     14.8020      0.0100     78.3900
     23      5.9370      9.7790     12.6220      1.7700     78.3900
     24      6.5890      9.1900     11.9490      0.0100     78.3900
     25      4.8770     10.3540     11.8800      1.5900     78.3900
     26      4.3890      9.6240     11.4770      0.0100     78.3900
     27      5.4100      8.9350     13.7770      1.7700     78.3900
     28      6.2440      8.3620     14.2420      0.0100     78.3900
     29      4.2610      8.1120     13.4690      1.5900     78.3900
     30      4.4590      6.6060     13.0380      2.1000     78.3900
     31      5.4550      5.9720     13.9300      1.5900     78.3900
     32      3.1300      5.9550     12.9530      1.5900     78.3900
     33      5.0700      6.7070     11.5890      1.5900     78.3900
     34      4.2720      7.2620     10.5120      1.7700     78.3900
     35      3.8590      8.2640     10.7680      0.0100     78.3900
     36      3.4010      6.6140     10.2830      0.0100     78.3900
     37      5.0920      7.3960      9.2240      1.7700     78.3900
     38      4.4480      7.7640      8.3930      0.0100     78.3900
     39      6.1460      8.3800      9.4230      1.5900     78.3900
     40      7.3100      7.9530      8.7260      1.7700     78.3900
     41      7.5680      8.7910      8.0370      0.0100     78.3900
     42      8.4690      7.6990      9.6290      1.6800     78.3900
     43      8.2600      7.4510     10.9630      1.7700     78.3900
     44      7.2220      7.4370     11.2890      0.0100     78.3900
     45      9.2810      7.2640     11.8100      1.7700     78.3900
     46      9.1310      7.1030     12.8750      0.0100     78.3900
     47      9.7650      7.6790      9.1210      1.7700     78.3900
     48      9.9440      7.8540      7.9080      1.5900     78.3900
     49     10.8100      7.4740      9.9580      1.6800     78.3900
     50     10.5980      7.2930     11.2720      1.7700     78.3900
     51     11.6460      7.1350     12.0780      1.6800     78.3900
     52     12.5720      7.1210     11.6920      0.0100     78.3900
     53     11.5380      6.9300     13.0500      0.0100     78.3900
     54      6.9280      6.7400      7.9020      1.7700     78.3900
     55      7.7710      6.0320      7.7680      0.0100     78.3900
     56      6.4430      7.1550      6.6380      1.5900     78.3900
     57      6.1370      6.3590      6.1880      0.0100     78.3900
     58      5.8170      6.1310      8.7460      1.7700     78.3900
     59      6.2360      5.6390      9.6530      0.0100     78.3900
     60      4.8980      5.2890      8.0180      1.5900     78.3900
     61      5.1220      3.7370      7.9600      2.1000     78.3900
     62      5.5300      3.2510      9.3000      1.5900     78.3900
     63      3.9150      3.1200      7.3800      1.5900     78.3900
     64      6.3260      3.5490      6.9680      1.5900     78.3900
     65      6.2430      3.8800      5.5650      1.7700     78.3900
     66      5.8300      4.9000      5.4140      0.0100     78.3900
     67      5.5760      3.1610      5.0340      0.0100     78.3900
     68      7.6200      3.8220      4.8810      1.7700     78.3900
     69      7.5280      4.0870      3.8070      0.0100     78.3900
     70      8.5280      4.7940      5.4800      1.5900     78.3900
     71      9.8460      4.2580      5.5050      1.7700     78.3900
     72     10.4790      4.9720      4.9250      0.0100     78.3900
     73     10.3640      4.1290      6.9020      1.6800     78.3900
     74      9.4940      4.0170      7.9630      1.7700     78.3900
     75      8.4380      4.0060      7.7010      0.0100     78.3900
     76     11.7270      4.1170      7.1080      1.7700     78.3900
     77     12.5380      4.1780      6.1930      1.5900     78.3900
     78     12.1110      4.0380      8.4240      1.6800     78.3900
     79     13.1090      3.9920      8.5970      0.0100     78.3900
     80     11.2980      3.9970      9.5350      1.7700     78.3900
     81     11.7870      3.9870     10.6620      1.5900     78.3900
     82      9.8990      3.9670      9.2400      1.7700     78.3900
     83      9.1920      3.9230     10.0630      0.0100     78.3900
     84      9.8040      2.9240      4.7740      1.7700     78.3900
     85     10.5120      2.1880      5.2040      0.0100     78.3900
     86     10.0880      3.1000      3.3990      1.5900     78.3900
     87     10.0000      2.2240      3.0060      0.0100     78.3900
     88      8.3610      2.4840      4.9880      1.7700     78.3900
     89      8.2130      2.1330      6.0350      0.0100     78.3900
     90      7.8590      1.5540      3.9990      1.5900     78.3900
     91      7.9550      0.0050      4.2800      2.1000     78.3900
     92      7.4900     -0.2470      5.6630      1.5900     78.3900
     93      7.2300     -0.7070      3.2070      1.5900     78.3900
     94      9.4940     -0.3230      4.1760      1.5900     78.3900
     95     10.1940     -0.2970      2.9090      1.7700     78.3900
     96     10.0300      0.6620      2.3640      0.0100     78.3900
     97      9.8250     -1.1090      2.2440      0.0100     78.3900
     98     11.7110     -0.4870      3.0960      1.7700     78.3900
     99     12.2380     -0.4290      2.1210      0.0100     78.3900
    100     12.2330      0.5800      3.9360      1.5900     78.3900
    101     13.2730      0.0780      4.7580      1.7700     78.3900
    102     14.1750      0.6840      4.4980      0.0100     78.3900
    103     12.9530      0.2250      6.2050      1.6800     78.3900
    104     11.6490      0.3010      6.6410      1.7700     78.3900
    105     10.8960      0.2470      5.8590      0.0100     78.3900
    106     13.9980      0.2680      7.0980      1.7700     78.3900
    107     15.1720      0.1700      6.7570      1.5900     78.3900
    108     13.6230      0.4390      8.4040      1.6800     78.3900
    109     14.3870      0.4460      9.0700      0.0100     78.3900
    110     12.3520      0.5720      8.9120      1.7700     78.3900
    111     12.1840      0.7640     10.1140      1.5900     78.3900
    112     11.3180      0.4900      7.9270      1.7700     78.3900
    113     10.2840      0.6040      8.2440      0.0100     78.3900
    114     13.5140     -1.3680      4.3600      1.7700     78.3900
    115     13.7890     -2.0010      5.2300      0.0100     78.3900
    116     14.5260     -1.4500      3.3720      1.5900     78.3900
    117     14.5390     -2.3700      3.0640      0.0100     78.3900
    118     12.1550     -1.7810      3.7980      1.7700     78.3900
    119     11.4300     -1.9580      4.6240      0.0100     78.3900
    120     12.2010     -2.8770      2.8510      1.5900     78.3900
    121     12.2250     -4.3540      3.4120      2.1000     78.3900
    122     11.0660     -4.5180      4.3190      1.5900     78.3900
    123     12.2920     -5.2830      2.2610      1.5900     78.3900
    124     13.5770     -4.4660      4.2130      1.5900     78.3900
    125     13.7070     -5.4300      5.2830      1.7700     78.3900
    126     13.8350     -6.4540      4.8710      0.0100     78.3900
    127     12.8080     -5.4320      5.9450      0.0100     78.3900
    128     14.9240     -5.1080      6.1620      1.7700     78.3900
    129     15.8660     -5.1360      5.5770      0.0100     78.3900
    130     14.7840     -3.7670      6.7110      1.5900     78.3900
    131     15.2230     -3.7510      8.0560      1.7700     78.3900
    132     15.9930     -2.9520      8.1240      0.0100     78.3900
    133     14.1170     -3.4240      8.9660      1.6800     78.3900
    134     14.2200     -3.1470     10.3030      1.7700     78.3900
    135     16.1400     -2.7250     13.1460      1.6800     78.3900
    136     15.9880     -2.4550     14.0990      0.0100     78.3900
    137     17.0230     -3.0610     12.8510      0.0100     78.3900
    138     15.3590     -3.1410     11.0220      1.6800     78.3900
    139     15.1380     -2.8040     12.2920      1.7700     78.3900
    140     13.8980     -2.5020     12.7960      1.6800     78.3900
    141     13.8240     -2.2250     13.7600      0.0100     78.3900
    142     12.7110     -2.4990     12.0750      1.7700     78.3900
    143     11.6310     -2.2170     12.6050      1.5900     78.3900
    144     12.9290     -2.8720     10.7210      1.7700     78.3900
    145     12.0290     -2.9900      9.6670      1.6800     78.3900
    146     12.7800     -3.3120      8.6420      1.7700     78.3900
    147     12.4240     -3.4880      7.6230      0.0100     78.3900
    148     15.8470     -5.1080      8.3500      1.7700     78.3900
    149     15.6940     -5.4320      9.4020      0.0100     78.3900
    150     17.2320     -5.1040      8.0390      1.5900     78.3900
    151     17.7180     -4.6100      8.7040      0.0100     78.3900
    152     15.0740     -6.0040      7.3960      1.7700     78.3900
    153     14.0350     -6.1490      7.7720      0.0100     78.3900
    154     15.7430     -7.2380      7.0480      1.5900     78.3900
    155     15.3230     -8.5820      7.7520      2.1000     78.3900
    156     14.0820     -8.3680      8.5250      1.5900     78.3900
    157     15.2880     -9.6420      6.7210      1.5900     78.3900
    158     16.5030     -8.9320      8.7390      1.5900     78.3900
    159     16.6120     -8.3300     10.0500      1.7700     78.3900
    160     15.6160     -8.2140     10.5270      0.0100     78.3900
    161     17.0670     -7.3190      9.9530      0.0100     78.3900
    162     17.4770     -9.1530     11.0310      1.7700     78.3900
    163     16.9470    -10.0800     11.3420      0.0100     78.3900
    164     18.7140     -9.5630     10.3860      1.5900     78.3900
    165     19.8020     -9.4240     11.2850      1.7700     78.3900
    166     20.2830    -10.4290     11.3210      0.0100     78.3900
    167     20.8060     -8.4320     10.8090      1.6800     78.3900
    168     20.4800     -7.5510      9.8000      1.7700     78.3900
    169     19.4610     -7.6100      9.4090      0.0100     78.3900
    170     21.3780     -6.6880      9.3120      1.7700     78.3900
    171     21.1360     -5.9850      8.5180      0.0100     78.3900
    172     22.0930     -8.4220     11.3510      1.7700     78.3900
    173     22.3830     -9.2370     12.2390      1.5900     78.3900
    174     23.0100     -7.5490     10.8710      1.6800     78.3900
    175     22.6880     -6.7100      9.8720      1.7700     78.3900
    176     23.6180     -5.8920      9.3890      1.6800     78.3900
    177     24.5040     -5.8530      9.8550      0.0100     78.3900
    178     23.3950     -5.1740      8.7320      0.0100     78.3900
    179     19.2310     -9.1000     12.6540      1.7700     78.3900
    180     19.8970     -8.4430     13.2540      0.0100     78.3900
    181     18.9800    -10.3060     13.3540      1.5900     78.3900
    182     18.4950    -10.0870     14.1670      0.0100     78.3900
    183     17.9350     -8.3850     12.2880      1.7700     78.3900
    184     18.1590     -7.3470     11.9540      0.0100     78.3900
    185     16.9120     -8.4400     13.3060      1.5900     78.3900
    186     16.7190     -7.2530     14.3210      2.1000     78.3900
    187     16.5240     -6.0090     13.5460      1.5900     78.3900
    188     15.6500     -7.6250     15.2720      1.5900     78.3900
    189     18.0660     -7.1450     15.1240      1.5900     78.3900
    190     18.4390     -5.9020     15.7890      1.7700     78.3900
    191     18.1730     -5.9620     16.8680      0.0100     78.3900
    192     17.8880     -5.0180     15.3810      0.0100     78.3900
    193     19.9510     -5.5850     15.6810      1.7700     78.3900
    194     20.5140     -6.0510     16.5160      0.0100     78.3900
    195     20.4930     -6.1560     14.4470      1.5900     78.3900
    196     21.3370     -5.2180     13.8130      1.7700     78.3900
    197     22.2860     -5.7630     13.6010      0.0100     78.3900
    198     20.7700     -4.7120     12.5310      1.6800     78.3900
    199     19.4270     -4.8500     12.2410      1.7700     78.3900
    200     18.8170     -5.3630     12.9930      0.0100     78.3900
    201     18.9170     -4.4040     11.0830      1.7700     78.3900
    202     17.8650     -4.5280     10.8290      0.0100     78.3900
    203     21.6080     -4.0530     11.6350      1.7700     78.3900
    204     22.8010     -3.8890     11.9330      1.5900     78.3900
    205     21.1150     -3.6270     10.4510      1.6800     78.3900
    206     19.8160     -3.7810     10.1640      1.7700     78.3900
    207     19.3940     -3.3580      8.9730      1.6800     78.3900
    208     20.1050     -2.9670      8.3790      0.0100     78.3900
    209     18.4610     -3.0770      8.7790      0.0100     78.3900
    210     21.6130     -4.1140     14.8110      1.7700     78.3900
    211     21.8030     -3.1380     14.3180      0.0100     78.3900
    212     22.7190     -4.4570     15.6270      1.5900     78.3900
    213     22.7940     -3.7790     16.3170      0.0100     78.3900
    214     20.3100     -4.0840     15.6060      1.7700     78.3900
    215     19.5140     -3.5860     15.0060      0.0100     78.3900
    216     20.4170     -3.5290     16.9370      1.5900     78.3900
    217     20.4390     -1.9610     17.1310      2.1000     78.3900
    218     19.2000     -1.4080     16.5440      1.5900     78.3900
    219     20.6910     -1.6720     18.5610      1.5900     78.3900
    220     21.6910     -1.4270     16.3340      1.5900     78.3900
    221     21.7000     -0.0820     15.7820      1.7700     78.3900
    222     22.5530      0.4900     16.2100      0.0100     78.3900
    223     20.7780      0.5010     16.0270      0.0100     78.3900
    224     21.8470     -0.1080     14.2510      1.7700     78.3900
    225     22.8450     -0.5030     13.9610      0.0100     78.3900
    226     20.8370     -0.9910     13.6840      1.5900     78.3900
    227     20.3320     -0.4390     12.4940      1.7700     78.3900
    228     20.4430     -1.2170     11.7040      0.0100     78.3900
    229     18.9230     -0.0910     12.6600      1.6800     78.3900
    230     16.7990      0.3080     12.2820      1.7700     78.3900
    231     16.9770      0.4530     13.6520      1.6800     78.3900
    232     18.2510      0.1980     13.8270      1.7700     78.3900
    233     18.7650      0.1920     14.7930      0.0100     78.3900
    234     15.8340      0.2050     10.1310      1.6800     78.3900
    235     17.0530     -0.0880      9.6770      1.7700     78.3900
    236     17.1210     -0.2350      8.5950      0.0100     78.3900
    237     18.1950     -0.2320     10.3540      1.6800     78.3900
    238     17.9930     -0.0190     11.6630      1.7700     78.3900
    239     15.6580      0.3950     11.4610      1.7700     78.3900
    240     14.4160      0.6150     11.9300      1.6800     78.3900
    241     14.2500      0.8630     12.8910      0.0100     78.3900
    242     13.6490      0.7020     11.2870      0.0100     78.3900
    243     21.1850      0.7570     12.1500      1.7700     78.3900
    244     20.6170      1.5410     11.6080      0.0100     78.3900
    245     22.3030      0.3570     11.3760      1.5900     78.3900
    246     22.8340      1.1500     11.2350      0.0100     78.3900
    247     21.6050      1.2360     13.5340      1.7700     78.3900
    248     20.7500      1.7240     14.0600      0.0100     78.3900
    249     22.8000      2.0440     13.5490      1.5900     78.3900
    250     22.6920      3.6000     13.3290      2.1000     78.3900
    251     21.6330      4.1040     14.2360      1.5900     78.3900
    252     24.0400      4.2020     13.4670      1.5900     78.3900
    253     22.1880      3.7690     11.8530      1.5900     78.3900
    254     23.0630      3.5850     10.7190      1.7700     78.3900
    255     23.5570      2.5860     10.7430      0.0100     78.3900
    256     23.8690      4.3590     10.7160      0.0100     78.3900
    257     22.2730      3.6930      9.4050      1.7700     78.3900
    258     22.9190      3.4460      8.5330      0.0100     78.3900
    259     21.1570      2.7540      9.4040      1.5900     78.3900
    260     20.0540      3.3350      8.7310      1.7700     78.3900
    261     19.7930      2.6440      7.8970      0.0100     78.3900
    262     18.8890      3.4770      9.6220      1.6800     78.3900
    263     16.8290      3.6280     10.3840      1.7700     78.3900
    264     17.6570      3.6160     11.5040      1.6800     78.3900
    265     18.8660      3.5380     10.9970      1.7700     78.3900
    266     19.7910      3.5190     11.5780      0.0100     78.3900
    267     14.9280      3.7250      8.9660      1.6800     78.3900
    268     15.7840      3.6360      7.9440      1.7700     78.3900
    269     15.3360      3.6470      6.9390      0.0100     78.3900
    270     17.1170      3.5580      7.9610      1.6800     78.3900
    271     17.5780      3.5500      9.2230      1.7700     78.3900
    272     15.4260      3.7180     10.2320      1.7700     78.3900
    273     14.5680      3.7910     11.2670      1.6800     78.3900
    274     14.8910      3.8430     12.2170      0.0100     78.3900
    275     13.5810      3.8500     11.0940      0.0100     78.3900
    276     20.5210      4.6570      8.1610      1.7700     78.3900
    277     19.7110      5.4110      8.1200      0.0100     78.3900
    278     21.0500      4.4640      6.8640      1.5900     78.3900
    279     21.3630      5.3260      6.5610      0.0100     78.3900
    280     21.6130      5.0520      9.1490      1.7700     78.3900
    281     21.1640      5.3580     10.1230      0.0100     78.3900
    282     22.5910      6.0000      8.6410      1.5900     78.3900
    283     22.2610      7.5310      8.8380      2.1000     78.3900
    284     21.7910      7.7300     10.2230      1.5900     78.3900
    285     23.4400      8.3310      8.4350      1.5900     78.3900
    286     21.0660      7.8370      7.8620      1.5900     78.3900
    287     21.2920      7.8780      6.4340      1.7700     78.3900
    288     21.7640      6.9370      6.0730      0.0100     78.3900
    289     21.9690      8.7270      6.1750      0.0100     78.3900
    290     19.9720      8.0490      5.6720      1.7700     78.3900
    291     20.1360      8.0140      4.5720      0.0100     78.3900
    292     19.0590      6.9650      6.0110      1.5900     78.3900
    293     17.7330      7.4740      6.0740      1.7700     78.3900
    294     17.1190      6.8660      5.3710      0.0100     78.3900
    295     17.1700      7.3520      7.4260      1.6800     78.3900
    296     15.8410      7.3750      7.7510      1.7700     78.3900
    297     12.5190      7.7010      6.8110      1.6800     78.3900
    298     12.5820      7.8380      5.8260      0.0100     78.3900
    299     11.6160      7.7420      7.2470      0.0100     78.3900
    300     14.8230      7.5350      6.8860      1.6800     78.3900
    301     13.6380      7.5300      7.4950      1.7700     78.3900
    302     13.4910      7.3500      8.8450      1.6800     78.3900
    303     12.5590      7.3560      9.2270      0.0100     78.3900
    304     14.5240      7.1670      9.7570      1.7700     78.3900
    305     14.2920      7.0170     10.9620      1.5900     78.3900
    306     15.7920      7.1970      9.1200      1.7700     78.3900
    307     17.0730      7.0810      9.6510      1.6800     78.3900
    308     17.8570      7.1950      8.6070      1.7700     78.3900
    309     18.9470      7.1700      8.6300      0.0100     78.3900
    310     17.7770      8.9090      5.6020      1.7700     78.3900
    311     17.0100      9.5430      6.0880      0.0100     78.3900
    312     17.6040      8.9510      4.2000      1.5900     78.3900
    313     17.6760      9.8760      3.9360      0.0100     78.3900
    314     19.1890      9.3230      6.0080      1.7700     78.3900
    315     19.2510      9.4420      7.1150      0.0100     78.3900
    316     19.7420     10.4470      5.2830      1.5900     78.3900
    317     19.5860     11.8940      5.8890      2.1000     78.3900
    318     19.8750     11.8460      7.3360      1.5900     78.3900
    319     20.3760     12.8610      5.0910      1.5900     78.3900
    320     18.0540     12.1870      5.6920      1.5900     78.3900
    321     17.5050     12.3300      4.3610      1.7700     78.3900
    322     17.7630     11.4650      3.7070      0.0100     78.3900
    323     17.9120     13.2370      3.8650      0.0100     78.3900
    324     15.9850     12.5160      4.4200      1.7700     78.3900
    325     15.5610     12.6670      3.4020      0.0100     78.3900
    326     15.3570     11.3280      4.9800      1.5900     78.3900
[...]
      8 F8       -1   33   1   85  371 1  1 G RHF             0      -1      -1
      9 F9       -1   33   1   85  371 1  1 G RHF             0      -1      -1
     10 F10      -1   34   1   89  386 1  1 G RHF             0      -1      -1
     11 F11       0   31   0   69  309 1  1 G RHF             0      -1      -1

 Close fragment pairs, distance relative to vdW radii

 CPU     0: STEP CPU TIME=     0.00 TOTAL CPU TIME=          2.2 (      0.0 MIN)
 TOTAL WALL CLOCK TIME=          5.4 SECONDS, CPU UTILIZATION IS    41.25%
 dmexch needs              4153986  words of memory.
 CPU     0: STEP CPU TIME=     0.02 TOTAL CPU TIME=          2.3 (      0.0 MIN)
 TOTAL WALL CLOCK TIME=          5.5 SECONDS, CPU UTILIZATION IS    41.32%

 Data exchange of   1375965 words took     0.0 s.

 RHF      monomer      5 corr= NONE       , L1=   386, L0=   362 ID=      1


 AO spaces for     5     0     0 n-mer: L1=   386, L0=   362

 DIRECT SCF CALCULATION, SCHWRZ=T   FDIFF=T,  DIRTHR=  0.00E+00 NITDIR=10

                                                                                   NONZERO     BLOCKS
 ITER EX DEM     TOTAL ENERGY        E CHANGE  DENSITY CHANGE     ORB. GRAD      INTEGRALS    SKIPPED
   1  0  0  1393066.8920605965*****************   0.512317271   0.000000000      911238144   17506229
          ---------------START SECOND ORDER SCF---------------
   2  1  0    -1445.9231106261*****************   0.407279618   0.109609418      916439152   17492135
   3  2  0    -1446.1736487260    -0.2505380999   0.191904233   0.088992670      911394300   17727723
   4  3  0    -1446.7422483730    -0.5685996470   0.077230727   0.017740724      899328927   18055178
   5  4  0    -1446.7587483701    -0.0164999971   0.025569070   0.010043607      884142899   18331162
   6  5  0    -1446.7623713117    -0.0036229416   0.008956019   0.003346088      858740855   18697986
   7  6  0    -1446.7626034070    -0.0002320953   0.002559060   0.001838434      829549032   19051351
   8  7  0    -1446.7626951541    -0.0000917470   0.000775899   0.000265094      803042123   19328322
   9  8  0    -1446.7627013405    -0.0000061864   0.000465550   0.000123539      762581003   19696430
  10  9  0    -1446.7627031275    -0.0000017870   0.000153719   0.000051244      724790163   20035453
  11 10  0    -1446.7627033132    -0.0000001857   0.000079972   0.000030297      688158038   20360262
  12 11  0    -1446.7627033624    -0.0000000492   0.000028537   0.000012944      650199359   20675695
  13 12  0    -1446.7627033694    -0.0000000070   0.000011587   0.000003743      614470370   20960362
  14 13  0    -1446.7627033693     0.0000000001   0.000004749   0.000001517      575249809   21293724
  15 14  0    -1446.7627033709    -0.0000000016   0.000001827   0.000000578      536252151   21619607
  16 15  0    -1446.7627033700     0.0000000009   0.000000790   0.000000201      495875179   21933809
  17 16  0    -1446.7627033703    -0.0000000003   0.000000263   0.000000108      457384396   22237930
  18 17  0    -1446.7627033703    -0.0000000000   0.000000129   0.000000039      408652738   22626358

          -----------------
          DENSITY CONVERGED
          -----------------
     TIME TO FORM FOCK OPERATORS=      41.5 SECONDS (       2.3 SEC/ITER)
     FOCK TIME ON FIRST ITERATION=       2.9, LAST ITERATION=       1.3
     TIME TO SOLVE SCF EQUATIONS=       0.7 SECONDS (       0.0 SEC/ITER)

 FINAL RHF ENERGY IS    -1446.7627033703 AFTER  18 ITERATIONS
 ...... END OF RHF CALCULATION ......
 CPU     0: STEP CPU TIME=    68.35 TOTAL CPU TIME=         70.6 (      1.2 MIN)
 TOTAL WALL CLOCK TIME=        135.2 SECONDS, CPU UTILIZATION IS    52.21%
 DONE PCM POT.
 CPU     0: STEP CPU TIME=     0.43 TOTAL CPU TIME=         71.0 (      1.2 MIN)
 TOTAL WALL CLOCK TIME=        136.5 SECONDS, CPU UTILIZATION IS    52.03%

 Iter=  1 iFrag=      5 EFMO= -1507.027293794, DD= 0.462440592, DE=************


 RHF      monomer     10 corr= NONE       , L1=   386, L0=   362 ID=      2


 AO spaces for    10     0     0 n-mer: L1=   386, L0=   362

 DIRECT SCF CALCULATION, SCHWRZ=T   FDIFF=T,  DIRTHR=  0.00E+00 NITDIR=10

                                                                                   NONZERO     BLOCKS
 ITER EX DEM     TOTAL ENERGY        E CHANGE  DENSITY CHANGE     ORB. GRAD      INTEGRALS    SKIPPED
   1  0  0  1265574.2423271083*****************   0.529332954   0.000000000      897762663   17626913
          ---------------START SECOND ORDER SCF---------------
   2  1  0    -1450.1620919559*****************   0.419558325   0.105861382      902185805   17620039
   3  2  0    -1450.3889506218    -0.2268586658   0.185339278   0.084378044      897262459   17866605
   4  3  0    -1450.9539085423    -0.5649579206   0.102408016   0.019258268      886139241   18185164
   5  4  0    -1450.9705303617    -0.0166218194   0.026011019   0.010147355      871990686   18453447
   6  5  0    -1450.9739178068    -0.0033874451   0.006344083   0.002217659      847262335   18827175
   7  6  0    -1450.9741363711    -0.0002185644   0.002837674   0.001180944      819601286   19168504
   8  7  0    -1450.9742148822    -0.0000785110   0.000894975   0.000208855      793276024   19451227
   9  8  0    -1450.9742200086    -0.0000051264   0.000430093   0.000136096      753870696   19813366
  10  9  0    -1450.9742213607    -0.0000013521   0.000130115   0.000045578      716686266   20149242
  11 10  0    -1450.9742215067    -0.0000001460   0.000066519   0.000028264      679135196   20478619
  12 11  0    -1450.9742215345    -0.0000000278   0.000020827   0.000014184      647009875   20738452
  13 12  0    -1450.9742215399    -0.0000000054   0.000007588   0.000004039      608544508   21053063
  14 13  0    -1450.9742215407    -0.0000000008   0.000003665   0.000001468      565843167   21404027
  15 14  0    -1450.9742215406     0.0000000001   0.000001480   0.000000553      527298017   21730026
  16 15  0    -1450.9742215418    -0.0000000013   0.000000681   0.000000178      488820179   22036437
  17 16  0    -1450.9742215405     0.0000000013   0.000000213   0.000000098      446312280   22355579
  18 17  0    -1450.9742215402     0.0000000003   0.000000059   0.000000031      407740089   22664015

          -----------------
          DENSITY CONVERGED
          -----------------
     TIME TO FORM FOCK OPERATORS=      39.7 SECONDS (       2.2 SEC/ITER)
     FOCK TIME ON FIRST ITERATION=       3.0, LAST ITERATION=       1.2
     TIME TO SOLVE SCF EQUATIONS=       0.7 SECONDS (       0.0 SEC/ITER)

 FINAL RHF ENERGY IS    -1450.9742215402 AFTER  18 ITERATIONS
 ...... END OF RHF CALCULATION ......
 CPU     0: STEP CPU TIME=    63.72 TOTAL CPU TIME=        134.8 (      2.2 MIN)
 TOTAL WALL CLOCK TIME=        274.5 SECONDS, CPU UTILIZATION IS    49.08%
 DONE PCM POT.
 CPU     0: STEP CPU TIME=     0.43 TOTAL CPU TIME=        135.2 (      2.3 MIN)
 TOTAL WALL CLOCK TIME=        275.8 SECONDS, CPU UTILIZATION IS    49.01%

 Iter=  1 iFrag=     10 EFMO= -1506.984458097, DD= 0.461247596, DE=************


 RHF      monomer      8 corr= NONE       , L1=   371, L0=   348 ID=      3


 AO spaces for     8     0     0 n-mer: L1=   371, L0=   348

 DIRECT SCF CALCULATION, SCHWRZ=T   FDIFF=T,  DIRTHR=  0.00E+00 NITDIR=10

                                                                                   NONZERO     BLOCKS
 ITER EX DEM     TOTAL ENERGY        E CHANGE  DENSITY CHANGE     ORB. GRAD      INTEGRALS    SKIPPED
   1  0  0  1384059.8406393100*****************   0.533816612   0.000000000      817124971   14908384
          ---------------START SECOND ORDER SCF---------------
   2  1  0    -1376.3656042130*****************   0.429555911   0.103242801      820847339   14906893
   3  2  0    -1376.6401366235    -0.2745324105   0.177328964   0.086198802      816361436   15152470
   4  3  0    -1377.0334195390    -0.3932829155   0.059216380   0.013856272      806748712   15447761
   5  4  0    -1377.0431391647    -0.0097196257   0.016863426   0.005498048      790584818   15754087
   6  5  0    -1377.0452324142    -0.0020932495   0.004044127   0.002447423      770734094   16051225
   7  6  0    -1377.0454537194    -0.0002213052   0.001429559   0.000876741      744926161   16367397
   8  7  0    -1377.0454998106    -0.0000460912   0.000862381   0.000387508      718567872   16640106
   9  8  0    -1377.0455073073    -0.0000074967   0.000501633   0.000165520      692430713   16892645
  10  9  0    -1377.0455091065    -0.0000017993   0.000152314   0.000048410      663457088   17179248
  11 10  0    -1377.0455093699    -0.0000002634   0.000074517   0.000021204      640163447   17359134
  12 11  0    -1377.0455094088    -0.0000000389   0.000032194   0.000013002      610876691   17602301
  13 12  0    -1377.0455094169    -0.0000000081   0.000006669   0.000003406      568340705   17999437
  14 13  0    -1377.0455094174    -0.0000000005   0.000003450   0.000001494      533574477   18288327
  15 14  0    -1377.0455094183    -0.0000000009   0.000001557   0.000000495      493675438   18638986
  16 15  0    -1377.0455094184    -0.0000000001   0.000000549   0.000000198      457302564   18948494
  17 16  0    -1377.0455094186    -0.0000000002   0.000000239   0.000000067      415878617   19259046
  18 17  0    -1377.0455094188    -0.0000000002   0.000000092   0.000000025      382209496   19531282

          -----------------
          DENSITY CONVERGED
          -----------------
     TIME TO FORM FOCK OPERATORS=      38.7 SECONDS (       2.2 SEC/ITER)
     FOCK TIME ON FIRST ITERATION=       3.0, LAST ITERATION=       1.3
     TIME TO SOLVE SCF EQUATIONS=       0.6 SECONDS (       0.0 SEC/ITER)

 FINAL RHF ENERGY IS    -1377.0455094188 AFTER  18 ITERATIONS
 ...... END OF RHF CALCULATION ......
 CPU     0: STEP CPU TIME=    55.73 TOTAL CPU TIME=        190.9 (      3.2 MIN)
 TOTAL WALL CLOCK TIME=        406.8 SECONDS, CPU UTILIZATION IS    46.94%
 DONE PCM POT.
 CPU     0: STEP CPU TIME=     0.44 TOTAL CPU TIME=        191.4 (      3.2 MIN)
 TOTAL WALL CLOCK TIME=        407.9 SECONDS, CPU UTILIZATION IS    46.91%

 Iter=  1 iFrag=      8 EFMO= -1432.131505220, DD= 0.436012322, DE=************


 RHF      monomer      9 corr= NONE       , L1=   371, L0=   348 ID=      4


 AO spaces for     9     0     0 n-mer: L1=   371, L0=   348

 DIRECT SCF CALCULATION, SCHWRZ=T   FDIFF=T,  DIRTHR=  0.00E+00 NITDIR=10

                                                                                   NONZERO     BLOCKS
 ITER EX DEM     TOTAL ENERGY        E CHANGE  DENSITY CHANGE     ORB. GRAD      INTEGRALS    SKIPPED
   1  0  0  1257228.1490087046*****************   0.529802576   0.000000000      800128386   15057422
          ---------------START SECOND ORDER SCF---------------
   2  1  0    -1373.4151980394*****************   0.420320370   0.112924738      803618039   15058867
   3  2  0    -1373.6711589926    -0.2559609532   0.175456998   0.097199399      798804879   15321258
   4  3  0    -1374.0191197454    -0.3479607528   0.056090522   0.011943137      789221431   15613811
   5  4  0    -1374.0274390595    -0.0083193142   0.015674627   0.005636105      773704073   15915456
   6  5  0    -1374.0289249405    -0.0014858810   0.003826948   0.002680742      754749524   16205708
   7  6  0    -1374.0291280632    -0.0002031227   0.001199139   0.000826721      729406450   16521224
   8  7  0    -1374.0291650896    -0.0000370264   0.001081899   0.000388813      703412276   16794717
   9  8  0    -1374.0291722422    -0.0000071526   0.000495342   0.000128150      680070414   17028170
  10  9  0    -1374.0291737326    -0.0000014904   0.000134681   0.000041268      649359324   17322924
  11 10  0    -1374.0291739531    -0.0000002205   0.000046000   0.000015900      626998180   17492320
  12 11  0    -1374.0291739826    -0.0000000296   0.000024996   0.000011006      594871102   17769191
  13 12  0    -1374.0291739881    -0.0000000055   0.000006842   0.000002806      550616139   18167092
  14 13  0    -1374.0291739890    -0.0000000009   0.000003244   0.000001471      519943101   18421046
  15 14  0    -1374.0291739899    -0.0000000009   0.000001526   0.000000510      481000122   18760279
  16 15  0    -1374.0291739892     0.0000000007   0.000000470   0.000000167      446330811   19063664
  17 16  0    -1374.0291739895    -0.0000000003   0.000000175   0.000000045      406541573   19350213
  18 17  0    -1374.0291739894     0.0000000001   0.000000050   0.000000021      372765075   19621212

          -----------------
          DENSITY CONVERGED
          -----------------
     TIME TO FORM FOCK OPERATORS=      38.9 SECONDS (       2.2 SEC/ITER)
     FOCK TIME ON FIRST ITERATION=       3.6, LAST ITERATION=       1.2
     TIME TO SOLVE SCF EQUATIONS=       0.6 SECONDS (       0.0 SEC/ITER)

 FINAL RHF ENERGY IS    -1374.0291739894 AFTER  18 ITERATIONS
 ...... END OF RHF CALCULATION ......
 CPU     0: STEP CPU TIME=    64.35 TOTAL CPU TIME=        255.7 (      4.3 MIN)
 TOTAL WALL CLOCK TIME=        538.3 SECONDS, CPU UTILIZATION IS    47.51%
 DONE PCM POT.
 CPU     0: STEP CPU TIME=     0.38 TOTAL CPU TIME=        256.1 (      4.3 MIN)
 TOTAL WALL CLOCK TIME=        539.4 SECONDS, CPU UTILIZATION IS    47.48%

 Iter=  1 iFrag=      9 EFMO= -1432.113219486, DD= 0.432366991, DE=************


 RHF      monomer      1 corr= NONE       , L1=   358, L0=   336 ID=      5


 AO spaces for     1     0     0 n-mer: L1=   358, L0=   336

 DIRECT SCF CALCULATION, SCHWRZ=T   FDIFF=T,  DIRTHR=  0.00E+00 NITDIR=10

                                                                                   NONZERO     BLOCKS
 ITER EX DEM     TOTAL ENERGY        E CHANGE  DENSITY CHANGE     ORB. GRAD      INTEGRALS    SKIPPED
   1  0  0   845674.2483163010845674.2483163010   0.528234367   0.000000000      763237048   13437969
          ---------------START SECOND ORDER SCF---------------
   2  1  0    -1402.9537876352*****************   0.416330547   0.097667628      767066951   13445104
   3  2  0    -1403.1888283147    -0.2350406795   0.176630076   0.073805446      761412811   13702164
   4  3  0    -1403.5772068670    -0.3883785523   0.052617891   0.014142388      750690285   14000407
   5  4  0    -1403.5879780101    -0.0107711431   0.012554600   0.004641335      735509618   14278877
   6  5  0    -1403.5893745122    -0.0013965020   0.005780433   0.002335910      712453782   14617183
   7  6  0    -1403.5894994818    -0.0001249697   0.003932623   0.002283077      689547729   14910092
   8  7  0    -1403.5895654899    -0.0000660080   0.001851520   0.001153722      667154692   15179869
   9  8  0    -1403.5895787113    -0.0000132214   0.001614393   0.000723147      652438828   15343899
  10  9  0    -1403.5895863480    -0.0000076367   0.000755705   0.000466656      626907908   15616430
  11 10  0    -1403.5895882974    -0.0000019494   0.000256023   0.000175461      614286275   15723820
  12 11  0    -1403.5895892355    -0.0000009382   0.000102280   0.000035955      591771333   15936289
  13 12  0    -1403.5895892865    -0.0000000509   0.000043508   0.000026421      553452998   16295463
  14 13  0    -1403.5895893163    -0.0000000299   0.000017508   0.000008253      526162832   16532255
  15 14  0    -1403.5895893175    -0.0000000012   0.000009410   0.000004625      495865302   16797977
  16 15  0    -1403.5895893192    -0.0000000017   0.000003045   0.000001449      464094604   17088191
  17 16  0    -1403.5895893189     0.0000000003   0.000002390   0.000000787      429329858   17378175
  18 17  0    -1403.5895893190    -0.0000000001   0.000000573   0.000000235      390987229   17731934
  19 18  0    -1403.5895893188     0.0000000002   0.000000233   0.000000080      365211494   17948927
  20 19  0    -1403.5895893195    -0.0000000007   0.000000077   0.000000029      333701511   18202252

          -----------------
          DENSITY CONVERGED
          -----------------
     TIME TO FORM FOCK OPERATORS=      37.0 SECONDS (       1.9 SEC/ITER)
     FOCK TIME ON FIRST ITERATION=       2.6, LAST ITERATION=       0.9
     TIME TO SOLVE SCF EQUATIONS=       0.7 SECONDS (       0.0 SEC/ITER)

 FINAL RHF ENERGY IS    -1403.5895893195 AFTER  20 ITERATIONS
 ...... END OF RHF CALCULATION ......
 CPU     0: STEP CPU TIME=    48.32 TOTAL CPU TIME=        304.4 (      5.1 MIN)
 TOTAL WALL CLOCK TIME=        652.5 SECONDS, CPU UTILIZATION IS    46.65%
 DONE PCM POT.
 CPU     0: STEP CPU TIME=     0.37 TOTAL CPU TIME=        304.8 (      5.1 MIN)
 TOTAL WALL CLOCK TIME=        653.6 SECONDS, CPU UTILIZATION IS    46.63%

 Iter=  1 iFrag=      1 EFMO= -1450.363302589, DD= 0.501814737, DE=************


 RHF      monomer      7 corr= NONE       , L1=   341, L0=   320 ID=      6


 AO spaces for     7     0     0 n-mer: L1=   341, L0=   320

 DIRECT SCF CALCULATION, SCHWRZ=T   FDIFF=T,  DIRTHR=  0.00E+00 NITDIR=10

                                                                                   NONZERO     BLOCKS
 ITER EX DEM     TOTAL ENERGY        E CHANGE  DENSITY CHANGE     ORB. GRAD      INTEGRALS    SKIPPED
   1  0  0  1306295.2136565668*****************   0.535368057   0.000000000      661211240   10507848
          ---------------START SECOND ORDER SCF---------------
   2  1  0    -1317.5796548351*****************   0.413602382   0.082239756      664593954   10505939
   3  2  0    -1317.8085687929    -0.2289139578   0.170196079   0.074229887      661015336   10687973
   4  3  0    -1318.2630111489    -0.4544423560   0.065066034   0.020481132      652683888   10925647
   5  4  0    -1318.2771505707    -0.0141394219   0.015244761   0.007659671      641807903   11137414
   6  5  0    -1318.2795732091    -0.0024226384   0.004590732   0.001937900      623206726   11420057
   7  6  0    -1318.2797254031    -0.0001521939   0.003194412   0.002066548      599972312   11706624
   8  7  0    -1318.2797871840    -0.0000617809   0.001093928   0.000799225      581096924   11922919
   9  8  0    -1318.2797949541    -0.0000077701   0.000525912   0.000326808      563825075   12100077
  10  9  0    -1318.2797994729    -0.0000045188   0.000515778   0.000196874      538704874   12356253
  11 10  0    -1318.2797994955    -0.0000000226   0.000302334   0.000221284      522628774   12509274
  12 11  0    -1318.2798001951    -0.0000006996   0.000063280   0.000028159      502637001   12711264
  13 12  0    -1318.2798002215    -0.0000000264   0.000025635   0.000019562      474105258   12949659
  14 13  0    -1318.2798002367    -0.0000000152   0.000010839   0.000004788      451121250   13145380
  15 14  0    -1318.2798002379    -0.0000000013   0.000004386   0.000003762      429255745   13331574
  16 15  0    -1318.2798002379     0.0000000001   0.000001714   0.000000677      395543083   13627193
  17 16  0    -1318.2798002381    -0.0000000002   0.000000813   0.000000452      370107147   13839100
  18 17  0    -1318.2798002387    -0.0000000006   0.000000288   0.000000113      339528576   14109873
  19 18  0    -1318.2798002384     0.0000000002   0.000000171   0.000000057      305858251   14392989

          -----------------
          DENSITY CONVERGED
          -----------------
     TIME TO FORM FOCK OPERATORS=      31.0 SECONDS (       1.6 SEC/ITER)
     FOCK TIME ON FIRST ITERATION=       2.0, LAST ITERATION=       0.9
     TIME TO SOLVE SCF EQUATIONS=       0.5 SECONDS (       0.0 SEC/ITER)

 FINAL RHF ENERGY IS    -1318.2798002384 AFTER  19 ITERATIONS
 ...... END OF RHF CALCULATION ......
 CPU     0: STEP CPU TIME=    45.34 TOTAL CPU TIME=        350.1 (      5.8 MIN)
 TOTAL WALL CLOCK TIME=        761.5 SECONDS, CPU UTILIZATION IS    45.98%
 DONE PCM POT.
 CPU     0: STEP CPU TIME=     0.38 TOTAL CPU TIME=        350.5 (      5.8 MIN)
 TOTAL WALL CLOCK TIME=        762.7 SECONDS, CPU UTILIZATION IS    45.96%

 Iter=  1 iFrag=      7 EFMO= -1360.324932312, DD= 0.553494828, DE=************


 RHF      monomer      6 corr= NONE       , L1=   341, L0=   320 ID=      7

