‘2LBJ_3_fmo_input.inp’ -> ‘/scratch/hazwong/820847/./2LBJ_3_fmo_input.inp’
‘rungms’ -> ‘/scratch/hazwong/820847/./rungms’
‘gms-files.csh’ -> ‘/scratch/hazwong/820847/./gms-files.csh’
----- GAMESS execution script 'rungms' -----
This job is running on host gollum061.lsa.umich.edu
under operating system Linux at Fri Dec 6 00:44:06 EST 2019
Available scratch disk space (Kbyte units) at beginning of the job is
Filesystem     1K-blocks  Used Available Use% Mounted on
/dev/sda4      426933580 33468 426900112   1% /scratch
GAMESS temporary binary files will be written to /scratch/hazwong/820847/2LBJ_3/usrc
GAMESS supplementary output files will be written to /scratch/hazwong/820847/2LBJ_3/src
Copying input file 2LBJ_3_fmo_input.inp to your run's scratch directory...
cp 2LBJ_3_fmo_input.inp /scratch/hazwong/820847/2LBJ_3/usrc/2LBJ_3_fmo_input.F05
unset echo
This is a GDDI run, keeping various output files on local disks
setenv OUTPUT /scratch/hazwong/820847/2LBJ_3/usrc/2LBJ_3_fmo_input.F06
setenv PUNCH /scratch/hazwong/820847/2LBJ_3/usrc/2LBJ_3_fmo_input.F07
unset echo
 
Assuming a single but multicore node.
 
/export/apps/CentOS7/gamess/src/build//ddikick.x /export/apps/CentOS7/gamess/src/build//gamess.R3.x 2LBJ_3_fmo_input -ddi 1 16 gollum061.lsa.umich.edu:cpus=16 -scr /scratch/hazwong/820847/2LBJ_3/usrc

 Distributed Data Interface kickoff program.
 Initiating 16 compute processes on 1 nodes to run the following command:
 /export/apps/CentOS7/gamess/src/build//gamess.R3.x 2LBJ_3_fmo_input 

          ******************************************************
          *         GAMESS VERSION = 30 SEP 2018 (R3)         *
          *             FROM IOWA STATE UNIVERSITY             *
          * M.W.SCHMIDT, K.K.BALDRIDGE, J.A.BOATZ, S.T.ELBERT, *
          *   M.S.GORDON, J.H.JENSEN, S.KOSEKI, N.MATSUNAGA,   *
          *          K.A.NGUYEN, S.J.SU, T.L.WINDUS,           *
          *       TOGETHER WITH M.DUPUIS, J.A.MONTGOMERY       *
          *         J.COMPUT.CHEM.  14, 1347-1363(1993)        *
          **************** 64 BIT LINUX VERSION ****************

  SINCE 1993, STUDENTS AND POSTDOCS WORKING AT IOWA STATE UNIVERSITY
  AND ALSO IN THEIR VARIOUS JOBS AFTER LEAVING ISU HAVE MADE IMPORTANT
  CONTRIBUTIONS TO THE CODE:
     IVANA ADAMOVIC, CHRISTINE AIKENS, YURI ALEXEEV, POOJA ARORA,
     ANDREY ASADCHEV, ROB BELL, PRADIPTA BANDYOPADHYAY, JONATHAN BENTZ,
     BRETT BODE, KURT BRORSEN, CALEB CARLIN, GALINA CHABAN, WEI CHEN,
     CHEOL HO CHOI, PAUL DAY, ALBERT DEFUSCO, NUWAN DESILVA, TIM DUDLEY,
     DMITRI FEDOROV, ALEX FINDLATER, GRAHAM FLETCHER, MARK FREITAG,
     KURT GLAESEMANN, ANASTASIA GUNINA,
     DAN KEMP, GRANT MERRILL, NORIYUKI MINEZAWA, JONATHAN MULLIN,
     TAKESHI NAGATA, SEAN NEDD, HEATHER NETZLOFF, BOSILJKA NJEGIC, RYAN OLSON,
     MIKE PAK, BUU PHAM,
     SPENCER PRUITT, LUKE ROSKOP, JIM SHOEMAKER, LYUDMILA SLIPCHENKO,
     TONY SMITH, SAROM SOK LEANG, JIE SONG, TETSUYA TAKETSUGU, SIMON WEBB,
     PENG XU, SOOHAENG YOO, FEDERICO ZAHARIEV

  ADDITIONAL CODE HAS BEEN PROVIDED BY COLLABORATORS IN OTHER GROUPS:
     IOWA STATE UNIVERSITY:
          JOE IVANIC, AARON WEST, LAIMUTIS BYTAUTAS, KLAUS RUEDENBERG
     UNIVERSITY OF TOKYO: KIMIHIKO HIRAO, TAKAHITO NAKAJIMA,
          TAKAO TSUNEDA, MUNEAKI KAMIYA, SUSUMU YANAGISAWA,
          KIYOSHI YAGI, MAHITO CHIBA, SEIKEN TOKURA, NAOAKI KAWAKAMI
     UNIVERSITY OF AARHUS: FRANK JENSEN
     UNIVERSITY OF IOWA: VISVALDAS KAIRYS, HUI LI
     NATIONAL INST. OF STANDARDS AND TECHNOLOGY: WALT STEVENS, DAVID GARMER
     UNIVERSITY OF PISA: BENEDETTA MENNUCCI, JACOPO TOMASI
     UNIVERSITY OF MEMPHIS: HENRY KURTZ, PRAKASHAN KORAMBATH
     UNIVERSITY OF ALBERTA: TOBY ZENG, MARIUSZ KLOBUKOWSKI
     UNIVERSITY OF NEW ENGLAND: MARK SPACKMAN
     MIE UNIVERSITY: HIROAKI UMEDA
     NAT. INST. OF ADVANCED INDUSTRIAL SCIENCE AND TECHNOLOGY: KAZUO KITAURA
     MICHIGAN STATE UNIVERSITY:
          KAROL KOWALSKI, MARTA WLOCH, JEFFREY GOUR, JESSE LUTZ,
          WEI LI, JUN SHEN, J. EMILIANO DEUSTUA, PIOTR PIECUCH
     UNIVERSITY OF MINNESOTA:
          YINAN SHU
     UNIVERSITY OF SILESIA: MONIKA MUSIAL, STANISLAW KUCHARSKI
     FACULTES UNIVERSITAIRES NOTRE-DAME DE LA PAIX:
          OLIVIER QUINET, BENOIT CHAMPAGNE
     UNIVERSITY OF CALIFORNIA - SANTA BARBARA: BERNARD KIRTMAN
     INSTITUTE FOR MOLECULAR SCIENCE:
          KAZUYA ISHIMURA, MICHIO KATOUDA, AND SHIGERU NAGASE
     UNIVERSITY OF NOTRE DAME: ANNA POMOGAEVA, DAN CHIPMAN
     KYUSHU UNIVERSITY:
          HARUYUKI NAKANO,
          FENG LONG GU, JACEK KORCHOWIEC, MARCIN MAKOWSKI, AND YURIKO AOKI,
          HIROTOSHI MORI AND EISAKU MIYOSHI
     PENNSYLVANIA STATE UNIVERSITY:
          TZVETELIN IORDANOV, CHET SWALINA, JONATHAN SKONE,
          SHARON HAMMES-SCHIFFER
     WASEDA UNIVERSITY:
          MASATO KOBAYASHI, TOMOKO AKAMA, TSUGUKI TOUMA,
          TAKESHI YOSHIKAWA, YASUHIRO IKABATA, JUNJI SEINO,
          YUYA NAKAJIMA, HIROMI NAKAI
     NANJING UNIVERSITY: SHUHUA LI
     UNIVERSITY OF NEBRASKA:
          PEIFENG SU, DEJUN SI, NANDUN THELLAMUREGE, YALI WANG, HUI LI
     UNIVERSITY OF ZURICH: ROBERTO PEVERATI, KIM BALDRIDGE
     N. COPERNICUS UNIVERSITY AND JACKSON STATE UNIVERSITY:
          MARIA BARYSZ
     UNIVERSITY OF COPENHAGEN: Jimmy Kromann, CASPER STEINMANN
     TOKYO INSTITUTE OF TECHNOLOGY: HIROYA NAKATA
     NAGOYA UNIVERSITY: YOSHIO NISHIMOTO, STEPHAN IRLE
     MOSCOW STATE UNIVERSITY: VLADIMIR MIRONOV


 PARALLEL VERSION RUNNING ON       16 PROCESSORS IN        1 NODES.

 EXECUTION OF GAMESS BEGUN Fri Dec  6 00:44:07 2019

            ECHO OF THE FIRST FEW INPUT CARDS -
 INPUT CARD>!*** FMO 5.3 (Gamess) INPUT generated by Facio 22.1.1.32 ***                    
 INPUT CARD> $CONTRL RUNTYP=ENERGY NPRINT=-5 ISPHER=1 MAXIT=200 $END                        
 INPUT CARD> $SYSTEM MWORDS=63 MEMDDI=63 $END                                               
 INPUT CARD> $GDDI NGROUP=1 $END                                                            
 INPUT CARD> $SCF DIRSCF=.TRUE. NPUNCH=0 $END                                               
 INPUT CARD>!*** NumCPU : 2  MemPerNode : 512MB                                             
 INPUT CARD> $PCM SOLVNT=WATER IEF=-10 ICOMP=2 ICAV=1 IDISP=1 IFMO=-1 $END                  
 INPUT CARD> $PCMCAV RADII=SUAHF $END                                                       
 INPUT CARD> $TESCAV NTSALL=60 $END                                                         
 INPUT CARD> $FMOPRP                                                                        
 INPUT CARD>    NAODIR=200                                                                  
 INPUT CARD>    NGRFMO(1)=1, 1, 0, 0, 0,   0, 0, 0, 0, 0                                    
 INPUT CARD>    IPIEDA=1                                                                    
 INPUT CARD>    NPRINT=9                                                                    
 INPUT CARD> $END                                                                           
 INPUT CARD> $FMO                                                                           
 INPUT CARD>      SCFTYP(1)=RHF                                                             
 INPUT CARD>      MODGRD=10                                                                 
 INPUT CARD>      MODMUL=0                                                                  
 INPUT CARD>      MAXCAO=5                                                                  
 INPUT CARD>      MAXBND=13                                                                 
 INPUT CARD>      NLAYER=1                                                                  
 INPUT CARD>      MPLEVL(1)=2                                                               
 INPUT CARD>      NFRAG=11                                                                  
 INPUT CARD>      ICHARG(1)=-1, -1, -1, -1, -1, -1, -1, -1, -1, -1, 0                       
 INPUT CARD>      FRGNAM(1)=F1, F2, F3, F4, F5, F6, F7, F8, F9, F10, F11                    
 INPUT CARD>      indat(1)=0                                                                
 INPUT CARD>               1   -33   0                                                      
 INPUT CARD>               34   -64   0                                                     
 INPUT CARD>               65   -94   0                                                     
 INPUT CARD>               95   -124   0                                                    
 INPUT CARD>               125   -158   0                                                   
 INPUT CARD>               159   -189   0                                                   
 INPUT CARD>               190   -220   0                                                   
 INPUT CARD>               221   -253   0                                                   
 INPUT CARD>               254   -286   0                                                   
 INPUT CARD>               287   -320   0                                                   
 INPUT CARD>               321   -351   0                                                   
 INPUT CARD> $END                                                                           
 INPUT CARD>                                                                                
 INPUT CARD> $FMOBND                                                                        
 INPUT CARD>   -34   33       6-31G*    MINI                                                
 INPUT CARD>   -65   64       6-31G*    MINI                                                
 INPUT CARD>   -95   94       6-31G*    MINI                                                
 INPUT CARD>   -125   124       6-31G*    MINI                                              
 INPUT CARD>   -159   158       6-31G*    MINI                                              
 INPUT CARD>   -190   189       6-31G*    MINI                                              
 INPUT CARD>   -221   220       6-31G*    MINI                                              
 INPUT CARD>   -254   253       6-31G*    MINI                                              
 INPUT CARD>   -287   286       6-31G*    MINI                                              


 -------------------------------------------------------------
 GROUP DDI, PROGRAMMED BY: RYAN M. OLSON AND DMITRI G. FEDOROV
        FEDOROV ET AL., J. COMPUT. CHEM., 25 (2004) 872.
 -------------------------------------------------------------

 -------------------------------------------------------
 GDDI: INITIALIZATION COMPLETED FOR GROUP     1 OF     1
 WITH    16 PROCESSES BALTYP=DLB   global rank=        0
 -------------------------------------------------------

   63000000 WORDS OF MEMORY AVAILABLE


     RUN TITLE
     ---------
  FMO calculation                                                                

 THE POINT GROUP OF THE MOLECULE IS C1      
 THE ORDER OF THE PRINCIPAL AXIS IS     0

 ATOM   ATOMIC CHARGE
 H.1-1       1.0
 O.1-1       8.0
 C.1-1       6.0
 N.1-1       7.0
 P.1-1      15.0

     ATOMIC BASIS SET LIBRARY
     ----------------
 THE CONTRACTED PRIMITIVE FUNCTIONS HAVE BEEN UNNORMALIZED
 THE CONTRACTED BASIS FUNCTIONS ARE NOW NORMALIZED TO UNITY

  SHELL TYPE  PRIMITIVE        EXPONENT          CONTRACTION COEFFICIENT(S)

 H.1-1     

      1   S       1            18.7311370    0.033494604338
      1   S       2             2.8253944    0.234726953484
      1   S       3             0.6401217    0.813757326146

      2   S       4             0.1612778    1.000000000000

 O.1-1     

      3   S       5          5484.6716600    0.001831074430
      3   S       6           825.2349460    0.013950172200
      3   S       7           188.0469580    0.068445078098
      3   S       8            52.9645000    0.232714335992
      3   S       9            16.8975704    0.470192897984
      3   S      10             5.7996353    0.358520852987

      4   L      11            15.5396162   -0.110777549525    0.070874268231
      4   L      12             3.5999336   -0.148026262701    0.339752839147
      4   L      13             1.0137618    1.130767015354    0.727158577316

      5   L      14             0.2700058    1.000000000000    1.000000000000

      6   D      15             0.8000000    1.000000000000

 C.1-1     

      7   S      16          3047.5248800    0.001834737132
      7   S      17           457.3695180    0.014037322813
      7   S      18           103.9486850    0.068842622264
      7   S      19            29.2101553    0.232184443216
      7   S      20             9.2866630    0.467941348435
      7   S      21             3.1639270    0.362311985337

      8   L      22             7.8682723   -0.119332419775    0.068999066591
      8   L      23             1.8812885   -0.160854151696    0.316423960957
      8   L      24             0.5442493    1.143456437840    0.744308290898

      9   L      25             0.1687145    1.000000000000    1.000000000000

     10   D      26             0.8000000    1.000000000000

 N.1-1     

     11   S      27          4173.5114600    0.001834772160
     11   S      28           627.4579110    0.013994627002
     11   S      29           142.9020930    0.068586551812
     11   S      30            40.2343293    0.232240873040
     11   S      31            12.8202129    0.469069948082
     11   S      32             4.3904370    0.360455199063

     12   L      33            11.6263619   -0.114961181702    0.067579743878
     12   L      34             2.7162798   -0.169117478561    0.323907295893
     12   L      35             0.7722184    1.145851947027    0.740895139755

     13   L      36             0.2120315    1.000000000000    1.000000000000

     14   D      37             0.8000000    1.000000000000

 P.1-1     

     15   S      38         19413.3000000    0.001851598923
     15   S      39          2909.4200000    0.014206191735
     15   S      40           661.3640000    0.069999459277
     15   S      41           185.7590000    0.240078860331
     15   S      42            59.1943000    0.484761717984
     15   S      43            20.0310000    0.335199804993

     16   L      44           339.4780000   -0.002782170105    0.004564616191
     16   L      45            81.0101000   -0.036049901354    0.033693571881
     16   L      46            25.8780000   -0.116631004382    0.139754883368
     16   L      47             9.4522100    0.096832803638    0.339361716786
     16   L      48             3.6656600    0.614418023082    0.450920623685
     16   L      49             1.4674600    0.403798015170    0.238585800889

     17   L      50             2.1562300   -0.252924113863   -0.017765312733
     17   L      51             0.7489970    0.032851844678    0.274058196433
     17   L      52             0.2831450    1.081254761783    0.785421562957

     18   L      53             0.0998317    1.000000000000    1.000000000000

     19   D      54             0.5500000    1.000000000000

 TOTAL NUMBER OF BASIS SET SHELLS             =   19
 NUMBER OF CARTESIAN GAUSSIAN BASIS FUNCTIONS =   66

     $CONTRL OPTIONS
     ---------------
 SCFTYP=RHF          RUNTYP=ENERGY       EXETYP=RUN     
 MPLEVL=       0     CITYP =NONE         CCTYP =NONE         VBTYP =NONE    
 DFTTYP=NONE         TDDFT =NONE    
 MULT  =       1     ICHARG=       0     NZVAR =       0     COORD =UNIQUE  
 PP    =NONE         RELWFN=NONE         LOCAL =NONE         NUMGRD=       F
 ISPHER=       1     NOSYM =       0     MAXIT =     200     UNITS =ANGS    
 PLTORB=       F     MOLPLT=       F     AIMPAC=       F     FRIEND=        
 NPRINT=      -5     IREST =       0     GEOM  =INPUT   
 NORMF =       0     NORMP =       0     ITOL  =      24     ICUT  =      12
 INTTYP=BEST         GRDTYP=BEST         QMTTOL= 1.0E-06

     $SYSTEM OPTIONS
     ---------------
  REPLICATED MEMORY=    63000000 WORDS (ON EVERY NODE).
 DISTRIBUTED MEMDDI=          63 MILLION WORDS IN AGGREGATE,
 MEMDDI DISTRIBUTED OVER  16 PROCESSORS IS     3937500 WORDS/PROCESSOR.
 TOTAL MEMORY REQUESTED ON EACH PROCESSOR=    66937500 WORDS.
 TIMLIM=      525600.00 MINUTES, OR     365.0 DAYS.
 PARALL= T  BALTYP=  DLB     KDIAG=    0  COREFL= F
 MXSEQ2=     300 MXSEQ3=     150  mem10=         0

 ** LOOKING UP INTERNALLY STORED DATA FOR SOLVENT=WATER    **
 OPTICAL AND PHYSICAL CONSTANTS:
 EPS= 78.390; EPSINF=  1.776; RSOLV=  1.385 A; VMOL=  18.070 ML/MOL;
 TCE= .25700E-03 1/K; STEN= 71.810 DYN/CM;  DSTEN=  0.6500; CMF=  1.2770


     -----------------------------------
     INPUT FOR PCM SOLVATION CALCULATION 
     -----------------------------------
     IEF   =     -10
     ICOMP =       2     IFIELD=       0     ICAV  =       1
     IDISP =       1     IREP  =       0     IDP   =       0

     SOLVNT=WATER        EPS   = 78.3900     EPSINF=  1.7760
     VMOL  = 18.0700     TCE   =  0.00025700 STEN  = 71.8100
     DSTEN =  0.6500     CMF   =  1.2770     RSOLV =  1.3850

     NESFP =       0
     OMEGA = 40.0000     RET   =100.0000     FRO   =  0.7000

     TABS  =298.0000     IPRINT=       0

     --------------------------------
     INPUT FOR ITERATIVE C-PCM METHOD 
     --------------------------------
     IPCMIT  =         1     MXDIIS  =        50
     MXITR1  =       200     MXITR2  =       200
     THRES   = 0.100E-09     IMUL    =         3
     RCUT(1) =   20.0000     RCUT(2) =   50.0000

     IDIRCT  =         1
     IMGABI  =         0     RABI    =    4.0000
     IMGASC  =         0     RASC    =   20.0000
     THRSLS  = 0.500E-03     DENSLS  =    0.0100
     IEFPOL  =         1     REFPOL  =    0.0000

     INPUT FOR ISOTROPIC DIELECTRICS
     -------------------------------
     EPS=    78.39

          ----------------
          PROPERTIES INPUT
          ----------------

     MOMENTS            FIELD           POTENTIAL          DENSITY
 IEMOM =       1   IEFLD =       0   IEPOT =       0   IEDEN =       0
 WHERE =COMASS     WHERE =NUCLEI     WHERE =NUCLEI     WHERE =NUCLEI  
 OUTPUT=BOTH       OUTPUT=BOTH       OUTPUT=NONE       OUTPUT=BOTH    
 IEMINT=       0   IEFINT=       0                     IEDINT=       0
                                                       MORB  =       0
          EXTRAPOLATION IN EFFECT
          SOSCF IN EFFECT
 ORBITAL PRINTING OPTION: NPREO=     1 32767     2     1

     -------------------------------
     INTEGRAL TRANSFORMATION OPTIONS
     -------------------------------
     NWORD  =            0
     CUTOFF = 1.0E-10     MPTRAN =       0
     DIRTRF =       T     AOINTS =DUP     

          ----------------------
          INTEGRAL INPUT OPTIONS
          ----------------------
 NOPK  =       1 NORDER=       0 SCHWRZ=       T

 ..... DONE SETTING UP THE RUN .....
 CPU     0: STEP CPU TIME=     0.04 TOTAL CPU TIME=          0.0 (      0.0 MIN)
 TOTAL WALL CLOCK TIME=          0.1 SECONDS, CPU UTILIZATION IS    40.00%
 CPU     0: STEP CPU TIME=     0.00 TOTAL CPU TIME=          0.0 (      0.0 MIN)
 TOTAL WALL CLOCK TIME=          0.1 SECONDS, CPU UTILIZATION IS    40.00%

                    ----------------------
                    AO INTEGRAL TECHNOLOGY
                    ----------------------
     S,P,L SHELL ROTATED AXIS INTEGRALS, REPROGRAMMED BY
        KAZUYA ISHIMURA (IMS) AND JOSE SIERRA (SYNSTAR).
     S,P,D,L SHELL ROTATED AXIS INTEGRALS PROGRAMMED BY
        KAZUYA ISHIMURA (INSTITUTE FOR MOLECULAR SCIENCE).
     S,P,D,F,G SHELL TO TOTAL QUARTET ANGULAR MOMENTUM SUM 5,
        ERIC PROGRAM BY GRAHAM FLETCHER (ELORET AND NASA ADVANCED
        SUPERCOMPUTING DIVISION, AMES RESEARCH CENTER).
     S,P,D,F,G,L SHELL GENERAL RYS QUADRATURE PROGRAMMED BY
        MICHEL DUPUIS (PACIFIC NORTHWEST NATIONAL LABORATORY).
 Setting modorb=1 flag...
 Setting modorb=1 flag...

          -----------------------
          MP2 CONTROL INFORMATION
          -----------------------
          NACORE =        8  NBCORE =        8
          LMOMP2 =        F  AOINTS = DUP     
          METHOD =        2  NWORD  =               0
          MP2PRP =        F  OSPT   = NONE    
          CUTOFF = 1.00E-12  CPHFBS = BASISAO 
          CODE   = IMS     

          NUMBER OF CORE -A-  ORBITALS =     8
          NUMBER OF CORE -B-  ORBITALS =     8
          NUMBER OF OCC. -A-  ORBITALS =    18
          NUMBER OF OCC. -B-  ORBITALS =    18
          NUMBER OF MOLECULAR ORBITALS =    66
          NUMBER OF   BASIS  FUNCTIONS =    66

 CPU     0: STEP CPU TIME=     0.02 TOTAL CPU TIME=          0.1 (      0.0 MIN)
 TOTAL WALL CLOCK TIME=          0.1 SECONDS, CPU UTILIZATION IS    46.15%
 CPU     0: STEP CPU TIME=     0.00 TOTAL CPU TIME=          0.1 (      0.0 MIN)
 TOTAL WALL CLOCK TIME=          0.1 SECONDS, CPU UTILIZATION IS    46.15%

     INPUT FOR CAVITY DEFINITION 
     ---------------------------
   ATOM               COORDINATES                RADIUS       EPS
      1      6.7580      8.5610     18.0270      0.0100     78.3900
      2      6.8190      8.7670     17.0750      1.5900     78.3900
      3      5.5670      9.3550     16.6880      1.7700     78.3900
      4      5.3960     10.2700     17.2950      0.0100     78.3900
      5      4.7400      8.6430     16.9030      0.0100     78.3900
      6      5.5050      9.7520     15.2060      1.7700     78.3900
      7      4.4960     10.1490     14.9510      0.0100     78.3900
      8      6.4800     10.8050     14.9250      1.5900     78.3900
      9      7.0750     10.5580     13.6550      1.7700     78.3900
     10      6.9130     11.4880     13.0610      0.0100     78.3900
     11      8.5400     10.2940     13.7360      1.6800     78.3900
     12      9.1130      9.9300     14.9340      1.7700     78.3900
     13      8.4390      9.8450     15.7870      0.0100     78.3900
     14     10.4310      9.7180     15.0430      1.7700     78.3900
     15     10.8930      9.4420     15.9880      0.0100     78.3900
     16      9.3370     10.4090     12.6000      1.7700     78.3900
     17      8.8110     10.7120     11.5190      1.5900     78.3900
     18     10.6710     10.2040     12.6920      1.6800     78.3900
     19     11.2260      9.8810     13.8740      1.7700     78.3900
     20     12.5440      9.7030     13.9410      1.6800     78.3900
     21     13.0950      9.7760     13.1060      0.0100     78.3900
     22     12.9950      9.4290     14.7920      0.0100     78.3900
     23      6.3000      9.4280     13.0060      1.7700     78.3900
     24      6.9250      8.8220     12.3230      0.0100     78.3900
     25      5.1920      9.9490     12.3010      1.5900     78.3900
     26      4.6970      9.1870     11.9720      0.0100     78.3900
     27      5.8480      8.6260     14.2210      1.7700     78.3900
     28      6.7140      8.0820     14.6620      0.0100     78.3900
     29      4.6880      7.7800     14.0130      1.5900     78.3900
     30      4.9160      6.2790     13.5860      2.1000     78.3900
     31      5.9930      5.7110     14.4290      1.5900     78.3900
     32      3.6180      5.5610     13.5980      1.5900     78.3900
     33      5.4370      6.3900     12.1110      1.5900     78.3900
     34      4.5580      6.8170     11.0470      1.7700     78.3900
     35      4.0790      7.7960     11.2730      0.0100     78.3900
     36      3.7400      6.0730     10.8930      0.0100     78.3900
     37      5.3230      6.9620      9.7280      1.7700     78.3900
     38      4.6450      7.3140      8.9200      0.0100     78.3900
     39      6.3800      7.9570      9.8670      1.5900     78.3900
     40      7.5150      7.5250      9.1250      1.7700     78.3900
     41      7.7340      8.3540      8.4120      0.0100     78.3900
     42      8.7220      7.3030      9.9700      1.6800     78.3900
     43      8.5890      7.0890     11.3210      1.7700     78.3900
     44      7.5710      7.0760     11.7030      0.0100     78.3900
     45      9.6560      6.9310     12.1140      1.7700     78.3900
     46      9.5650      6.8000     13.1900      0.0100     78.3900
     47      9.9880      7.2740      9.3940      1.7700     78.3900
     48     10.0970      7.4000      8.1660      1.5900     78.3900
     49     11.0800      7.1110     10.1770      1.6800     78.3900
     50     10.9420      6.9610     11.5050      1.7700     78.3900
     51     12.0340      6.8340     12.2550      1.6800     78.3900
     52     12.9380      6.8240     11.8200      0.0100     78.3900
     53     11.9840      6.6680     13.2380      0.0100     78.3900
     54      7.1020      6.2990      8.3350      1.7700     78.3900
     55      7.9410      5.5940      8.1690      0.0100     78.3900
     56      6.5540      6.6960      7.0910      1.5900     78.3900
     57      6.2490      5.8920      6.6550      0.0100     78.3900
     58      6.0340      5.6970      9.2410      1.7700     78.3900
     59      6.4950      5.2290     10.1410      0.0100     78.3900
     60      5.0820      4.8330      8.5810      1.5900     78.3900
     61      5.3900      3.2950      8.4790      2.1000     78.3900
     62      5.7930      2.8090      9.8180      1.5900     78.3900
     63      4.2100      2.6490      7.8680      1.5900     78.3900
     64      6.6080      3.1850      7.4910      1.5900     78.3900
     65      6.4370      3.4240      6.0750      1.7700     78.3900
     66      5.9630      4.4120      5.8820      0.0100     78.3900
     67      5.7740      2.6490      5.6210      0.0100     78.3900
     68      7.7840      3.3870      5.3350      1.7700     78.3900
     69      7.6400      3.6370      4.2630      0.0100     78.3900
     70      8.6990      4.3870      5.8870      1.5900     78.3900
     71     10.0240      3.8680      5.8690      1.7700     78.3900
     72     10.6270      4.5940      5.2760      0.0100     78.3900
     73     10.5960      3.7380      7.2460      1.6800     78.3900
     74      9.7730      3.6440      8.3450      1.7700     78.3900
     75      8.7090      3.6370      8.1270      0.0100     78.3900
     76     11.9670      3.7220      7.3930      1.7700     78.3900
     77     12.7390      3.7790      6.4460      1.5900     78.3900
     78     12.4070      3.6460      8.6910      1.6800     78.3900
     79     13.4140      3.5930      8.8090      0.0100     78.3900
     80     11.6440      3.6030      9.8370      1.7700     78.3900
     81     12.1870      3.5700     10.9400      1.5900     78.3900
     82     10.2320      3.6000      9.6040      1.7700     78.3900
     83      9.5600      3.5600     10.4590      0.0100     78.3900
     84      9.9720      2.5420      5.1190      1.7700     78.3900
     85     10.7240      1.8190      5.4920      0.0100     78.3900
     86     10.1540      2.7480      3.7290      1.5900     78.3900
     87     10.0740      1.8770      3.3230      0.0100     78.3900
     88      8.5550      2.0650      5.4130      1.7700     78.3900
     89      8.4740      1.7270      6.4700      0.0100     78.3900
     90      8.0190      1.1110      4.4550      1.5900     78.3900
     91      8.1570     -0.4280      4.7990      2.1000     78.3900
     92      7.7550     -0.6190      6.2070      1.5900     78.3900
     93      7.3600     -1.1660      3.7960      1.5900     78.3900
     94      9.6800     -0.7610      4.5860      1.5900     78.3900
     95     10.2790     -0.7050      3.2700      1.7700     78.3900
     96     10.0420      0.2500      2.7440      0.0100     78.3900
     97      9.8890     -1.5260      2.6290      0.0100     78.3900
     98     11.8100     -0.8370      3.3440      1.7700     78.3900
     99     12.2700     -0.7540      2.3360      0.0100     78.3900
    100     12.3460      0.2460      4.1590      1.5900     78.3900
    101     13.4520     -0.2200      4.9120      1.7700     78.3900
    102     14.3150      0.4150      4.6010      0.0100     78.3900
    103     13.2300     -0.0910      6.3780      1.6800     78.3900
    104     11.9590     -0.0380      6.9030      1.7700     78.3900
    105     11.1510     -0.1630      6.1860      0.0100     78.3900
    106     14.3300     -0.0570      7.2040      1.7700     78.3900
    107     15.4780     -0.1500      6.7820      1.5900     78.3900
    108     14.0500      0.1030      8.5350      1.6800     78.3900
    109     14.8630      0.1250      9.1410      0.0100     78.3900
    110     12.8110      0.2330      9.1220      1.7700     78.3900
    111     12.7110      0.3950     10.3360      1.5900     78.3900
    112     11.7150      0.1600      8.2060      1.7700     78.3900
    113     10.7000      0.2290      8.5910      0.0100     78.3900
    114     13.7160     -1.6530      4.4930      1.7700     78.3900
    115     14.0550     -2.2750      5.3470      0.0100     78.3900
    116     14.6740     -1.6860      3.4480      1.5900     78.3900
    117     14.6020     -2.5510      3.0180      0.0100     78.3900
    118     12.3440     -2.1140      4.0090      1.7700     78.3900
    119     11.6740     -2.3240      4.8740      0.0100     78.3900
    120     12.3910     -3.1970      3.0540      1.5900     78.3900
    121     12.1570     -4.6900      3.4990      2.1000     78.3900
    122     10.7540     -4.8400      3.9430      1.5900     78.3900
    123     12.6240     -5.5980      2.4280      1.5900     78.3900
    124     13.0470     -4.8980      4.7670      1.5900     78.3900
    125     14.4870     -4.9440      4.8000      1.7700     78.3900
    126     14.9300     -4.0500      4.3160      0.0100     78.3900
    127     14.8710     -5.8160      4.2300      0.0100     78.3900
    128     15.0560     -5.0250      6.2380      1.7700     78.3900
    129     16.1530     -4.8370      6.2060      0.0100     78.3900
    130     14.4550     -4.0390      7.1270      1.5900     78.3900
    131     13.6170     -4.7060      8.0600      1.7700     78.3900
    132     14.1980     -4.7590      9.0070      0.0100     78.3900
    133     12.3790     -3.9630      8.2630      1.6800     78.3900
    134     11.9660     -3.3930      9.4360      1.7700     78.3900
    135     12.4380     -2.7210     12.8000      1.6800     78.3900
    136     11.9520     -2.2480     13.5340      0.0100     78.3900
    137     13.2880     -3.2080     13.0140      0.0100     78.3900
    138     12.6140     -3.4460     10.6160      1.6800     78.3900
    139     11.9720     -2.7700     11.5690      1.7700     78.3900
    140     10.7940     -2.1040     11.3610      1.6800     78.3900
    141     10.3670     -1.6330     12.1400      0.0100     78.3900
    142     10.1120     -2.0380     10.1570      1.7700     78.3900
    143      9.0580     -1.4040     10.0500      1.5900     78.3900
    144     10.7750     -2.7660      9.1360      1.7700     78.3900
    145     10.4400     -2.9470      7.8000      1.6800     78.3900
    146     11.4240     -3.6650      7.3210      1.7700     78.3900
    147     11.5140     -3.9900      6.2860      0.0100     78.3900
    148     13.3990     -6.1080      7.5420      1.7700     78.3900
    149     12.6120     -6.1280      6.7580      0.0100     78.3900
    150     13.0880     -7.0460      8.5510      1.5900     78.3900
    151     13.9020     -7.1720      9.0650      0.0100     78.3900
    152     14.7680     -6.3770      6.9280      1.7700     78.3900
    153     14.6340     -7.1610      6.1420      0.0100     78.3900
    154     15.7810     -6.7440      7.9070      1.5900     78.3900
    155     17.1020     -7.4150      7.3620      2.1000     78.3900
    156     16.7420     -8.3590      6.2820      1.5900     78.3900
    157     18.0600     -6.3440      7.0200      1.5900     78.3900
    158     17.6340     -8.2450      8.5880      1.5900     78.3900
    159     18.1620     -7.6530      9.7890      1.7700     78.3900
    160     17.6430     -8.0960     10.6690      0.0100     78.3900
    161     17.9970     -6.5530      9.8400      0.0100     78.3900
    162     19.6630     -7.9400      9.9300      1.7700     78.3900
    163     19.8650     -9.0280      9.8280      0.0100     78.3900
    164     20.4150     -7.2620      8.8870      1.5900     78.3900
    165     21.6020     -6.7160      9.4440      1.7700     78.3900
    166     22.4310     -7.1130      8.8160      0.0100     78.3900
    167     21.6250     -5.2240      9.3870      1.6800     78.3900
    168     20.4430     -4.5260      9.2610      1.7700     78.3900
    169     19.5310     -5.1240      9.1890      0.0100     78.3900
    170     20.4300     -3.1910      9.1730      1.7700     78.3900
    171     19.5090     -2.6240      9.0550      0.0100     78.3900
    172     22.8310     -4.5290      9.4810      1.7700     78.3900
    173     23.8860     -5.1670      9.6360      1.5900     78.3900
    174     22.8350     -3.1760      9.3820      1.6800     78.3900
    175     21.6770     -2.5130      9.2020      1.7700     78.3900
    176     21.6900     -1.1940      9.0560      1.6800     78.3900
    177     22.5070     -0.7310      9.4000      0.0100     78.3900
    178     20.8380     -0.6830      9.1660      0.0100     78.3900
    179     21.7460     -7.2720     10.8510      1.7700     78.3900
    180     22.2620     -6.5630     11.5340      0.0100     78.3900
    181     22.4370     -8.5150     10.8310      1.5900     78.3900
    182     22.4010     -8.8790     11.7310      0.0100     78.3900
    183     20.2830     -7.4480     11.2450      1.7700     78.3900
    184     19.8180     -6.4610     11.4650      0.0100     78.3900
    185     20.0270     -8.4000     12.2940      1.5900     78.3900
    186     20.5000     -8.1150     13.7660      2.1000     78.3900
    187     19.4900     -8.7100     14.6670      1.5900     78.3900
    188     21.8900     -8.5950     13.9200      1.5900     78.3900
    189     20.4670     -6.5500     13.9150      1.5900     78.3900
    190     20.4200     -5.9390     15.2290      1.7700     78.3900
    191     21.3580     -6.1520     15.7940      0.0100     78.3900
    192     19.5710     -6.3480     15.8240      0.0100     78.3900
    193     20.2830     -4.4030     15.1200      1.7700     78.3900
    194     21.2250     -3.9680     14.7260      0.0100     78.3900
    195     19.2040     -4.0280     14.2260      1.5900     78.3900
    196     18.0680     -3.6620     14.9810      1.7700     78.3900
    197     17.9670     -2.5650     14.8260      0.0100     78.3900
    198     16.8680     -4.3820     14.5070      1.6800     78.3900
    199     16.9700     -5.7200     14.1980      1.7700     78.3900
    200     17.9580     -6.1690     14.3190      0.0100     78.3900
    201     15.9180     -6.4040     13.7280      1.7700     78.3900
    202     15.9810     -7.4530     13.4460      0.0100     78.3900
    203     15.6510     -3.7220     14.3720      1.7700     78.3900
    204     15.5730     -2.5210     14.6720      1.5900     78.3900
    205     14.5800     -4.4000     13.8990      1.6800     78.3900
    206     14.6900     -5.6970     13.5660      1.7700     78.3900
    207     13.6220     -6.3210     13.0740      1.6800     78.3900
    208     12.7820     -5.8010     12.9280      0.0100     78.3900
    209     13.6540     -7.2750     12.7840      0.0100     78.3900
    210     18.3870     -3.9120     16.4440      1.7700     78.3900
    211     18.1370     -4.9570     16.7350      0.0100     78.3900
    212     17.7480     -3.0010     17.3140      1.5900     78.3900
    213     18.1440     -2.1310     17.1480      0.0100     78.3900
    214     19.9040     -3.7250     16.4460      1.7700     78.3900
    215     20.3220     -4.3240     17.2900      0.0100     78.3900
    216     20.3280     -2.3360     16.4680      1.5900     78.3900
    217     21.6510     -1.9190     17.2170      2.1000     78.3900
    218     21.3280     -0.7880     18.1170      1.5900     78.3900
    219     22.2650     -3.1090     17.8450      1.5900     78.3900
    220     22.6500     -1.4080     16.1100      1.5900     78.3900
    221     22.5540     -0.0900     15.5240      1.7700     78.3900
    222     23.3810      0.5520     15.9020      0.0100     78.3900
    223     21.5950      0.4210     15.7810      0.0100     78.3900
    224     22.6490     -0.1540     13.9920      1.7700     78.3900
    225     23.6600     -0.4850     13.6670      0.0100     78.3900
    226     21.6920     -1.1300     13.4940      1.5900     78.3900
    227     21.0930     -0.6480     12.3160      1.7700     78.3900
    228     21.2360     -1.4490     11.5650      0.0100     78.3900
    229     19.6610     -0.4130     12.5080      1.6800     78.3900
    230     17.5040     -0.1110     12.2080      1.7700     78.3900
    231     17.7110     -0.1010     13.5810      1.6800     78.3900
    232     18.9980     -0.2990     13.7070      1.7700     78.3900
    233     19.5340     -0.3770     14.6570      0.0100     78.3900
    234     16.4840     -0.0500     10.0770      1.6800     78.3900
    235     17.7080     -0.2080      9.5640      1.7700     78.3900
    236     17.7500     -0.2370      8.4670      0.0100     78.3900
    237     18.8820     -0.3300     10.1970      1.6800     78.3900
    238     18.7010     -0.2930     11.5330      1.7700     78.3900
    239     16.3380      0.0000     11.4240      1.7700     78.3900
    240     15.1020      0.1570     11.9380      1.6800     78.3900
    241     14.9460      0.1440     12.9260      0.0100     78.3900
    242     14.3100      0.2230     11.3270      0.0100     78.3900
    243     21.8380      0.6050     11.9090      1.7700     78.3900
    244     21.1930      1.3310     11.3720      0.0100     78.3900
    245     22.9610      0.2760     11.1120      1.5900     78.3900
    246     23.4650      1.0920     10.9950      0.0100     78.3900
    247     22.2750      1.1500     13.2590      1.7700     78.3900
    248     21.4060      1.5840     13.8060      0.0100     78.3900
    249     23.4070      2.0470     13.2030      1.5900     78.3900
    250     23.1770      3.5970     13.0340      2.1000     78.3900
    251     22.1170      4.0090     13.9780      1.5900     78.3900
    252     24.4920      4.2540     13.1900      1.5900     78.3900
    253     22.6410      3.7810     11.5700      1.5900     78.3900
    254     23.4750      3.5690     10.4120      1.7700     78.3900
    255     24.0200      2.5980     10.4680      0.0100     78.3900
    256     24.2390      4.3760     10.3310      0.0100     78.3900
    257     22.6230      3.5790      9.1270      1.7700     78.3900
    258     23.2420      3.3160      8.2410      0.0100     78.3900
    259     21.5430      2.5960      9.2220      1.5900     78.3900
    260     20.3820      3.1050      8.5800      1.7700     78.3900
    261     20.1060      2.3630      7.7970      0.0100     78.3900
    262     19.2500      3.2500      9.5150      1.6800     78.3900
    263     17.2200      3.3710     10.3600      1.7700     78.3900
    264     18.0940      3.4340     11.4440      1.6800     78.3900
    265     19.2830      3.3630     10.8870      1.7700     78.3900
    266     20.2330      3.3880     11.4260      0.0100     78.3900
    267     15.2520      3.3030      9.0290      1.6800     78.3900
    268     16.0650      3.2110      7.9730      1.7700     78.3900
    269     15.5720      3.1420      6.9940      0.0100     78.3900
    270     17.4010      3.1820      7.9350      1.6800     78.3900
    271     17.9190      3.2660      9.1720      1.7700     78.3900
    272     15.8110      3.3780     10.2680      1.7700     78.3900
    273     15.0090      3.4540     11.3470      1.6800     78.3900
    274     15.3820      3.5140     12.2780      0.0100     78.3900
    275     14.0110      3.4640     11.2350      0.0100     78.3900
    276     20.7680      4.4120      7.9180      1.7700     78.3900
    277     19.9290      5.1340      7.8820      0.0100     78.3900
    278     21.2440      4.1730      6.6070      1.5900     78.3900
    279     21.5640      5.0210      6.2730      0.0100     78.3900
    280     21.8910      4.8980      8.8270      1.7700     78.3900
    281     21.4740      5.2430      9.8020      0.0100     78.3900
    282     22.7950      5.8570      8.2150      1.5900     78.3900
    283     22.4670      7.3940      8.3960      2.1000     78.3900
    284     22.0620      7.6200      9.8000      1.5900     78.3900
    285     23.6350      8.1760      7.9290      1.5900     78.3900
    286     21.2290      7.6640      7.4570      1.5900     78.3900
    287     21.3370      7.5620      6.0170      1.7700     78.3900
    288     21.7920      6.5940      5.7030      0.0100     78.3900
    289     21.9760      8.3780      5.6060      0.0100     78.3900
    290     19.9620      7.6620      5.3460      1.7700     78.3900
    291     20.0490      7.5660      4.2420      0.0100     78.3900
    292     19.1140      6.5750      5.8040      1.5900     78.3900
    293     17.7800      7.0410      5.9140      1.7700     78.3900
    294     17.1550      6.3730      5.2800      0.0100     78.3900
    295     17.2930      6.9710      7.2970      1.6800     78.3900
    296     15.9830      6.9720      7.6930      1.7700     78.3900
    297     12.6060      7.1540      6.9430      1.6800     78.3900
    298     12.6090      7.2430      5.9510      0.0100     78.3900
    299     11.7290      7.2010      7.4290      0.0100     78.3900
    300     14.9080      7.0590      6.8820      1.6800     78.3900
    301     13.7640      7.0480      7.5620      1.7700     78.3900
    302     13.7000      6.9170      8.9240      1.6800     78.3900
    303     12.7910      6.9240      9.3580      0.0100     78.3900
    304     14.7880      6.8080      9.7800      1.7700     78.3900
    305     14.6290      6.6940     10.9980      1.5900     78.3900
    306     16.0160      6.8550      9.0700      1.7700     78.3900
    307     17.3270      6.8080      9.5330      1.6800     78.3900
    308     18.0500      6.8950      8.4450      1.7700     78.3900
    309     19.1420      6.9120      8.4090      0.0100     78.3900
    310     17.7390      8.4490      5.3620      1.7700     78.3900
    311     16.9810      9.0790      5.8680      0.0100     78.3900
    312     17.4760      8.4200      3.9730      1.5900     78.3900
    313     17.4950      9.3360      3.6740      0.0100     78.3900
    314     19.1570      8.9300      5.6510      1.7700     78.3900
    315     19.2830      9.1170      6.7430      0.0100     78.3900
    316     19.6200     10.0240      4.8180      1.5900     78.3900
    317     19.4640     11.4870      5.3860      2.1000     78.3900
    318     19.8730     11.4930      6.8050      1.5900     78.3900
    319     20.1690     12.4590      4.5210      1.5900     78.3900
    320     17.9150     11.7530      5.2910      1.5900     78.3900
    321     17.3020     11.8570      3.9820      1.7700     78.3900
    322     17.4990     10.9570      3.3590      0.0100     78.3900
    323     17.6980     12.7420      3.4300      0.0100     78.3900
    324     15.7850     12.0220      4.1180      1.7700     78.3900
    325     15.3040     12.1230      3.1180      0.0100     78.3900
    326     15.2160     10.8440      4.7560      1.5900     78.3900
    327     14.1640     11.2480      5.6230      1.7700     78.3900
    328     13.2560     10.6950      5.2990      0.0100     78.3900
    329     14.4560     10.9010      7.0230      1.6800     78.3900
    330     13.5420     10.8010      8.0370      1.7700     78.3900
    331     10.2730     10.9940      9.1620      1.6800     78.3900
    332      9.7850     11.3090      8.3500      0.0100     78.3900
    333      9.7720     10.8820     10.0230      0.0100     78.3900
    334     12.2210     11.0270      7.9320      1.6800     78.3900
    335     11.5810     10.8340      9.0830      1.7700     78.3900
    336     12.2180     10.4710     10.2430      1.6800     78.3900
    337     11.6610     10.3620     11.0750      0.0100     78.3900
    338     13.5810     10.2410     10.3840      1.7700     78.3900
    339     14.0740      9.9200     11.4710      1.5900     78.3900
    340     14.2660     10.4330      9.1550      1.7700     78.3900
    341     15.6160     10.3160      8.8530      1.6800     78.3900
    342     15.6840     10.6170      7.5780      1.7700     78.3900
    343     16.5980     10.6580      6.9840      0.0100     78.3900
    344     13.9470     12.7380      5.4300      1.7700     78.3900
    345     13.6330     13.2370      6.3730      0.0100     78.3900
    346     12.9750     12.9600      4.4210      1.5900     78.3900
    347     12.9530     13.9090      4.2100      0.0100     78.3900
    348     15.3390     13.1910      5.0040      1.7700     78.3900
    349     16.0140     13.2340      5.8860      0.0100     78.3900
    350     15.3750     14.4300      4.2720      1.5900     78.3900
    351     15.0970     15.1680      4.8470      0.0100     78.3900

     ----------------------------
     INPUT FOR TESSERA DEFINITION
     ----------------------------
     NTSALL  =        60     MTHALL  =         4
     MTHAUT  =         0     AUTFRE  =    2.0000
     NTSFRZ  =        60     KEEPSM  =         0
     AREAKP  =   10.0000     BONDRY  =    1.0000
     AREATL  =    0.0100

     SPHERE     INITS       METHOD
          1        60       FIXPVA
          2        60       FIXPVA
          3        60       FIXPVA
          4        60       FIXPVA
          5        60       FIXPVA
          6        60       FIXPVA
          7        60       FIXPVA
          8        60       FIXPVA
          9        60       FIXPVA
         10        60       FIXPVA
         11        60       FIXPVA
         12        60       FIXPVA
         13        60       FIXPVA
         14        60       FIXPVA
         15        60       FIXPVA
         16        60       FIXPVA
         17        60       FIXPVA
         18        60       FIXPVA
         19        60       FIXPVA
         20        60       FIXPVA
         21        60       FIXPVA
         22        60       FIXPVA
         23        60       FIXPVA
         24        60       FIXPVA
         25        60       FIXPVA
         26        60       FIXPVA
         27        60       FIXPVA
         28        60       FIXPVA
         29        60       FIXPVA
         30        60       FIXPVA
         31        60       FIXPVA
         32        60       FIXPVA
         33        60       FIXPVA
         34        60       FIXPVA
         35        60       FIXPVA
         36        60       FIXPVA
         37        60       FIXPVA
         38        60       FIXPVA
         39        60       FIXPVA
         40        60       FIXPVA
         41        60       FIXPVA
         42        60       FIXPVA
         43        60       FIXPVA
         44        60       FIXPVA
         45        60       FIXPVA
         46        60       FIXPVA
         47        60       FIXPVA
         48        60       FIXPVA
         49        60       FIXPVA
         50        60       FIXPVA
         51        60       FIXPVA
         52        60       FIXPVA
         53        60       FIXPVA
         54        60       FIXPVA
         55        60       FIXPVA
         56        60       FIXPVA
         57        60       FIXPVA
         58        60       FIXPVA
         59        60       FIXPVA
         60        60       FIXPVA
         61        60       FIXPVA
         62        60       FIXPVA
         63        60       FIXPVA
         64        60       FIXPVA
         65        60       FIXPVA
         66        60       FIXPVA
         67        60       FIXPVA
         68        60       FIXPVA
         69        60       FIXPVA
         70        60       FIXPVA
         71        60       FIXPVA
         72        60       FIXPVA
         73        60       FIXPVA
         74        60       FIXPVA
         75        60       FIXPVA
         76        60       FIXPVA
         77        60       FIXPVA
         78        60       FIXPVA
         79        60       FIXPVA
         80        60       FIXPVA
         81        60       FIXPVA
         82        60       FIXPVA
         83        60       FIXPVA
         84        60       FIXPVA
         85        60       FIXPVA
         86        60       FIXPVA
         87        60       FIXPVA
         88        60       FIXPVA
         89        60       FIXPVA
         90        60       FIXPVA
         91        60       FIXPVA
         92        60       FIXPVA
         93        60       FIXPVA
         94        60       FIXPVA
         95        60       FIXPVA
         96        60       FIXPVA
         97        60       FIXPVA
         98        60       FIXPVA
         99        60       FIXPVA
        100        60       FIXPVA
        101        60       FIXPVA
        102        60       FIXPVA
        103        60       FIXPVA
        104        60       FIXPVA
        105        60       FIXPVA
        106        60       FIXPVA
        107        60       FIXPVA
        108        60       FIXPVA
        109        60       FIXPVA
        110        60       FIXPVA
        111        60       FIXPVA
        112        60       FIXPVA
        113        60       FIXPVA
        114        60       FIXPVA
        115        60       FIXPVA
        116        60       FIXPVA
        117        60       FIXPVA
        118        60       FIXPVA
        119        60       FIXPVA
        120        60       FIXPVA
        121        60       FIXPVA
        122        60       FIXPVA
        123        60       FIXPVA
        124        60       FIXPVA
        125        60       FIXPVA
        126        60       FIXPVA
        127        60       FIXPVA
        128        60       FIXPVA
        129        60       FIXPVA
        130        60       FIXPVA
        131        60       FIXPVA
        132        60       FIXPVA
        133        60       FIXPVA
        134        60       FIXPVA
        135        60       FIXPVA
        136        60       FIXPVA
        137        60       FIXPVA
        138        60       FIXPVA
        139        60       FIXPVA
        140        60       FIXPVA
        141        60       FIXPVA
        142        60       FIXPVA
        143        60       FIXPVA
        144        60       FIXPVA
        145        60       FIXPVA
        146        60       FIXPVA
        147        60       FIXPVA
        148        60       FIXPVA
        149        60       FIXPVA
        150        60       FIXPVA
        151        60       FIXPVA
        152        60       FIXPVA
        153        60       FIXPVA
        154        60       FIXPVA
        155        60       FIXPVA
        156        60       FIXPVA
        157        60       FIXPVA
        158        60       FIXPVA
        159        60       FIXPVA
        160        60       FIXPVA
        161        60       FIXPVA
        162        60       FIXPVA
        163        60       FIXPVA
        164        60       FIXPVA
        165        60       FIXPVA
        166        60       FIXPVA
        167        60       FIXPVA
        168        60       FIXPVA
        169        60       FIXPVA
        170        60       FIXPVA
        171        60       FIXPVA
        172        60       FIXPVA
        173        60       FIXPVA
        174        60       FIXPVA
        175        60       FIXPVA
        176        60       FIXPVA
        177        60       FIXPVA
        178        60       FIXPVA
        179        60       FIXPVA
        180        60       FIXPVA
        181        60       FIXPVA
        182        60       FIXPVA
        183        60       FIXPVA
        184        60       FIXPVA
        185        60       FIXPVA
        186        60       FIXPVA
        187        60       FIXPVA
        188        60       FIXPVA
        189        60       FIXPVA
        190        60       FIXPVA
        191        60       FIXPVA
        192        60       FIXPVA
        193        60       FIXPVA
        194        60       FIXPVA
        195        60       FIXPVA
        196        60       FIXPVA
        197        60       FIXPVA
        198        60       FIXPVA
        199        60       FIXPVA
        200        60       FIXPVA
        201        60       FIXPVA
        202        60       FIXPVA
        203        60       FIXPVA
        204        60       FIXPVA
        205        60       FIXPVA
        206        60       FIXPVA
        207        60       FIXPVA
        208        60       FIXPVA
        209        60       FIXPVA
        210        60       FIXPVA
        211        60       FIXPVA
        212        60       FIXPVA
        213        60       FIXPVA
        214        60       FIXPVA
        215        60       FIXPVA
        216        60       FIXPVA
        217        60       FIXPVA
        218        60       FIXPVA
        219        60       FIXPVA
        220        60       FIXPVA
        221        60       FIXPVA
        222        60       FIXPVA
        223        60       FIXPVA
        224        60       FIXPVA
        225        60       FIXPVA
        226        60       FIXPVA
        227        60       FIXPVA
        228        60       FIXPVA
        229        60       FIXPVA
        230        60       FIXPVA
        231        60       FIXPVA
        232        60       FIXPVA
        233        60       FIXPVA
        234        60       FIXPVA
        235        60       FIXPVA
        236        60       FIXPVA
        237        60       FIXPVA
        238        60       FIXPVA
        239        60       FIXPVA
        240        60       FIXPVA
        241        60       FIXPVA
        242        60       FIXPVA
        243        60       FIXPVA
        244        60       FIXPVA
        245        60       FIXPVA
        246        60       FIXPVA
        247        60       FIXPVA
        248        60       FIXPVA
        249        60       FIXPVA
        250        60       FIXPVA
        251        60       FIXPVA
        252        60       FIXPVA
        253        60       FIXPVA
        254        60       FIXPVA
        255        60       FIXPVA
        256        60       FIXPVA
        257        60       FIXPVA
        258        60       FIXPVA
        259        60       FIXPVA
        260        60       FIXPVA
        261        60       FIXPVA
        262        60       FIXPVA
        263        60       FIXPVA
        264        60       FIXPVA
        265        60       FIXPVA
        266        60       FIXPVA
        267        60       FIXPVA
        268        60       FIXPVA
        269        60       FIXPVA
        270        60       FIXPVA
        271        60       FIXPVA
        272        60       FIXPVA
        273        60       FIXPVA
        274        60       FIXPVA
        275        60       FIXPVA
        276        60       FIXPVA
        277        60       FIXPVA
        278        60       FIXPVA
        279        60       FIXPVA
        280        60       FIXPVA
        281        60       FIXPVA
        282        60       FIXPVA
        283        60       FIXPVA
        284        60       FIXPVA
        285        60       FIXPVA
        286        60       FIXPVA
        287        60       FIXPVA
        288        60       FIXPVA
        289        60       FIXPVA
        290        60       FIXPVA
        291        60       FIXPVA
        292        60       FIXPVA
        293        60       FIXPVA
        294        60       FIXPVA
        295        60       FIXPVA
        296        60       FIXPVA
        297        60       FIXPVA
        298        60       FIXPVA
        299        60       FIXPVA
        300        60       FIXPVA
        301        60       FIXPVA
        302        60       FIXPVA
        303        60       FIXPVA
        304        60       FIXPVA
        305        60       FIXPVA
        306        60       FIXPVA
        307        60       FIXPVA
        308        60       FIXPVA
        309        60       FIXPVA
        310        60       FIXPVA
        311        60       FIXPVA
        312        60       FIXPVA
        313        60       FIXPVA
        314        60       FIXPVA
        315        60       FIXPVA
        316        60       FIXPVA
        317        60       FIXPVA
        318        60       FIXPVA
        319        60       FIXPVA
        320        60       FIXPVA
        321        60       FIXPVA
        322        60       FIXPVA
        323        60       FIXPVA
        324        60       FIXPVA
        325        60       FIXPVA
        326        60       FIXPVA
        327        60       FIXPVA
        328        60       FIXPVA
        329        60       FIXPVA
        330        60       FIXPVA
        331        60       FIXPVA
        332        60       FIXPVA
        333        60       FIXPVA
        334        60       FIXPVA
        335        60       FIXPVA
        336        60       FIXPVA
        337        60       FIXPVA
        338        60       FIXPVA
        339        60       FIXPVA
        340        60       FIXPVA
        341        60       FIXPVA
        342        60       FIXPVA
        343        60       FIXPVA
        344        60       FIXPVA
        345        60       FIXPVA
        346        60       FIXPVA
        347        60       FIXPVA
        348        60       FIXPVA
        349        60       FIXPVA
        350        60       FIXPVA
        351        60       FIXPVA

     ------------------------------
      FIXPVA TESSELLATION FOR PCM
         PEIFENG SU AND HUI LI
     UNIVERSITY OF NEBRASKA-LINCOLN
     ------------------------------


 PCM DIMENSIONS: MXSP=   351, MXTS=     14040, MEMORY=        144264

     INPUT FOR CAVITY DEFINITION 
     ---------------------------
   ATOM               COORDINATES                RADIUS       EPS
      1      6.7580      8.5610     18.0270      0.0100     78.3900
      2      6.8190      8.7670     17.0750      1.5900     78.3900
      3      5.5670      9.3550     16.6880      1.7700     78.3900
      4      5.3960     10.2700     17.2950      0.0100     78.3900
      5      4.7400      8.6430     16.9030      0.0100     78.3900
      6      5.5050      9.7520     15.2060      1.7700     78.3900
      7      4.4960     10.1490     14.9510      0.0100     78.3900
      8      6.4800     10.8050     14.9250      1.5900     78.3900
      9      7.0750     10.5580     13.6550      1.7700     78.3900
     10      6.9130     11.4880     13.0610      0.0100     78.3900
     11      8.5400     10.2940     13.7360      1.6800     78.3900
     12      9.1130      9.9300     14.9340      1.7700     78.3900
     13      8.4390      9.8450     15.7870      0.0100     78.3900
     14     10.4310      9.7180     15.0430      1.7700     78.3900
     15     10.8930      9.4420     15.9880      0.0100     78.3900
     16      9.3370     10.4090     12.6000      1.7700     78.3900
     17      8.8110     10.7120     11.5190      1.5900     78.3900
     18     10.6710     10.2040     12.6920      1.6800     78.3900
     19     11.2260      9.8810     13.8740      1.7700     78.3900
     20     12.5440      9.7030     13.9410      1.6800     78.3900
     21     13.0950      9.7760     13.1060      0.0100     78.3900
     22     12.9950      9.4290     14.7920      0.0100     78.3900
     23      6.3000      9.4280     13.0060      1.7700     78.3900
     24      6.9250      8.8220     12.3230      0.0100     78.3900
     25      5.1920      9.9490     12.3010      1.5900     78.3900
     26      4.6970      9.1870     11.9720      0.0100     78.3900
     27      5.8480      8.6260     14.2210      1.7700     78.3900
     28      6.7140      8.0820     14.6620      0.0100     78.3900
     29      4.6880      7.7800     14.0130      1.5900     78.3900
     30      4.9160      6.2790     13.5860      2.1000     78.3900
     31      5.9930      5.7110     14.4290      1.5900     78.3900
     32      3.6180      5.5610     13.5980      1.5900     78.3900
     33      5.4370      6.3900     12.1110      1.5900     78.3900
     34      4.5580      6.8170     11.0470      1.7700     78.3900
     35      4.0790      7.7960     11.2730      0.0100     78.3900
     36      3.7400      6.0730     10.8930      0.0100     78.3900
     37      5.3230      6.9620      9.7280      1.7700     78.3900
     38      4.6450      7.3140      8.9200      0.0100     78.3900
     39      6.3800      7.9570      9.8670      1.5900     78.3900
     40      7.5150      7.5250      9.1250      1.7700     78.3900
     41      7.7340      8.3540      8.4120      0.0100     78.3900
     42      8.7220      7.3030      9.9700      1.6800     78.3900
     43      8.5890      7.0890     11.3210      1.7700     78.3900
     44      7.5710      7.0760     11.7030      0.0100     78.3900
     45      9.6560      6.9310     12.1140      1.7700     78.3900
     46      9.5650      6.8000     13.1900      0.0100     78.3900
     47      9.9880      7.2740      9.3940      1.7700     78.3900
     48     10.0970      7.4000      8.1660      1.5900     78.3900
     49     11.0800      7.1110     10.1770      1.6800     78.3900
     50     10.9420      6.9610     11.5050      1.7700     78.3900
     51     12.0340      6.8340     12.2550      1.6800     78.3900
     52     12.9380      6.8240     11.8200      0.0100     78.3900
     53     11.9840      6.6680     13.2380      0.0100     78.3900
     54      7.1020      6.2990      8.3350      1.7700     78.3900
     55      7.9410      5.5940      8.1690      0.0100     78.3900
     56      6.5540      6.6960      7.0910      1.5900     78.3900
     57      6.2490      5.8920      6.6550      0.0100     78.3900
     58      6.0340      5.6970      9.2410      1.7700     78.3900
     59      6.4950      5.2290     10.1410      0.0100     78.3900
     60      5.0820      4.8330      8.5810      1.5900     78.3900
     61      5.3900      3.2950      8.4790      2.1000     78.3900
     62      5.7930      2.8090      9.8180      1.5900     78.3900
     63      4.2100      2.6490      7.8680      1.5900     78.3900
     64      6.6080      3.1850      7.4910      1.5900     78.3900
     65      6.4370      3.4240      6.0750      1.7700     78.3900
     66      5.9630      4.4120      5.8820      0.0100     78.3900
     67      5.7740      2.6490      5.6210      0.0100     78.3900
     68      7.7840      3.3870      5.3350      1.7700     78.3900
     69      7.6400      3.6370      4.2630      0.0100     78.3900
     70      8.6990      4.3870      5.8870      1.5900     78.3900
     71     10.0240      3.8680      5.8690      1.7700     78.3900
     72     10.6270      4.5940      5.2760      0.0100     78.3900
     73     10.5960      3.7380      7.2460      1.6800     78.3900
     74      9.7730      3.6440      8.3450      1.7700     78.3900
     75      8.7090      3.6370      8.1270      0.0100     78.3900
     76     11.9670      3.7220      7.3930      1.7700     78.3900
     77     12.7390      3.7790      6.4460      1.5900     78.3900
     78     12.4070      3.6460      8.6910      1.6800     78.3900
     79     13.4140      3.5930      8.8090      0.0100     78.3900
     80     11.6440      3.6030      9.8370      1.7700     78.3900
     81     12.1870      3.5700     10.9400      1.5900     78.3900
     82     10.2320      3.6000      9.6040      1.7700     78.3900
     83      9.5600      3.5600     10.4590      0.0100     78.3900
     84      9.9720      2.5420      5.1190      1.7700     78.3900
     85     10.7240      1.8190      5.4920      0.0100     78.3900
     86     10.1540      2.7480      3.7290      1.5900     78.3900
     87     10.0740      1.8770      3.3230      0.0100     78.3900
     88      8.5550      2.0650      5.4130      1.7700     78.3900
     89      8.4740      1.7270      6.4700      0.0100     78.3900
     90      8.0190      1.1110      4.4550      1.5900     78.3900
     91      8.1570     -0.4280      4.7990      2.1000     78.3900
     92      7.7550     -0.6190      6.2070      1.5900     78.3900
     93      7.3600     -1.1660      3.7960      1.5900     78.3900
     94      9.6800     -0.7610      4.5860      1.5900     78.3900
     95     10.2790     -0.7050      3.2700      1.7700     78.3900
     96     10.0420      0.2500      2.7440      0.0100     78.3900
     97      9.8890     -1.5260      2.6290      0.0100     78.3900
     98     11.8100     -0.8370      3.3440      1.7700     78.3900
     99     12.2700     -0.7540      2.3360      0.0100     78.3900
    100     12.3460      0.2460      4.1590      1.5900     78.3900
    101     13.4520     -0.2200      4.9120      1.7700     78.3900
    102     14.3150      0.4150      4.6010      0.0100     78.3900
    103     13.2300     -0.0910      6.3780      1.6800     78.3900
    104     11.9590     -0.0380      6.9030      1.7700     78.3900
    105     11.1510     -0.1630      6.1860      0.0100     78.3900
    106     14.3300     -0.0570      7.2040      1.7700     78.3900
    107     15.4780     -0.1500      6.7820      1.5900     78.3900
    108     14.0500      0.1030      8.5350      1.6800     78.3900
    109     14.8630      0.1250      9.1410      0.0100     78.3900
    110     12.8110      0.2330      9.1220      1.7700     78.3900
    111     12.7110      0.3950     10.3360      1.5900     78.3900
    112     11.7150      0.1600      8.2060      1.7700     78.3900
    113     10.7000      0.2290      8.5910      0.0100     78.3900
    114     13.7160     -1.6530      4.4930      1.7700     78.3900
    115     14.0550     -2.2750      5.3470      0.0100     78.3900
    116     14.6740     -1.6860      3.4480      1.5900     78.3900
    117     14.6020     -2.5510      3.0180      0.0100     78.3900
    118     12.3440     -2.1140      4.0090      1.7700     78.3900
    119     11.6740     -2.3240      4.8740      0.0100     78.3900
    120     12.3910     -3.1970      3.0540      1.5900     78.3900
    121     12.1570     -4.6900      3.4990      2.1000     78.3900
    122     10.7540     -4.8400      3.9430      1.5900     78.3900
    123     12.6240     -5.5980      2.4280      1.5900     78.3900
    124     13.0470     -4.8980      4.7670      1.5900     78.3900
    125     14.4870     -4.9440      4.8000      1.7700     78.3900
    126     14.9300     -4.0500      4.3160      0.0100     78.3900
    127     14.8710     -5.8160      4.2300      0.0100     78.3900
    128     15.0560     -5.0250      6.2380      1.7700     78.3900
    129     16.1530     -4.8370      6.2060      0.0100     78.3900
    130     14.4550     -4.0390      7.1270      1.5900     78.3900
    131     13.6170     -4.7060      8.0600      1.7700     78.3900
    132     14.1980     -4.7590      9.0070      0.0100     78.3900
    133     12.3790     -3.9630      8.2630      1.6800     78.3900
    134     11.9660     -3.3930      9.4360      1.7700     78.3900
    135     12.4380     -2.7210     12.8000      1.6800     78.3900
    136     11.9520     -2.2480     13.5340      0.0100     78.3900
    137     13.2880     -3.2080     13.0140      0.0100     78.3900
    138     12.6140     -3.4460     10.6160      1.6800     78.3900
    139     11.9720     -2.7700     11.5690      1.7700     78.3900
    140     10.7940     -2.1040     11.3610      1.6800     78.3900
    141     10.3670     -1.6330     12.1400      0.0100     78.3900
    142     10.1120     -2.0380     10.1570      1.7700     78.3900
    143      9.0580     -1.4040     10.0500      1.5900     78.3900
    144     10.7750     -2.7660      9.1360      1.7700     78.3900
    145     10.4400     -2.9470      7.8000      1.6800     78.3900
    146     11.4240     -3.6650      7.3210      1.7700     78.3900
    147     11.5140     -3.9900      6.2860      0.0100     78.3900
    148     13.3990     -6.1080      7.5420      1.7700     78.3900
    149     12.6120     -6.1280      6.7580      0.0100     78.3900
    150     13.0880     -7.0460      8.5510      1.5900     78.3900
    151     13.9020     -7.1720      9.0650      0.0100     78.3900
    152     14.7680     -6.3770      6.9280      1.7700     78.3900
    153     14.6340     -7.1610      6.1420      0.0100     78.3900
    154     15.7810     -6.7440      7.9070      1.5900     78.3900
    155     17.1020     -7.4150      7.3620      2.1000     78.3900
    156     16.7420     -8.3590      6.2820      1.5900     78.3900
    157     18.0600     -6.3440      7.0200      1.5900     78.3900
    158     17.6340     -8.2450      8.5880      1.5900     78.3900
    159     18.1620     -7.6530      9.7890      1.7700     78.3900
    160     17.6430     -8.0960     10.6690      0.0100     78.3900
    161     17.9970     -6.5530      9.8400      0.0100     78.3900
    162     19.6630     -7.9400      9.9300      1.7700     78.3900
    163     19.8650     -9.0280      9.8280      0.0100     78.3900
    164     20.4150     -7.2620      8.8870      1.5900     78.3900
    165     21.6020     -6.7160      9.4440      1.7700     78.3900
    166     22.4310     -7.1130      8.8160      0.0100     78.3900
    167     21.6250     -5.2240      9.3870      1.6800     78.3900
    168     20.4430     -4.5260      9.2610      1.7700     78.3900
    169     19.5310     -5.1240      9.1890      0.0100     78.3900
    170     20.4300     -3.1910      9.1730      1.7700     78.3900
    171     19.5090     -2.6240      9.0550      0.0100     78.3900
    172     22.8310     -4.5290      9.4810      1.7700     78.3900
    173     23.8860     -5.1670      9.6360      1.5900     78.3900
    174     22.8350     -3.1760      9.3820      1.6800     78.3900
    175     21.6770     -2.5130      9.2020      1.7700     78.3900
    176     21.6900     -1.1940      9.0560      1.6800     78.3900
    177     22.5070     -0.7310      9.4000      0.0100     78.3900
    178     20.8380     -0.6830      9.1660      0.0100     78.3900
    179     21.7460     -7.2720     10.8510      1.7700     78.3900
    180     22.2620     -6.5630     11.5340      0.0100     78.3900
    181     22.4370     -8.5150     10.8310      1.5900     78.3900
    182     22.4010     -8.8790     11.7310      0.0100     78.3900
    183     20.2830     -7.4480     11.2450      1.7700     78.3900
    184     19.8180     -6.4610     11.4650      0.0100     78.3900
    185     20.0270     -8.4000     12.2940      1.5900     78.3900
    186     20.5000     -8.1150     13.7660      2.1000     78.3900
    187     19.4900     -8.7100     14.6670      1.5900     78.3900
    188     21.8900     -8.5950     13.9200      1.5900     78.3900
    189     20.4670     -6.5500     13.9150      1.5900     78.3900
    190     20.4200     -5.9390     15.2290      1.7700     78.3900
    191     21.3580     -6.1520     15.7940      0.0100     78.3900
    192     19.5710     -6.3480     15.8240      0.0100     78.3900
    193     20.2830     -4.4030     15.1200      1.7700     78.3900
    194     21.2250     -3.9680     14.7260      0.0100     78.3900
    195     19.2040     -4.0280     14.2260      1.5900     78.3900
    196     18.0680     -3.6620     14.9810      1.7700     78.3900
    197     17.9670     -2.5650     14.8260      0.0100     78.3900
    198     16.8680     -4.3820     14.5070      1.6800     78.3900
    199     16.9700     -5.7200     14.1980      1.7700     78.3900
    200     17.9580     -6.1690     14.3190      0.0100     78.3900
    201     15.9180     -6.4040     13.7280      1.7700     78.3900
    202     15.9810     -7.4530     13.4460      0.0100     78.3900
    203     15.6510     -3.7220     14.3720      1.7700     78.3900
    204     15.5730     -2.5210     14.6720      1.5900     78.3900
    205     14.5800     -4.4000     13.8990      1.6800     78.3900
    206     14.6900     -5.6970     13.5660      1.7700     78.3900
    207     13.6220     -6.3210     13.0740      1.6800     78.3900
    208     12.7820     -5.8010     12.9280      0.0100     78.3900
    209     13.6540     -7.2750     12.7840      0.0100     78.3900
    210     18.3870     -3.9120     16.4440      1.7700     78.3900
    211     18.1370     -4.9570     16.7350      0.0100     78.3900
    212     17.7480     -3.0010     17.3140      1.5900     78.3900
    213     18.1440     -2.1310     17.1480      0.0100     78.3900
    214     19.9040     -3.7250     16.4460      1.7700     78.3900
    215     20.3220     -4.3240     17.2900      0.0100     78.3900
    216     20.3280     -2.3360     16.4680      1.5900     78.3900
    217     21.6510     -1.9190     17.2170      2.1000     78.3900
    218     21.3280     -0.7880     18.1170      1.5900     78.3900
    219     22.2650     -3.1090     17.8450      1.5900     78.3900
    220     22.6500     -1.4080     16.1100      1.5900     78.3900
    221     22.5540     -0.0900     15.5240      1.7700     78.3900
    222     23.3810      0.5520     15.9020      0.0100     78.3900
    223     21.5950      0.4210     15.7810      0.0100     78.3900
    224     22.6490     -0.1540     13.9920      1.7700     78.3900
    225     23.6600     -0.4850     13.6670      0.0100     78.3900
    226     21.6920     -1.1300     13.4940      1.5900     78.3900
    227     21.0930     -0.6480     12.3160      1.7700     78.3900
    228     21.2360     -1.4490     11.5650      0.0100     78.3900
    229     19.6610     -0.4130     12.5080      1.6800     78.3900
    230     17.5040     -0.1110     12.2080      1.7700     78.3900
    231     17.7110     -0.1010     13.5810      1.6800     78.3900
    232     18.9980     -0.2990     13.7070      1.7700     78.3900
    233     19.5340     -0.3770     14.6570      0.0100     78.3900
    234     16.4840     -0.0500     10.0770      1.6800     78.3900
    235     17.7080     -0.2080      9.5640      1.7700     78.3900
    236     17.7500     -0.2370      8.4670      0.0100     78.3900
    237     18.8820     -0.3300     10.1970      1.6800     78.3900
    238     18.7010     -0.2930     11.5330      1.7700     78.3900
    239     16.3380      0.0000     11.4240      1.7700     78.3900
    240     15.1020      0.1570     11.9380      1.6800     78.3900
    241     14.9460      0.1440     12.9260      0.0100     78.3900
    242     14.3100      0.2230     11.3270      0.0100     78.3900
    243     21.8380      0.6050     11.9090      1.7700     78.3900
    244     21.1930      1.3310     11.3720      0.0100     78.3900
    245     22.9610      0.2760     11.1120      1.5900     78.3900
    246     23.4650      1.0920     10.9950      0.0100     78.3900
    247     22.2750      1.1500     13.2590      1.7700     78.3900
    248     21.4060      1.5840     13.8060      0.0100     78.3900
    249     23.4070      2.0470     13.2030      1.5900     78.3900
    250     23.1770      3.5970     13.0340      2.1000     78.3900
    251     22.1170      4.0090     13.9780      1.5900     78.3900
    252     24.4920      4.2540     13.1900      1.5900     78.3900
    253     22.6410      3.7810     11.5700      1.5900     78.3900
    254     23.4750      3.5690     10.4120      1.7700     78.3900
    255     24.0200      2.5980     10.4680      0.0100     78.3900
    256     24.2390      4.3760     10.3310      0.0100     78.3900
    257     22.6230      3.5790      9.1270      1.7700     78.3900
    258     23.2420      3.3160      8.2410      0.0100     78.3900
    259     21.5430      2.5960      9.2220      1.5900     78.3900
    260     20.3820      3.1050      8.5800      1.7700     78.3900
    261     20.1060      2.3630      7.7970      0.0100     78.3900
    262     19.2500      3.2500      9.5150      1.6800     78.3900
    263     17.2200      3.3710     10.3600      1.7700     78.3900
    264     18.0940      3.4340     11.4440      1.6800     78.3900
    265     19.2830      3.3630     10.8870      1.7700     78.3900
    266     20.2330      3.3880     11.4260      0.0100     78.3900
    267     15.2520      3.3030      9.0290      1.6800     78.3900
    268     16.0650      3.2110      7.9730      1.7700     78.3900
    269     15.5720      3.1420      6.9940      0.0100     78.3900
    270     17.4010      3.1820      7.9350      1.6800     78.3900
    271     17.9190      3.2660      9.1720      1.7700     78.3900
    272     15.8110      3.3780     10.2680      1.7700     78.3900
    273     15.0090      3.4540     11.3470      1.6800     78.3900
    274     15.3820      3.5140     12.2780      0.0100     78.3900
    275     14.0110      3.4640     11.2350      0.0100     78.3900
    276     20.7680      4.4120      7.9180      1.7700     78.3900
    277     19.9290      5.1340      7.8820      0.0100     78.3900
    278     21.2440      4.1730      6.6070      1.5900     78.3900
    279     21.5640      5.0210      6.2730      0.0100     78.3900
    280     21.8910      4.8980      8.8270      1.7700     78.3900
    281     21.4740      5.2430      9.8020      0.0100     78.3900
    282     22.7950      5.8570      8.2150      1.5900     78.3900
    283     22.4670      7.3940      8.3960      2.1000     78.3900
    284     22.0620      7.6200      9.8000      1.5900     78.3900
    285     23.6350      8.1760      7.9290      1.5900     78.3900
    286     21.2290      7.6640      7.4570      1.5900     78.3900
    287     21.3370      7.5620      6.0170      1.7700     78.3900
    288     21.7920      6.5940      5.7030      0.0100     78.3900
    289     21.9760      8.3780      5.6060      0.0100     78.3900
    290     19.9620      7.6620      5.3460      1.7700     78.3900
    291     20.0490      7.5660      4.2420      0.0100     78.3900
    292     19.1140      6.5750      5.8040      1.5900     78.3900
    293     17.7800      7.0410      5.9140      1.7700     78.3900
    294     17.1550      6.3730      5.2800      0.0100     78.3900
    295     17.2930      6.9710      7.2970      1.6800     78.3900
    296     15.9830      6.9720      7.6930      1.7700     78.3900
    297     12.6060      7.1540      6.9430      1.6800     78.3900
    298     12.6090      7.2430      5.9510      0.0100     78.3900
    299     11.7290      7.2010      7.4290      0.0100     78.3900
    300     14.9080      7.0590      6.8820      1.6800     78.3900
    301     13.7640      7.0480      7.5620      1.7700     78.3900
    302     13.7000      6.9170      8.9240      1.6800     78.3900
    303     12.7910      6.9240      9.3580      0.0100     78.3900
    304     14.7880      6.8080      9.7800      1.7700     78.3900
    305     14.6290      6.6940     10.9980      1.5900     78.3900
    306     16.0160      6.8550      9.0700      1.7700     78.3900
    307     17.3270      6.8080      9.5330      1.6800     78.3900
    308     18.0500      6.8950      8.4450      1.7700     78.3900
    309     19.1420      6.9120      8.4090      0.0100     78.3900
    310     17.7390      8.4490      5.3620      1.7700     78.3900
    311     16.9810      9.0790      5.8680      0.0100     78.3900
    312     17.4760      8.4200      3.9730      1.5900     78.3900
    313     17.4950      9.3360      3.6740      0.0100     78.3900
    314     19.1570      8.9300      5.6510      1.7700     78.3900
    315     19.2830      9.1170      6.7430      0.0100     78.3900
    316     19.6200     10.0240      4.8180      1.5900     78.3900
    317     19.4640     11.4870      5.3860      2.1000     78.3900
    318     19.8730     11.4930      6.8050      1.5900     78.3900
    319     20.1690     12.4590      4.5210      1.5900     78.3900
    320     17.9150     11.7530      5.2910      1.5900     78.3900
    321     17.3020     11.8570      3.9820      1.7700     78.3900
    322     17.4990     10.9570      3.3590      0.0100     78.3900
    323     17.6980     12.7420      3.4300      0.0100     78.3900
    324     15.7850     12.0220      4.1180      1.7700     78.3900
    325     15.3040     12.1230      3.1180      0.0100     78.3900
    326     15.2160     10.8440      4.7560      1.5900     78.3900
[...]
      7 F7       -1   31   1   79  341 1  1 G RHF             0      -1      -1
      8 F8       -1   33   1   85  371 1  1 G RHF             0      -1      -1
      9 F9       -1   33   1   85  371 1  1 G RHF             0      -1      -1
     10 F10      -1   34   1   89  386 1  1 G RHF             0      -1      -1
     11 F11       0   31   0   69  309 1  1 G RHF             0      -1      -1

 Close fragment pairs, distance relative to vdW radii

 CPU     0: STEP CPU TIME=     0.00 TOTAL CPU TIME=          2.2 (      0.0 MIN)
 TOTAL WALL CLOCK TIME=          5.5 SECONDS, CPU UTILIZATION IS    40.95%
 dmexch needs              4153986  words of memory.
 CPU     0: STEP CPU TIME=     0.02 TOTAL CPU TIME=          2.3 (      0.0 MIN)
 TOTAL WALL CLOCK TIME=          5.5 SECONDS, CPU UTILIZATION IS    40.94%

 Data exchange of   1375965 words took     0.0 s.

 RHF      monomer      5 corr= NONE       , L1=   386, L0=   362 ID=      1


 AO spaces for     5     0     0 n-mer: L1=   386, L0=   362

 DIRECT SCF CALCULATION, SCHWRZ=T   FDIFF=T,  DIRTHR=  0.00E+00 NITDIR=10

                                                                                   NONZERO     BLOCKS
 ITER EX DEM     TOTAL ENERGY        E CHANGE  DENSITY CHANGE     ORB. GRAD      INTEGRALS    SKIPPED
   1  0  0  1243628.2024232631*****************   0.514524577   0.000000000      852574388   18188170
          ---------------START SECOND ORDER SCF---------------
   2  1  0    -1447.7557496110*****************   0.385057771   0.120571263      858303063   18184203
   3  2  0    -1447.9919962362    -0.2362466252   0.177103443   0.090070456      851634464   18420208
   4  3  0    -1448.5252060025    -0.5332097663   0.116165180   0.018963883      837423842   18719454
   5  4  0    -1448.5409938827    -0.0157878802   0.028330418   0.010901310      821696493   18957009
   6  5  0    -1448.5444840120    -0.0034901293   0.007140125   0.002031696      792799969   19312202
   7  6  0    -1448.5447314193    -0.0002474073   0.003129278   0.001092114      766242381   19593499
   8  7  0    -1448.5448178225    -0.0000864032   0.000837925   0.000278427      739248590   19857457
   9  8  0    -1448.5448237340    -0.0000059115   0.000370342   0.000121528      701143238   20185696
  10  9  0    -1448.5448252425    -0.0000015084   0.000114837   0.000058603      668919420   20465415
  11 10  0    -1448.5448253944    -0.0000001519   0.000070675   0.000020879      630247497   20814864
  12 11  0    -1448.5448254279    -0.0000000335   0.000019994   0.000008038      600556915   21058806
  13 12  0    -1448.5448254328    -0.0000000049   0.000007728   0.000002627      566265505   21332090
  14 13  0    -1448.5448254349    -0.0000000021   0.000002673   0.000001058      525041034   21676229
  15 14  0    -1448.5448254351    -0.0000000002   0.000001335   0.000000555      487969496   21991194
  16 15  0    -1448.5448254342     0.0000000009   0.000000547   0.000000150      452129906   22269752
  17 16  0    -1448.5448254342    -0.0000000000   0.000000238   0.000000067      413155141   22575494
  18 17  0    -1448.5448254346    -0.0000000005   0.000000053   0.000000021      373542492   22890593

          -----------------
          DENSITY CONVERGED
          -----------------
     TIME TO FORM FOCK OPERATORS=      40.7 SECONDS (       2.3 SEC/ITER)
     FOCK TIME ON FIRST ITERATION=       3.0, LAST ITERATION=       1.1
     TIME TO SOLVE SCF EQUATIONS=       0.7 SECONDS (       0.0 SEC/ITER)

 FINAL RHF ENERGY IS    -1448.5448254346 AFTER  18 ITERATIONS
 ...... END OF RHF CALCULATION ......
 CPU     0: STEP CPU TIME=    73.02 TOTAL CPU TIME=         75.3 (      1.3 MIN)
 TOTAL WALL CLOCK TIME=        145.9 SECONDS, CPU UTILIZATION IS    51.60%
 DONE PCM POT.
 CPU     0: STEP CPU TIME=     0.42 TOTAL CPU TIME=         75.7 (      1.3 MIN)
 TOTAL WALL CLOCK TIME=        147.2 SECONDS, CPU UTILIZATION IS    51.43%

 Iter=  1 iFrag=      5 EFMO= -1507.046406981, DD= 0.477730795, DE=************


 RHF      monomer     10 corr= NONE       , L1=   386, L0=   362 ID=      2


 AO spaces for    10     0     0 n-mer: L1=   386, L0=   362

 DIRECT SCF CALCULATION, SCHWRZ=T   FDIFF=T,  DIRTHR=  0.00E+00 NITDIR=10

                                                                                   NONZERO     BLOCKS
 ITER EX DEM     TOTAL ENERGY        E CHANGE  DENSITY CHANGE     ORB. GRAD      INTEGRALS    SKIPPED
   1  0  0  1265549.0970232368*****************   0.531135619   0.000000000      893715386   17636784
          ---------------START SECOND ORDER SCF---------------
   2  1  0    -1449.4575142263*****************   0.421548850   0.103241775      898079808   17630367
   3  2  0    -1449.6872640888    -0.2297498625   0.178416646   0.074681442      893152517   17875748
   4  3  0    -1450.2470315567    -0.5597674679   0.099169289   0.017969588      882204579   18193396
   5  4  0    -1450.2632424549    -0.0162108982   0.024693508   0.009357039      867973489   18466997
   6  5  0    -1450.2663006125    -0.0030581576   0.005870430   0.001929368      843505266   18841616
   7  6  0    -1450.2664966683    -0.0001960558   0.002482474   0.001168988      815267676   19190967
   8  7  0    -1450.2665652946    -0.0000686263   0.000876642   0.000208144      788851257   19475848
   9  8  0    -1450.2665699598    -0.0000046652   0.000412266   0.000133012      750619428   19831163
  10  9  0    -1450.2665712210    -0.0000012612   0.000129367   0.000032934      712479257   20177993
  11 10  0    -1450.2665713592    -0.0000001382   0.000069127   0.000025548      676880015   20489419
  12 11  0    -1450.2665713874    -0.0000000281   0.000022053   0.000012182      644547068   20753221
  13 12  0    -1450.2665713917    -0.0000000044   0.000007576   0.000004139      605603187   21072962
  14 13  0    -1450.2665713933    -0.0000000016   0.000003697   0.000001413      565362362   21404278
  15 14  0    -1450.2665713938    -0.0000000005   0.000001495   0.000000556      525819674   21738352
  16 15  0    -1450.2665713939    -0.0000000001   0.000000692   0.000000144      488759652   22032938
  17 16  0    -1450.2665713932     0.0000000008   0.000000225   0.000000141      446342257   22355928
  18 17  0    -1450.2665713943    -0.0000000012   0.000000083   0.000000029      404641138   22690722

          -----------------
          DENSITY CONVERGED
          -----------------
     TIME TO FORM FOCK OPERATORS=      42.4 SECONDS (       2.4 SEC/ITER)
     FOCK TIME ON FIRST ITERATION=       2.8, LAST ITERATION=       1.4
     TIME TO SOLVE SCF EQUATIONS=       0.7 SECONDS (       0.0 SEC/ITER)

 FINAL RHF ENERGY IS    -1450.2665713943 AFTER  18 ITERATIONS
 ...... END OF RHF CALCULATION ......
 CPU     0: STEP CPU TIME=    68.49 TOTAL CPU TIME=        144.2 (      2.4 MIN)
 TOTAL WALL CLOCK TIME=        286.0 SECONDS, CPU UTILIZATION IS    50.41%
 DONE PCM POT.
 CPU     0: STEP CPU TIME=     0.46 TOTAL CPU TIME=        144.7 (      2.4 MIN)
 TOTAL WALL CLOCK TIME=        287.4 SECONDS, CPU UTILIZATION IS    50.33%

 Iter=  1 iFrag=     10 EFMO= -1506.987825618, DD= 0.461388179, DE=************


 RHF      monomer      8 corr= NONE       , L1=   371, L0=   348 ID=      3


 AO spaces for     8     0     0 n-mer: L1=   371, L0=   348

 DIRECT SCF CALCULATION, SCHWRZ=T   FDIFF=T,  DIRTHR=  0.00E+00 NITDIR=10

                                                                                   NONZERO     BLOCKS
 ITER EX DEM     TOTAL ENERGY        E CHANGE  DENSITY CHANGE     ORB. GRAD      INTEGRALS    SKIPPED
   1  0  0  1390718.2036942185*****************   0.532606966   0.000000000      813295935   14918531
          ---------------START SECOND ORDER SCF---------------
   2  1  0    -1375.5836303231*****************   0.427820242   0.090983873      816895375   14915288
   3  2  0    -1375.8551012472    -0.2714709241   0.175473214   0.077685430      812753621   15155132
   4  3  0    -1376.2561028259    -0.4010015787   0.059883328   0.012509691      803533314   15449464
   5  4  0    -1376.2659944772    -0.0098916513   0.017518748   0.006892797      788244444   15748041
   6  5  0    -1376.2683479169    -0.0023534398   0.004045858   0.002456400      769006638   16047455
   7  6  0    -1376.2685850099    -0.0002370930   0.001439672   0.000915842      744012537   16359588
   8  7  0    -1376.2686373660    -0.0000523561   0.001127000   0.000407404      718641648   16628600
   9  8  0    -1376.2686463013    -0.0000089353   0.000567224   0.000185162      694123384   16869265
  10  9  0    -1376.2686484220    -0.0000021207   0.000189355   0.000060534      666200187   17150082
  11 10  0    -1376.2686487339    -0.0000003119   0.000107049   0.000041314      644046630   17320212
  12 11  0    -1376.2686487936    -0.0000000596   0.000031841   0.000013695      614693837   17566590
  13 12  0    -1376.2686488024    -0.0000000088   0.000009098   0.000003471      570165919   17974701
  14 13  0    -1376.2686488041    -0.0000000017   0.000004072   0.000001547      537481133   18254608
  15 14  0    -1376.2686488050    -0.0000000010   0.000001805   0.000000676      497674392   18603870
  16 15  0    -1376.2686488035     0.0000000016   0.000000697   0.000000235      461369656   18913827
  17 16  0    -1376.2686488049    -0.0000000014   0.000000250   0.000000089      425449367   19184864
  18 17  0    -1376.2686488045     0.0000000004   0.000000088   0.000000027      390835604   19459267

          -----------------
          DENSITY CONVERGED
          -----------------
     TIME TO FORM FOCK OPERATORS=      36.8 SECONDS (       2.0 SEC/ITER)
     FOCK TIME ON FIRST ITERATION=       2.5, LAST ITERATION=       1.4
     TIME TO SOLVE SCF EQUATIONS=       0.6 SECONDS (       0.0 SEC/ITER)

 FINAL RHF ENERGY IS    -1376.2686488045 AFTER  18 ITERATIONS
 ...... END OF RHF CALCULATION ......
 CPU     0: STEP CPU TIME=    70.22 TOTAL CPU TIME=        214.9 (      3.6 MIN)
 TOTAL WALL CLOCK TIME=        428.1 SECONDS, CPU UTILIZATION IS    50.19%
 DONE PCM POT.
 CPU     0: STEP CPU TIME=     0.43 TOTAL CPU TIME=        215.3 (      3.6 MIN)
 TOTAL WALL CLOCK TIME=        429.3 SECONDS, CPU UTILIZATION IS    50.15%

 Iter=  1 iFrag=      8 EFMO= -1432.137807100, DD= 0.429192025, DE=************


 RHF      monomer      9 corr= NONE       , L1=   371, L0=   348 ID=      4


 AO spaces for     9     0     0 n-mer: L1=   371, L0=   348

 DIRECT SCF CALCULATION, SCHWRZ=T   FDIFF=T,  DIRTHR=  0.00E+00 NITDIR=10

                                                                                   NONZERO     BLOCKS
 ITER EX DEM     TOTAL ENERGY        E CHANGE  DENSITY CHANGE     ORB. GRAD      INTEGRALS    SKIPPED
   1  0  0  1251069.7184667967*****************   0.528767175   0.000000000      796888149   15096538
          ---------------START SECOND ORDER SCF---------------
   2  1  0    -1372.6739774931*****************   0.417950353   0.106026101      800461847   15097633
   3  2  0    -1372.9296795132    -0.2557020201   0.175357721   0.079905483      795475502   15360931
   4  3  0    -1373.2757317693    -0.3460522561   0.055795465   0.010553835      785601817   15652387
   5  4  0    -1373.2839753199    -0.0082435506   0.015440086   0.005585592      769757221   15952865
   6  5  0    -1373.2854226477    -0.0014473278   0.003791050   0.002682232      750399009   16242402
   7  6  0    -1373.2856237939    -0.0002011462   0.001182397   0.000822358      724788957   16556612
   8  7  0    -1373.2856601218    -0.0000363279   0.001062066   0.000392463      698674473   16829574
   9  8  0    -1373.2856671556    -0.0000070338   0.000484516   0.000124160      675339771   17061956
  10  9  0    -1373.2856686212    -0.0000014656   0.000135717   0.000041592      644528825   17355669
  11 10  0    -1373.2856688377    -0.0000002165   0.000045732   0.000016228      622228638   17523337
  12 11  0    -1373.2856688666    -0.0000000289   0.000024790   0.000010998      589918876   17800829
  13 12  0    -1373.2856688729    -0.0000000063   0.000007068   0.000002809      545949341   18195362
  14 13  0    -1373.2856688728     0.0000000001   0.000003221   0.000001476      516000150   18443881
  15 14  0    -1373.2856688737    -0.0000000009   0.000001481   0.000000504      477325726   18781004
  16 15  0    -1373.2856688733     0.0000000005   0.000000477   0.000000169      442557799   19085015
  17 16  0    -1373.2856688743    -0.0000000011   0.000000176   0.000000045      402987239   19370998
  18 17  0    -1373.2856688733     0.0000000011   0.000000050   0.000000022      369428397   19642207

          -----------------
          DENSITY CONVERGED
          -----------------
     TIME TO FORM FOCK OPERATORS=      39.3 SECONDS (       2.2 SEC/ITER)
     FOCK TIME ON FIRST ITERATION=       3.4, LAST ITERATION=       1.1
     TIME TO SOLVE SCF EQUATIONS=       0.7 SECONDS (       0.0 SEC/ITER)

 FINAL RHF ENERGY IS    -1373.2856688733 AFTER  18 ITERATIONS
 ...... END OF RHF CALCULATION ......
 CPU     0: STEP CPU TIME=    66.59 TOTAL CPU TIME=        281.9 (      4.7 MIN)
 TOTAL WALL CLOCK TIME=        567.7 SECONDS, CPU UTILIZATION IS    49.65%
 DONE PCM POT.
 CPU     0: STEP CPU TIME=     0.40 TOTAL CPU TIME=        282.3 (      4.7 MIN)
 TOTAL WALL CLOCK TIME=        569.0 SECONDS, CPU UTILIZATION IS    49.61%

 Iter=  1 iFrag=      9 EFMO= -1432.123174964, DD= 0.433826616, DE=************


 RHF      monomer      1 corr= NONE       , L1=   358, L0=   336 ID=      5


 AO spaces for     1     0     0 n-mer: L1=   358, L0=   336

 DIRECT SCF CALCULATION, SCHWRZ=T   FDIFF=T,  DIRTHR=  0.00E+00 NITDIR=10

                                                                                   NONZERO     BLOCKS
 ITER EX DEM     TOTAL ENERGY        E CHANGE  DENSITY CHANGE     ORB. GRAD      INTEGRALS    SKIPPED
   1  0  0   850296.0977044092850296.0977044092   0.527713481   0.000000000      766563631   13408834
          ---------------START SECOND ORDER SCF---------------
   2  1  0    -1403.7442597798*****************   0.417028733   0.082425971      770386856   13416273
   3  2  0    -1403.9792170084    -0.2349572286   0.176465871   0.064530945      764791073   13672349
   4  3  0    -1404.3741864499    -0.3949694415   0.052891562   0.014436995      754204986   13969934
   5  4  0    -1404.3852173579    -0.0110309079   0.012769045   0.004809045      739198194   14248121
   6  5  0    -1404.3866683720    -0.0014510141   0.005082473   0.002052360      716053168   14588954
   7  6  0    -1404.3868030456    -0.0001346736   0.003515979   0.002206495      692429285   14889693
   8  7  0    -1404.3868622930    -0.0000592474   0.001575788   0.000824870      669434394   15165425
   9  8  0    -1404.3868733175    -0.0000110245   0.001194325   0.000651935      652546547   15349459
  10  9  0    -1404.3868786508    -0.0000053333   0.000741892   0.000345624      626851183   15624409
  11 10  0    -1404.3868800155    -0.0000013647   0.000240528   0.000164926      613926461   15739958
  12 11  0    -1404.3868808894    -0.0000008739   0.000107702   0.000032690      592381764   15940847
  13 12  0    -1404.3868809330    -0.0000000437   0.000048001   0.000022662      554666232   16289136
  14 13  0    -1404.3868809592    -0.0000000262   0.000016186   0.000007762      527177924   16527129
  15 14  0    -1404.3868809612    -0.0000000020   0.000008648   0.000004181      494839932   16808505
  16 15  0    -1404.3868809628    -0.0000000016   0.000002474   0.000001319      463403754   17093564
  17 16  0    -1404.3868809620     0.0000000009   0.000002064   0.000000718      428811776   17384945
  18 17  0    -1404.3868809622    -0.0000000002   0.000000577   0.000000208      390318112   17741953
  19 18  0    -1404.3868809619     0.0000000003   0.000000191   0.000000079      363997698   17960837
  20 19  0    -1404.3868809622    -0.0000000003   0.000000071   0.000000026      332028943   18219984

          -----------------
          DENSITY CONVERGED
          -----------------
     TIME TO FORM FOCK OPERATORS=      40.2 SECONDS (       2.0 SEC/ITER)
     FOCK TIME ON FIRST ITERATION=       2.7, LAST ITERATION=       1.1
     TIME TO SOLVE SCF EQUATIONS=       0.6 SECONDS (       0.0 SEC/ITER)

 FINAL RHF ENERGY IS    -1404.3868809622 AFTER  20 ITERATIONS
 ...... END OF RHF CALCULATION ......
 CPU     0: STEP CPU TIME=    58.93 TOTAL CPU TIME=        341.2 (      5.7 MIN)
 TOTAL WALL CLOCK TIME=        683.4 SECONDS, CPU UTILIZATION IS    49.93%
 DONE PCM POT.
 CPU     0: STEP CPU TIME=     0.40 TOTAL CPU TIME=        341.6 (      5.7 MIN)
 TOTAL WALL CLOCK TIME=        684.5 SECONDS, CPU UTILIZATION IS    49.91%

 Iter=  1 iFrag=      1 EFMO= -1450.365514729, DD= 0.502083433, DE=************


 RHF      monomer      7 corr= NONE       , L1=   341, L0=   320 ID=      6


 AO spaces for     7     0     0 n-mer: L1=   341, L0=   320

 DIRECT SCF CALCULATION, SCHWRZ=T   FDIFF=T,  DIRTHR=  0.00E+00 NITDIR=10

                                                                                   NONZERO     BLOCKS
 ITER EX DEM     TOTAL ENERGY        E CHANGE  DENSITY CHANGE     ORB. GRAD      INTEGRALS    SKIPPED
   1  0  0  1344902.3520984503*****************   0.516190184   0.000000000      622635429   10873316
          ---------------START SECOND ORDER SCF---------------
   2  1  0    -1314.3285240326*****************   0.397209897   0.095845550      625764823   10882890
   3  2  0    -1314.5643693577    -0.2358453251   0.161638419   0.068908252      621943970   11047789
   4  3  0    -1314.9974025226    -0.4330331648   0.088443281   0.022317901      613339714   11265521
   5  4  0    -1315.0114066322    -0.0140041097   0.016351923   0.009222999      603985359   11437336
   6  5  0    -1315.0138951776    -0.0024885453   0.004583494   0.001481442      585957782   11696809
   7  6  0    -1315.0140392531    -0.0001440755   0.001982755   0.001429981      562999596   11966997
   8  7  0    -1315.0140867293    -0.0000474763   0.001379295   0.000922939      547559011   12150108
   9  8  0    -1315.0140925538    -0.0000058244   0.000708675   0.000507676      531233826   12325045
  10  9  0    -1315.0140980802    -0.0000055264   0.000169940   0.000074241      509742079   12536924
  11 10  0    -1315.0140983676    -0.0000002875   0.000147440   0.000076556      484195069   12770738
  12 11  0    -1315.0140984976    -0.0000001300   0.000059089   0.000017331      460010505   13003000
  13 12  0    -1315.0140985093    -0.0000000116   0.000014719   0.000012004      444836423   13127818
  14 13  0    -1315.0140985139    -0.0000000046   0.000006725   0.000002044      415068910   13391112
  15 14  0    -1315.0140985133     0.0000000006   0.000001956   0.000001125      387644955   13624968
  16 15  0    -1315.0140985142    -0.0000000009   0.000000838   0.000000264      360352525   13857559
  17 16  0    -1315.0140985141     0.0000000001   0.000000307   0.000000148      329616282   14144825
  18 17  0    -1315.0140985142    -0.0000000002   0.000000141   0.000000055      301996218   14373127

          -----------------
          DENSITY CONVERGED
          -----------------
     TIME TO FORM FOCK OPERATORS=      29.7 SECONDS (       1.6 SEC/ITER)
     FOCK TIME ON FIRST ITERATION=       2.1, LAST ITERATION=       1.1
     TIME TO SOLVE SCF EQUATIONS=       0.5 SECONDS (       0.0 SEC/ITER)

 FINAL RHF ENERGY IS    -1315.0140985142 AFTER  18 ITERATIONS
 ...... END OF RHF CALCULATION ......
 CPU     0: STEP CPU TIME=    45.78 TOTAL CPU TIME=        387.4 (      6.5 MIN)
 TOTAL WALL CLOCK TIME=        777.1 SECONDS, CPU UTILIZATION IS    49.85%
 DONE PCM POT.
 CPU     0: STEP CPU TIME=     0.30 TOTAL CPU TIME=        387.7 (      6.5 MIN)
 TOTAL WALL CLOCK TIME=        778.1 SECONDS, CPU UTILIZATION IS    49.83%

 Iter=  1 iFrag=      7 EFMO= -1360.283058411, DD= 0.530508862, DE=************


 RHF      monomer      6 corr= NONE       , L1=   341, L0=   320 ID=      7

