‘2LBJ_4_fmo_input.inp’ -> ‘/scratch/hazwong/820848/./2LBJ_4_fmo_input.inp’
‘rungms’ -> ‘/scratch/hazwong/820848/./rungms’
‘gms-files.csh’ -> ‘/scratch/hazwong/820848/./gms-files.csh’
----- GAMESS execution script 'rungms' -----
This job is running on host gollum061.lsa.umich.edu
under operating system Linux at Fri Dec 6 00:44:06 EST 2019
Available scratch disk space (Kbyte units) at beginning of the job is
Filesystem     1K-blocks  Used Available Use% Mounted on
/dev/sda4      426933580 33468 426900112   1% /scratch
GAMESS temporary binary files will be written to /scratch/hazwong/820848/2LBJ_4/usrc
GAMESS supplementary output files will be written to /scratch/hazwong/820848/2LBJ_4/src
Copying input file 2LBJ_4_fmo_input.inp to your run's scratch directory...
cp 2LBJ_4_fmo_input.inp /scratch/hazwong/820848/2LBJ_4/usrc/2LBJ_4_fmo_input.F05
unset echo
This is a GDDI run, keeping various output files on local disks
setenv OUTPUT /scratch/hazwong/820848/2LBJ_4/usrc/2LBJ_4_fmo_input.F06
setenv PUNCH /scratch/hazwong/820848/2LBJ_4/usrc/2LBJ_4_fmo_input.F07
unset echo
 
Assuming a single but multicore node.
 
/export/apps/CentOS7/gamess/src/build//ddikick.x /export/apps/CentOS7/gamess/src/build//gamess.R3.x 2LBJ_4_fmo_input -ddi 1 16 gollum061.lsa.umich.edu:cpus=16 -scr /scratch/hazwong/820848/2LBJ_4/usrc

 Distributed Data Interface kickoff program.
 Initiating 16 compute processes on 1 nodes to run the following command:
 /export/apps/CentOS7/gamess/src/build//gamess.R3.x 2LBJ_4_fmo_input 

          ******************************************************
          *         GAMESS VERSION = 30 SEP 2018 (R3)         *
          *             FROM IOWA STATE UNIVERSITY             *
          * M.W.SCHMIDT, K.K.BALDRIDGE, J.A.BOATZ, S.T.ELBERT, *
          *   M.S.GORDON, J.H.JENSEN, S.KOSEKI, N.MATSUNAGA,   *
          *          K.A.NGUYEN, S.J.SU, T.L.WINDUS,           *
          *       TOGETHER WITH M.DUPUIS, J.A.MONTGOMERY       *
          *         J.COMPUT.CHEM.  14, 1347-1363(1993)        *
          **************** 64 BIT LINUX VERSION ****************

  SINCE 1993, STUDENTS AND POSTDOCS WORKING AT IOWA STATE UNIVERSITY
  AND ALSO IN THEIR VARIOUS JOBS AFTER LEAVING ISU HAVE MADE IMPORTANT
  CONTRIBUTIONS TO THE CODE:
     IVANA ADAMOVIC, CHRISTINE AIKENS, YURI ALEXEEV, POOJA ARORA,
     ANDREY ASADCHEV, ROB BELL, PRADIPTA BANDYOPADHYAY, JONATHAN BENTZ,
     BRETT BODE, KURT BRORSEN, CALEB CARLIN, GALINA CHABAN, WEI CHEN,
     CHEOL HO CHOI, PAUL DAY, ALBERT DEFUSCO, NUWAN DESILVA, TIM DUDLEY,
     DMITRI FEDOROV, ALEX FINDLATER, GRAHAM FLETCHER, MARK FREITAG,
     KURT GLAESEMANN, ANASTASIA GUNINA,
     DAN KEMP, GRANT MERRILL, NORIYUKI MINEZAWA, JONATHAN MULLIN,
     TAKESHI NAGATA, SEAN NEDD, HEATHER NETZLOFF, BOSILJKA NJEGIC, RYAN OLSON,
     MIKE PAK, BUU PHAM,
     SPENCER PRUITT, LUKE ROSKOP, JIM SHOEMAKER, LYUDMILA SLIPCHENKO,
     TONY SMITH, SAROM SOK LEANG, JIE SONG, TETSUYA TAKETSUGU, SIMON WEBB,
     PENG XU, SOOHAENG YOO, FEDERICO ZAHARIEV

  ADDITIONAL CODE HAS BEEN PROVIDED BY COLLABORATORS IN OTHER GROUPS:
     IOWA STATE UNIVERSITY:
          JOE IVANIC, AARON WEST, LAIMUTIS BYTAUTAS, KLAUS RUEDENBERG
     UNIVERSITY OF TOKYO: KIMIHIKO HIRAO, TAKAHITO NAKAJIMA,
          TAKAO TSUNEDA, MUNEAKI KAMIYA, SUSUMU YANAGISAWA,
          KIYOSHI YAGI, MAHITO CHIBA, SEIKEN TOKURA, NAOAKI KAWAKAMI
     UNIVERSITY OF AARHUS: FRANK JENSEN
     UNIVERSITY OF IOWA: VISVALDAS KAIRYS, HUI LI
     NATIONAL INST. OF STANDARDS AND TECHNOLOGY: WALT STEVENS, DAVID GARMER
     UNIVERSITY OF PISA: BENEDETTA MENNUCCI, JACOPO TOMASI
     UNIVERSITY OF MEMPHIS: HENRY KURTZ, PRAKASHAN KORAMBATH
     UNIVERSITY OF ALBERTA: TOBY ZENG, MARIUSZ KLOBUKOWSKI
     UNIVERSITY OF NEW ENGLAND: MARK SPACKMAN
     MIE UNIVERSITY: HIROAKI UMEDA
     NAT. INST. OF ADVANCED INDUSTRIAL SCIENCE AND TECHNOLOGY: KAZUO KITAURA
     MICHIGAN STATE UNIVERSITY:
          KAROL KOWALSKI, MARTA WLOCH, JEFFREY GOUR, JESSE LUTZ,
          WEI LI, JUN SHEN, J. EMILIANO DEUSTUA, PIOTR PIECUCH
     UNIVERSITY OF MINNESOTA:
          YINAN SHU
     UNIVERSITY OF SILESIA: MONIKA MUSIAL, STANISLAW KUCHARSKI
     FACULTES UNIVERSITAIRES NOTRE-DAME DE LA PAIX:
          OLIVIER QUINET, BENOIT CHAMPAGNE
     UNIVERSITY OF CALIFORNIA - SANTA BARBARA: BERNARD KIRTMAN
     INSTITUTE FOR MOLECULAR SCIENCE:
          KAZUYA ISHIMURA, MICHIO KATOUDA, AND SHIGERU NAGASE
     UNIVERSITY OF NOTRE DAME: ANNA POMOGAEVA, DAN CHIPMAN
     KYUSHU UNIVERSITY:
          HARUYUKI NAKANO,
          FENG LONG GU, JACEK KORCHOWIEC, MARCIN MAKOWSKI, AND YURIKO AOKI,
          HIROTOSHI MORI AND EISAKU MIYOSHI
     PENNSYLVANIA STATE UNIVERSITY:
          TZVETELIN IORDANOV, CHET SWALINA, JONATHAN SKONE,
          SHARON HAMMES-SCHIFFER
     WASEDA UNIVERSITY:
          MASATO KOBAYASHI, TOMOKO AKAMA, TSUGUKI TOUMA,
          TAKESHI YOSHIKAWA, YASUHIRO IKABATA, JUNJI SEINO,
          YUYA NAKAJIMA, HIROMI NAKAI
     NANJING UNIVERSITY: SHUHUA LI
     UNIVERSITY OF NEBRASKA:
          PEIFENG SU, DEJUN SI, NANDUN THELLAMUREGE, YALI WANG, HUI LI
     UNIVERSITY OF ZURICH: ROBERTO PEVERATI, KIM BALDRIDGE
     N. COPERNICUS UNIVERSITY AND JACKSON STATE UNIVERSITY:
          MARIA BARYSZ
     UNIVERSITY OF COPENHAGEN: Jimmy Kromann, CASPER STEINMANN
     TOKYO INSTITUTE OF TECHNOLOGY: HIROYA NAKATA
     NAGOYA UNIVERSITY: YOSHIO NISHIMOTO, STEPHAN IRLE
     MOSCOW STATE UNIVERSITY: VLADIMIR MIRONOV


 PARALLEL VERSION RUNNING ON       16 PROCESSORS IN        1 NODES.

 EXECUTION OF GAMESS BEGUN Fri Dec  6 00:44:07 2019

            ECHO OF THE FIRST FEW INPUT CARDS -
 INPUT CARD>!*** FMO 5.3 (Gamess) INPUT generated by Facio 22.1.1.32 ***                    
 INPUT CARD> $CONTRL RUNTYP=ENERGY NPRINT=-5 ISPHER=1 MAXIT=200 $END                        
 INPUT CARD> $SYSTEM MWORDS=63 MEMDDI=63 $END                                               
 INPUT CARD> $GDDI NGROUP=1 $END                                                            
 INPUT CARD> $SCF DIRSCF=.TRUE. NPUNCH=0 $END                                               
 INPUT CARD>!*** NumCPU : 2  MemPerNode : 512MB                                             
 INPUT CARD> $PCM SOLVNT=WATER IEF=-10 ICOMP=2 ICAV=1 IDISP=1 IFMO=-1 $END                  
 INPUT CARD> $PCMCAV RADII=SUAHF $END                                                       
 INPUT CARD> $TESCAV NTSALL=60 $END                                                         
 INPUT CARD> $FMOPRP                                                                        
 INPUT CARD>    NAODIR=200                                                                  
 INPUT CARD>    NGRFMO(1)=1, 1, 0, 0, 0,   0, 0, 0, 0, 0                                    
 INPUT CARD>    IPIEDA=1                                                                    
 INPUT CARD>    NPRINT=9                                                                    
 INPUT CARD> $END                                                                           
 INPUT CARD> $FMO                                                                           
 INPUT CARD>      SCFTYP(1)=RHF                                                             
 INPUT CARD>      MODGRD=10                                                                 
 INPUT CARD>      MODMUL=0                                                                  
 INPUT CARD>      MAXCAO=5                                                                  
 INPUT CARD>      MAXBND=13                                                                 
 INPUT CARD>      NLAYER=1                                                                  
 INPUT CARD>      MPLEVL(1)=2                                                               
 INPUT CARD>      NFRAG=11                                                                  
 INPUT CARD>      ICHARG(1)=-1, -1, -1, -1, -1, -1, -1, -1, -1, -1, 0                       
 INPUT CARD>      FRGNAM(1)=F1, F2, F3, F4, F5, F6, F7, F8, F9, F10, F11                    
 INPUT CARD>      indat(1)=0                                                                
 INPUT CARD>               1   -33   0                                                      
 INPUT CARD>               34   -64   0                                                     
 INPUT CARD>               65   -94   0                                                     
 INPUT CARD>               95   -124   0                                                    
 INPUT CARD>               125   -158   0                                                   
 INPUT CARD>               159   -189   0                                                   
 INPUT CARD>               190   -220   0                                                   
 INPUT CARD>               221   -253   0                                                   
 INPUT CARD>               254   -286   0                                                   
 INPUT CARD>               287   -320   0                                                   
 INPUT CARD>               321   -351   0                                                   
 INPUT CARD> $END                                                                           
 INPUT CARD>                                                                                
 INPUT CARD> $FMOBND                                                                        
 INPUT CARD>   -34   33       6-31G*    MINI                                                
 INPUT CARD>   -65   64       6-31G*    MINI                                                
 INPUT CARD>   -95   94       6-31G*    MINI                                                
 INPUT CARD>   -125   124       6-31G*    MINI                                              
 INPUT CARD>   -159   158       6-31G*    MINI                                              
 INPUT CARD>   -190   189       6-31G*    MINI                                              
 INPUT CARD>   -221   220       6-31G*    MINI                                              
 INPUT CARD>   -254   253       6-31G*    MINI                                              
 INPUT CARD>   -287   286       6-31G*    MINI                                              


 -------------------------------------------------------------
 GROUP DDI, PROGRAMMED BY: RYAN M. OLSON AND DMITRI G. FEDOROV
        FEDOROV ET AL., J. COMPUT. CHEM., 25 (2004) 872.
 -------------------------------------------------------------

 -------------------------------------------------------
 GDDI: INITIALIZATION COMPLETED FOR GROUP     1 OF     1
 WITH    16 PROCESSES BALTYP=DLB   global rank=        0
 -------------------------------------------------------

   63000000 WORDS OF MEMORY AVAILABLE


     RUN TITLE
     ---------
  FMO calculation                                                                

 THE POINT GROUP OF THE MOLECULE IS C1      
 THE ORDER OF THE PRINCIPAL AXIS IS     0

 ATOM   ATOMIC CHARGE
 H.1-1       1.0
 O.1-1       8.0
 C.1-1       6.0
 N.1-1       7.0
 P.1-1      15.0

     ATOMIC BASIS SET LIBRARY
     ----------------
 THE CONTRACTED PRIMITIVE FUNCTIONS HAVE BEEN UNNORMALIZED
 THE CONTRACTED BASIS FUNCTIONS ARE NOW NORMALIZED TO UNITY

  SHELL TYPE  PRIMITIVE        EXPONENT          CONTRACTION COEFFICIENT(S)

 H.1-1     

      1   S       1            18.7311370    0.033494604338
      1   S       2             2.8253944    0.234726953484
      1   S       3             0.6401217    0.813757326146

      2   S       4             0.1612778    1.000000000000

 O.1-1     

      3   S       5          5484.6716600    0.001831074430
      3   S       6           825.2349460    0.013950172200
      3   S       7           188.0469580    0.068445078098
      3   S       8            52.9645000    0.232714335992
      3   S       9            16.8975704    0.470192897984
      3   S      10             5.7996353    0.358520852987

      4   L      11            15.5396162   -0.110777549525    0.070874268231
      4   L      12             3.5999336   -0.148026262701    0.339752839147
      4   L      13             1.0137618    1.130767015354    0.727158577316

      5   L      14             0.2700058    1.000000000000    1.000000000000

      6   D      15             0.8000000    1.000000000000

 C.1-1     

      7   S      16          3047.5248800    0.001834737132
      7   S      17           457.3695180    0.014037322813
      7   S      18           103.9486850    0.068842622264
      7   S      19            29.2101553    0.232184443216
      7   S      20             9.2866630    0.467941348435
      7   S      21             3.1639270    0.362311985337

      8   L      22             7.8682723   -0.119332419775    0.068999066591
      8   L      23             1.8812885   -0.160854151696    0.316423960957
      8   L      24             0.5442493    1.143456437840    0.744308290898

      9   L      25             0.1687145    1.000000000000    1.000000000000

     10   D      26             0.8000000    1.000000000000

 N.1-1     

     11   S      27          4173.5114600    0.001834772160
     11   S      28           627.4579110    0.013994627002
     11   S      29           142.9020930    0.068586551812
     11   S      30            40.2343293    0.232240873040
     11   S      31            12.8202129    0.469069948082
     11   S      32             4.3904370    0.360455199063

     12   L      33            11.6263619   -0.114961181702    0.067579743878
     12   L      34             2.7162798   -0.169117478561    0.323907295893
     12   L      35             0.7722184    1.145851947027    0.740895139755

     13   L      36             0.2120315    1.000000000000    1.000000000000

     14   D      37             0.8000000    1.000000000000

 P.1-1     

     15   S      38         19413.3000000    0.001851598923
     15   S      39          2909.4200000    0.014206191735
     15   S      40           661.3640000    0.069999459277
     15   S      41           185.7590000    0.240078860331
     15   S      42            59.1943000    0.484761717984
     15   S      43            20.0310000    0.335199804993

     16   L      44           339.4780000   -0.002782170105    0.004564616191
     16   L      45            81.0101000   -0.036049901354    0.033693571881
     16   L      46            25.8780000   -0.116631004382    0.139754883368
     16   L      47             9.4522100    0.096832803638    0.339361716786
     16   L      48             3.6656600    0.614418023082    0.450920623685
     16   L      49             1.4674600    0.403798015170    0.238585800889

     17   L      50             2.1562300   -0.252924113863   -0.017765312733
     17   L      51             0.7489970    0.032851844678    0.274058196433
     17   L      52             0.2831450    1.081254761783    0.785421562957

     18   L      53             0.0998317    1.000000000000    1.000000000000

     19   D      54             0.5500000    1.000000000000

 TOTAL NUMBER OF BASIS SET SHELLS             =   19
 NUMBER OF CARTESIAN GAUSSIAN BASIS FUNCTIONS =   66

     $CONTRL OPTIONS
     ---------------
 SCFTYP=RHF          RUNTYP=ENERGY       EXETYP=RUN     
 MPLEVL=       0     CITYP =NONE         CCTYP =NONE         VBTYP =NONE    
 DFTTYP=NONE         TDDFT =NONE    
 MULT  =       1     ICHARG=       0     NZVAR =       0     COORD =UNIQUE  
 PP    =NONE         RELWFN=NONE         LOCAL =NONE         NUMGRD=       F
 ISPHER=       1     NOSYM =       0     MAXIT =     200     UNITS =ANGS    
 PLTORB=       F     MOLPLT=       F     AIMPAC=       F     FRIEND=        
 NPRINT=      -5     IREST =       0     GEOM  =INPUT   
 NORMF =       0     NORMP =       0     ITOL  =      24     ICUT  =      12
 INTTYP=BEST         GRDTYP=BEST         QMTTOL= 1.0E-06

     $SYSTEM OPTIONS
     ---------------
  REPLICATED MEMORY=    63000000 WORDS (ON EVERY NODE).
 DISTRIBUTED MEMDDI=          63 MILLION WORDS IN AGGREGATE,
 MEMDDI DISTRIBUTED OVER  16 PROCESSORS IS     3937500 WORDS/PROCESSOR.
 TOTAL MEMORY REQUESTED ON EACH PROCESSOR=    66937500 WORDS.
 TIMLIM=      525600.00 MINUTES, OR     365.0 DAYS.
 PARALL= T  BALTYP=  DLB     KDIAG=    0  COREFL= F
 MXSEQ2=     300 MXSEQ3=     150  mem10=         0

 ** LOOKING UP INTERNALLY STORED DATA FOR SOLVENT=WATER    **
 OPTICAL AND PHYSICAL CONSTANTS:
 EPS= 78.390; EPSINF=  1.776; RSOLV=  1.385 A; VMOL=  18.070 ML/MOL;
 TCE= .25700E-03 1/K; STEN= 71.810 DYN/CM;  DSTEN=  0.6500; CMF=  1.2770


     -----------------------------------
     INPUT FOR PCM SOLVATION CALCULATION 
     -----------------------------------
     IEF   =     -10
     ICOMP =       2     IFIELD=       0     ICAV  =       1
     IDISP =       1     IREP  =       0     IDP   =       0

     SOLVNT=WATER        EPS   = 78.3900     EPSINF=  1.7760
     VMOL  = 18.0700     TCE   =  0.00025700 STEN  = 71.8100
     DSTEN =  0.6500     CMF   =  1.2770     RSOLV =  1.3850

     NESFP =       0
     OMEGA = 40.0000     RET   =100.0000     FRO   =  0.7000

     TABS  =298.0000     IPRINT=       0

     --------------------------------
     INPUT FOR ITERATIVE C-PCM METHOD 
     --------------------------------
     IPCMIT  =         1     MXDIIS  =        50
     MXITR1  =       200     MXITR2  =       200
     THRES   = 0.100E-09     IMUL    =         3
     RCUT(1) =   20.0000     RCUT(2) =   50.0000

     IDIRCT  =         1
     IMGABI  =         0     RABI    =    4.0000
     IMGASC  =         0     RASC    =   20.0000
     THRSLS  = 0.500E-03     DENSLS  =    0.0100
     IEFPOL  =         1     REFPOL  =    0.0000

     INPUT FOR ISOTROPIC DIELECTRICS
     -------------------------------
     EPS=    78.39

          ----------------
          PROPERTIES INPUT
          ----------------

     MOMENTS            FIELD           POTENTIAL          DENSITY
 IEMOM =       1   IEFLD =       0   IEPOT =       0   IEDEN =       0
 WHERE =COMASS     WHERE =NUCLEI     WHERE =NUCLEI     WHERE =NUCLEI  
 OUTPUT=BOTH       OUTPUT=BOTH       OUTPUT=NONE       OUTPUT=BOTH    
 IEMINT=       0   IEFINT=       0                     IEDINT=       0
                                                       MORB  =       0
          EXTRAPOLATION IN EFFECT
          SOSCF IN EFFECT
 ORBITAL PRINTING OPTION: NPREO=     1 32767     2     1

     -------------------------------
     INTEGRAL TRANSFORMATION OPTIONS
     -------------------------------
     NWORD  =            0
     CUTOFF = 1.0E-10     MPTRAN =       0
     DIRTRF =       T     AOINTS =DUP     

          ----------------------
          INTEGRAL INPUT OPTIONS
          ----------------------
 NOPK  =       1 NORDER=       0 SCHWRZ=       T

 ..... DONE SETTING UP THE RUN .....
 CPU     0: STEP CPU TIME=     0.04 TOTAL CPU TIME=          0.0 (      0.0 MIN)
 TOTAL WALL CLOCK TIME=          0.1 SECONDS, CPU UTILIZATION IS    40.00%
 CPU     0: STEP CPU TIME=     0.00 TOTAL CPU TIME=          0.0 (      0.0 MIN)
 TOTAL WALL CLOCK TIME=          0.1 SECONDS, CPU UTILIZATION IS    40.00%

                    ----------------------
                    AO INTEGRAL TECHNOLOGY
                    ----------------------
     S,P,L SHELL ROTATED AXIS INTEGRALS, REPROGRAMMED BY
        KAZUYA ISHIMURA (IMS) AND JOSE SIERRA (SYNSTAR).
     S,P,D,L SHELL ROTATED AXIS INTEGRALS PROGRAMMED BY
        KAZUYA ISHIMURA (INSTITUTE FOR MOLECULAR SCIENCE).
     S,P,D,F,G SHELL TO TOTAL QUARTET ANGULAR MOMENTUM SUM 5,
        ERIC PROGRAM BY GRAHAM FLETCHER (ELORET AND NASA ADVANCED
        SUPERCOMPUTING DIVISION, AMES RESEARCH CENTER).
     S,P,D,F,G,L SHELL GENERAL RYS QUADRATURE PROGRAMMED BY
        MICHEL DUPUIS (PACIFIC NORTHWEST NATIONAL LABORATORY).
 Setting modorb=1 flag...
 Setting modorb=1 flag...

          -----------------------
          MP2 CONTROL INFORMATION
          -----------------------
          NACORE =        8  NBCORE =        8
          LMOMP2 =        F  AOINTS = DUP     
          METHOD =        2  NWORD  =               0
          MP2PRP =        F  OSPT   = NONE    
          CUTOFF = 1.00E-12  CPHFBS = BASISAO 
          CODE   = IMS     

          NUMBER OF CORE -A-  ORBITALS =     8
          NUMBER OF CORE -B-  ORBITALS =     8
          NUMBER OF OCC. -A-  ORBITALS =    18
          NUMBER OF OCC. -B-  ORBITALS =    18
          NUMBER OF MOLECULAR ORBITALS =    66
          NUMBER OF   BASIS  FUNCTIONS =    66

 CPU     0: STEP CPU TIME=     0.03 TOTAL CPU TIME=          0.1 (      0.0 MIN)
 TOTAL WALL CLOCK TIME=          0.1 SECONDS, CPU UTILIZATION IS    46.67%
 CPU     0: STEP CPU TIME=     0.00 TOTAL CPU TIME=          0.1 (      0.0 MIN)
 TOTAL WALL CLOCK TIME=          0.1 SECONDS, CPU UTILIZATION IS    46.67%

     INPUT FOR CAVITY DEFINITION 
     ---------------------------
   ATOM               COORDINATES                RADIUS       EPS
      1      6.7810      6.7380     18.5410      0.0100     78.3900
      2      6.8200      7.0920     17.6320      1.5900     78.3900
      3      5.5230      7.6310     17.3340      1.7700     78.3900
      4      5.2910      8.4460     18.0550      0.0100     78.3900
      5      4.7590      6.8280     17.4520      0.0100     78.3900
      6      5.4130      8.2030     15.9150      1.7700     78.3900
      7      4.3830      8.5720     15.7160      0.0100     78.3900
      8      6.3160      9.3380     15.7700      1.5900     78.3900
      9      6.9000      9.3130     14.4760      1.7700     78.3900
     10      6.6630     10.3030     14.0210      0.0100     78.3900
     11      8.3790      9.1340     14.5140      1.6800     78.3900
     12      8.9900      8.6460     15.6480      1.7700     78.3900
     13      8.3390      8.4190     16.4930      0.0100     78.3900
     14     10.3200      8.5060     15.7200      1.7700     78.3900
     15     10.8140      8.1500     16.6220      0.0100     78.3900
     16      9.1490      9.4360     13.3950      1.7700     78.3900
     17      8.5880      9.8340     12.3630      1.5900     78.3900
     18     10.4940      9.3010     13.4490      1.6800     78.3900
     19     11.0860      8.8710     14.5780      1.7700     78.3900
     20     12.4160      8.8010     14.6210      1.6800     78.3900
     21     12.9510      9.0200     13.8010      0.0100     78.3900
     22     12.8950      8.4700     15.4360      0.0100     78.3900
     23      6.1980      8.2300     13.6850      1.7700     78.3900
     24      6.8590      7.7640     12.9310      0.0100     78.3900
     25      5.0570      8.7650     13.0450      1.5900     78.3900
     26      4.6320      8.0320     12.5830      0.0100     78.3900
     27      5.8170      7.2460     14.7850      1.7700     78.3900
     28      6.7240      6.7050     15.1380      0.0100     78.3900
     29      4.7150      6.3650     14.4720      1.5900     78.3900
     30      5.0100      4.9480     13.8560      2.1000     78.3900
     31      6.0890      4.2980     14.6320      1.5900     78.3900
     32      3.7340      4.2070     13.7640      1.5900     78.3900
     33      5.5170      5.2710     12.3980      1.5900     78.3900
     34      4.5920      5.8250     11.4320      1.7700     78.3900
     35      4.0790      6.7320     11.8230      0.0100     78.3900
     36      3.7930      5.0880     11.2010      0.0100     78.3900
     37      5.2980      6.2130     10.1250      1.7700     78.3900
     38      4.5690      6.6250      9.3920      0.0100     78.3900
     39      6.2800      7.2550     10.3970      1.5900     78.3900
     40      7.4250      7.0520      9.5780      1.7700     78.3900
     41      7.5600      7.9960      8.9970      0.0100     78.3900
     42      8.6660      6.7880     10.3680      1.6800     78.3900
     43      8.5800      6.3390     11.6650      1.7700     78.3900
     44      7.5730      6.1810     12.0460      0.0100     78.3900
     45      9.6710      6.1340     12.4150      1.7700     78.3900
     46      9.6110      5.8070     13.4520      0.0100     78.3900
     47      9.9210      6.9590      9.7900      1.7700     78.3900
     48      9.9990      7.3120      8.6050      1.5900     78.3900
     49     11.0370      6.7500     10.5260      1.6800     78.3900
     50     10.9380      6.3690     11.8110      1.7700     78.3900
     51     12.0530      6.2060     12.5210      1.6800     78.3900
     52     12.9450      6.3410     12.0820      0.0100     78.3900
     53     12.0330      5.8990     13.4740      0.0100     78.3900
     54      7.0890      5.9330      8.6150      1.7700     78.3900
     55      7.9790      5.3390      8.3300      0.0100     78.3900
     56      6.4690      6.4590      7.4550      1.5900     78.3900
     57      6.2070      5.6940      6.9320      0.0100     78.3900
     58      6.1050      5.1030      9.4300      1.7700     78.3900
     59      6.6280      4.5500     10.2400      0.0100     78.3900
     60      5.2310      4.2620      8.6440      1.5900     78.3900
     61      5.6280      2.7750      8.3250      2.1000     78.3900
     62      6.1830      2.1510      9.5440      1.5900     78.3900
     63      4.4560      2.1200      7.7080      1.5900     78.3900
     64      6.7860      2.8670      7.2650      1.5900     78.3900
     65      6.5920      3.4050      5.9400      1.7700     78.3900
     66      6.0300      4.3650      5.9630      0.0100     78.3900
     67      6.0050      2.6900      5.3190      0.0100     78.3900
     68      7.9370      3.6550      5.2370      1.7700     78.3900
     69      7.7870      4.1300      4.2440      0.0100     78.3900
     70      8.7610      4.5540      6.0350      1.5900     78.3900
     71     10.1240      4.1720      5.9450      1.7700     78.3900
     72     10.6650      5.0570      5.5350      0.0100     78.3900
     73     10.6960      3.8060      7.2790      1.6800     78.3900
     74      9.8730      3.5250      8.3440      1.7700     78.3900
     75      8.8090      3.5010      8.1160      0.0100     78.3900
     76     12.0670      3.7860      7.4300      1.7700     78.3900
     77     12.8420      4.0280      6.5130      1.5900     78.3900
     78     12.5060      3.5010      8.6990      1.6800     78.3900
     79     13.5140      3.4290      8.7850      0.0100     78.3900
     80     11.7400      3.2550      9.8160      1.7700     78.3900
     81     12.2730      3.0250     10.8990      1.5900     78.3900
     82     10.3300      3.2780      9.5770      1.7700     78.3900
     83      9.6550      3.0590     10.3990      0.0100     78.3900
     84     10.1890      3.0400      4.9400      1.7700     78.3900
     85     10.9720      2.3130      5.2070      0.0100     78.3900
     86     10.4290      3.5420      3.6370      1.5900     78.3900
     87     10.2680      2.8190      3.0120      0.0100     78.3900
     88      8.8070      2.4090      5.0560      1.7700     78.3900
     89      8.7250      1.8200      5.9970      0.0100     78.3900
     90      8.3850      1.6670      3.8910      1.5900     78.3900
     91      8.6690      0.1190      3.7830      2.1000     78.3900
     92      7.6590     -0.5680      4.6160      1.5900     78.3900
     93      8.7240     -0.2740      2.3580      1.5900     78.3900
     94     10.0810     -0.1210      4.4290      1.5900     78.3900
     95     11.3010      0.0370      3.6730      1.7700     78.3900
     96     11.3670      1.0540      3.2270      0.0100     78.3900
     97     11.3390     -0.7000      2.8340      0.0100     78.3900
     98     12.5500     -0.1730      4.5520      1.7700     78.3900
     99     13.4700      0.0220      3.9610      0.0100     78.3900
    100     12.5590      0.7400      5.6970      1.5900     78.3900
    101     13.0060      0.0710      6.8620      1.7700     78.3900
    102     13.8540      0.6900      7.2330      0.0100     78.3900
    103     11.9490     -0.0120      7.9320      1.6800     78.3900
    104     10.6110      0.1080      7.6240      1.7700     78.3900
    105     10.3960      0.3030      6.5790      0.0100     78.3900
    106     12.3380     -0.1640      9.2490      1.7700     78.3900
    107     13.5070     -0.2470      9.5970      1.5900     78.3900
    108     11.3270     -0.1920     10.1660      1.6800     78.3900
    109     11.6240     -0.2940     11.1280      0.0100     78.3900
    110      9.9820     -0.0480      9.9350      1.7700     78.3900
    111      9.1950     -0.0320     10.8780      1.5900     78.3900
    112      9.6400      0.1010      8.5520      1.7700     78.3900
    113      8.5950      0.2530      8.2930      0.0100     78.3900
    114     13.5230     -1.2870      6.4070      1.7700     78.3900
    115     13.3620     -2.0750      7.1740      0.0100     78.3900
    116     14.9040     -1.1770      6.0860      1.5900     78.3900
    117     15.4050     -1.6380      6.7830      0.0100     78.3900
    118     12.6670     -1.5610      5.1710      1.7700     78.3900
    119     11.6310     -1.8240      5.4880      0.0100     78.3900
    120     13.2380     -2.4940      4.2160      1.5900     78.3900
    121     12.6130     -3.9280      4.0640      2.1000     78.3900
    122     11.7580     -4.2040      5.2390      1.5900     78.3900
    123     11.9820     -4.0570      2.7370      1.5900     78.3900
    124     13.8740     -4.8830      4.1110      1.5900     78.3900
    125     13.8030     -6.2290      4.6450      1.7700     78.3900
    126     14.2270     -6.9280      3.8890      0.0100     78.3900
    127     12.7540     -6.5670      4.8120      0.0100     78.3900
    128     14.5930     -6.4350      5.9570      1.7700     78.3900
    129     14.4210     -7.4660      6.3350      0.0100     78.3900
    130     16.0270     -6.2600      5.7330      1.5900     78.3900
    131     16.4720     -5.0830      6.3900      1.7700     78.3900
    132     16.9800     -5.4300      7.3170      0.0100     78.3900
    133     17.3990     -4.3180      5.5430      1.6800     78.3900
    134     18.6550     -3.8900      5.8900      1.7700     78.3900
    135     21.1720     -3.5900      8.2460      1.6800     78.3900
    136     22.0730     -3.1670      8.3340      0.0100     78.3900
    137     20.7100     -3.9310      9.0680      0.0100     78.3900
    138     19.2560     -4.0870      7.0770      1.6800     78.3900
    139     20.4720     -3.5480      7.1260      1.7700     78.3900
    140     21.0600     -2.9180      6.0620      1.6800     78.3900
    141     21.9820     -2.5420      6.1900      0.0100     78.3900
    142     20.4770     -2.7330      4.8110      1.7700     78.3900
    143     21.0740     -2.1630      3.8900      1.5900     78.3900
    144     19.1560     -3.2610      4.7680      1.7700     78.3900
    145     18.2190     -3.2680      3.7380      1.6800     78.3900
    146     17.1920     -3.9160      4.2430      1.7700     78.3900
    147     16.2590     -4.1370      3.7190      0.0100     78.3900
    148     15.2420     -4.3020      6.7730      1.7700     78.3900
    149     14.9020     -3.7020      5.9070      0.0100     78.3900
    150     15.4400     -3.4510      7.8760      1.5900     78.3900
    151     14.8570     -3.7610      8.6080      0.0100     78.3900
    152     14.2430     -5.4250      7.0650      1.7700     78.3900
    153     13.2180     -5.0610      6.8400      0.0100     78.3900
    154     14.3180     -6.0170      8.3940      1.5900     78.3900
    155     13.3630     -5.4130      9.5090      2.1000     78.3900
    156     13.8450     -4.0530      9.8180      1.5900     78.3900
    157     11.9640     -5.5650      9.0480      1.5900     78.3900
    158     13.5630     -6.3370     10.7610      1.5900     78.3900
    159     13.8770     -5.7940     12.0660      1.7700     78.3900
    160     13.0090     -5.2250     12.4700      0.0100     78.3900
    161     14.7320     -5.0840     11.9940      0.0100     78.3900
    162     14.2590     -6.8800     13.0980      1.7700     78.3900
    163     13.3570     -7.2900     13.5990      0.0100     78.3900
    164     14.9040     -8.0020     12.4190      1.5900     78.3900
    165     16.0520     -8.4200     13.1370      1.7700     78.3900
    166     15.9270     -9.5190     13.2750      0.0100     78.3900
    167     17.3240     -8.1840     12.3940      1.6800     78.3900
    168     17.3200     -7.4880     11.2020      1.7700     78.3900
    169     16.3530     -7.1040     10.8640      0.0100     78.3900
    170     18.4450     -7.3140     10.4970      1.7700     78.3900
    171     18.4640     -6.7770      9.5500      0.0100     78.3900
    172     18.5180     -8.7170     12.8800      1.7700     78.3900
    173     18.5030     -9.3740     13.9340      1.5900     78.3900
    174     19.6640     -8.5410     12.1830      1.6800     78.3900
    175     19.6490     -7.8630     11.0230      1.7700     78.3900
    176     20.7790     -7.7420     10.3340      1.6800     78.3900
    177     21.6260     -8.0880     10.7360      0.0100     78.3900
    178     20.8360     -7.2070      9.4920      0.0100     78.3900
    179     16.0070     -7.7420     14.4890      1.7700     78.3900
    180     17.0160     -7.5410     14.9120      0.0100     78.3900
    181     15.2510     -8.5380     15.3860      1.5900     78.3900
    182     15.0560     -7.9970     16.1710      0.0100     78.3900
    183     15.2890     -6.4430     14.1640      1.7700     78.3900
    184     15.9910     -5.7450     13.6600      0.0100     78.3900
    185     14.6430     -5.8660     15.3150      1.5900     78.3900
    186     14.8930     -4.4080     15.8250      2.1000     78.3900
    187     14.3250     -3.4820     14.8240      1.5900     78.3900
    188     14.3850     -4.2890     17.2120      1.5900     78.3900
    189     16.4540     -4.2390     15.8280      1.5900     78.3900
    190     17.3150     -4.9120     16.7730      1.7700     78.3900
    191     17.0690     -5.9990     16.8450      0.0100     78.3900
    192     17.1860     -4.4670     17.7860      0.0100     78.3900
    193     18.7980     -4.7760     16.3760      1.7700     78.3900
    194     19.4640     -5.1710     17.1720      0.0100     78.3900
    195     19.0330     -5.5840     15.1860      1.5900     78.3900
    196     19.9440     -4.9120     14.3270      1.7700     78.3900
    197     20.8020     -5.6160     14.1890      0.0100     78.3900
    198     19.3380     -4.5970     13.0080      1.6800     78.3900
    199     18.0090     -4.2570     12.9470      1.7700     78.3900
    200     17.4750     -4.2930     13.8870      0.0100     78.3900
    201     17.4080     -3.9760     11.7870      1.7700     78.3900
    202     16.3480     -3.7440     11.7160      0.0100     78.3900
    203     20.1120     -4.5630     11.8520      1.7700     78.3900
    204     21.3260     -4.8000     11.9300      1.5900     78.3900
    205     19.5230     -4.2920     10.6650      1.6800     78.3900
    206     18.2110     -4.0140     10.6180      1.7700     78.3900
    207     17.6740     -3.7740      9.4430      1.6800     78.3900
    208     18.2500     -3.8870      8.6260      0.0100     78.3900
    209     16.7110     -3.5530      9.2800      0.0100     78.3900
    210     20.4410     -3.6760     15.0500      1.7700     78.3900
    211     20.6250     -2.8360     14.3560      0.0100     78.3900
    212     21.6220     -3.9630     15.7750      1.5900     78.3900
    213     21.8320     -3.1720     16.2950      0.0100     78.3900
    214     19.2760     -3.3590     15.9840      1.7700     78.3900
    215     18.4500     -2.8830     15.4070      0.0100     78.3900
    216     19.6210     -2.5910     17.1630      1.5900     78.3900
    217     19.7710     -1.0230     17.0720      2.1000     78.3900
    218     18.5350     -0.4770     16.4730      1.5900     78.3900
    219     20.1420     -0.5080     18.4070      1.5900     78.3900
    220     20.9770     -0.7860     16.0820      1.5900     78.3900
    221     21.0870      0.4470     15.3220      1.7700     78.3900
    222     21.6600      1.2020     15.9080      0.0100     78.3900
    223     20.0880      0.8890     15.0880      0.0100     78.3900
    224     21.8050      0.2260     13.9780      1.7700     78.3900
    225     22.8570     -0.0870     14.1380      0.0100     78.3900
    226     21.1430     -0.8440     13.2480      1.5900     78.3900
    227     21.1170     -0.5530     11.8680      1.7700     78.3900
    228     21.6020     -1.4140     11.3560      0.0100     78.3900
    229     19.7430     -0.4360     11.3840      1.6800     78.3900
    230     17.9690     -0.3330     10.0990      1.7700     78.3900
    231     17.5050     -0.3130     11.4060      1.6800     78.3900
    232     18.5920     -0.3760     12.1290      1.7700     78.3900
    233     18.6250     -0.3880     13.2210      0.0100     78.3900
    234     18.0880     -0.3100      7.7340      1.6800     78.3900
    235     19.4120     -0.3660      7.8730      1.7700     78.3900
    236     19.9840     -0.3690      6.9380      0.0100     78.3900
    237     20.1400     -0.4270      8.9910      1.6800     78.3900
    238     19.3480     -0.4090     10.0750      1.7700     78.3900
    239     17.3180     -0.2930      8.8480      1.7700     78.3900
    240     15.9940     -0.2070      8.6680      1.6800     78.3900
    241     15.3050     -0.2560      9.3990      0.0100     78.3900
    242     15.6530     -0.0180      7.7510      0.0100     78.3900
    243     21.9300      0.7030     11.6520      1.7700     78.3900
    244     21.5360      1.3310     10.8270      0.0100     78.3900
    245     23.2780      0.3540     11.3910      1.5900     78.3900
    246     23.8120      1.1560     11.4820      0.0100     78.3900
    247     21.7800      1.4110     12.9950      1.7700     78.3900
    248     20.7660      1.8690     13.0820      0.0100     78.3900
    249     22.8490      2.3340     13.2860      1.5900     78.3900
    250     22.6480      3.8830     13.1100      2.1000     78.3900
    251     21.4490      4.2690     13.8810      1.5900     78.3900
    252     23.9180      4.5660     13.4410      1.5900     78.3900
    253     22.3350      4.0790     11.5860      1.5900     78.3900
    254     23.3040      3.8720     10.5390      1.7700     78.3900
    255     23.7650      2.8610     10.6060      0.0100     78.3900
    256     24.1220      4.6220     10.6120      0.0100     78.3900
    257     22.6550      4.0100      9.1510      1.7700     78.3900
    258     23.4170      3.9280      8.3470      0.0100     78.3900
    259     21.6980      2.9270      8.9560      1.5900     78.3900
    260     20.5260      3.4290      8.3340      1.7700     78.3900
    261     20.3360      2.7820      7.4440      0.0100     78.3900
    262     19.3680      3.3570      9.2340      1.6800     78.3900
    263     17.3320      3.2040     10.0480      1.7700     78.3900
    264     18.1850      3.1870     11.1410      1.6800     78.3900
    265     19.3740      3.2820     10.6060      1.7700     78.3900
    266     20.3010      3.2850     11.1700      0.0100     78.3900
    267     15.3890      3.1720      8.7020      1.6800     78.3900
    268     16.2100      3.2840      7.6490      1.7700     78.3900
    269     15.7210      3.3140      6.6680      0.0100     78.3900
    270     17.5460      3.3680      7.6220      1.6800     78.3900
    271     18.0470      3.3140      8.8670      1.7700     78.3900
    272     15.9310      3.1220      9.9450      1.7700     78.3900
    273     15.1330      2.9900     11.0230      1.6800     78.3900
    274     15.5180      2.9420     11.9510      0.0100     78.3900
    275     14.1370      2.9210     10.9310      0.0100     78.3900
    276     20.8320      4.8360      7.8720      1.7700     78.3900
    277     19.9330      5.4820      7.8600      0.0100     78.3900
    278     21.4110      4.8110      6.5810      1.5900     78.3900
    279     21.6560      5.7220      6.3780      0.0100     78.3900
    280     21.8390      5.2960      8.9220      1.7700     78.3900
    281     21.3170      5.5280      9.8800      0.0100     78.3900
    282     22.7160      6.3590      8.4910      1.5900     78.3900
    283     22.3050      7.8560      8.7350      2.1000     78.3900
    284     21.8980      8.0180     10.1480      1.5900     78.3900
    285     23.3920      8.7360      8.2500      1.5900     78.3900
    286     21.0350      8.0690      7.8330      1.5900     78.3900
    287     21.1750      8.2410      6.4030      1.7700     78.3900
    288     21.7160      7.3830      5.9410      0.0100     78.3900
    289     21.7520      9.1670      6.1710      0.0100     78.3900
    290     19.8020      8.3570      5.7330      1.7700     78.3900
    291     19.8990      8.4350      4.6260      0.0100     78.3900
    292     19.0140      7.1670      6.0150      1.5900     78.3900
    293     17.6570      7.5390      6.1920      1.7700     78.3900
    294     17.0640      6.9380      5.4680      0.0100     78.3900
    295     17.1830      7.2430      7.5480      1.6800     78.3900
    296     15.8790      7.1420      7.9490      1.7700     78.3900
    297     12.4820      7.3680      7.2790      1.6800     78.3900
    298     12.4570      7.6100      6.3110      0.0100     78.3900
    299     11.6190      7.3170      7.7890      0.0100     78.3900
    300     14.7930      7.3210      7.1700      1.6800     78.3900
    301     13.6570      7.1870      7.8560      1.7700     78.3900
    302     13.6180      6.8620      9.1880      1.6800     78.3900
    303     12.7190      6.7830      9.6360      0.0100     78.3900
    304     14.7210      6.6480     10.0050      1.7700     78.3900
    305     14.5890      6.3530     11.1960      1.5900     78.3900
    306     15.9350      6.8220      9.2930      1.7700     78.3900
    307     17.2520      6.7440      9.7310      1.6800     78.3900
    308     17.9550      7.0170      8.6620      1.7700     78.3900
    309     19.0430      7.0750      8.6160      0.0100     78.3900
    310     17.5370      9.0060      5.8530      1.7700     78.3900
    311     16.7420      9.5150      6.4340      0.0100     78.3900
    312     17.2750      9.1490      4.4700      1.5900     78.3900
    313     17.2680     10.0940      4.2770      0.0100     78.3900
    314     18.9250      9.5150      6.2310      1.7700     78.3900
    315     19.0390      9.5480      7.3420      0.0100     78.3900
    316     19.3240     10.7420      5.5840      1.5900     78.3900
    317     19.1020     12.1120      6.3270      2.1000     78.3900
    318     19.5170     11.9850      7.7390      1.5900     78.3900
    319     19.7600     13.1830      5.5490      1.5900     78.3900
    320     17.5420     12.2960      6.2690      1.5900     78.3900
    321     16.8930     12.5140      4.9960      1.7700     78.3900
    322     17.1470     11.7260      4.2510      0.0100     78.3900
    323     17.2160     13.4860      4.5610      0.0100     78.3900
    324     15.3710     12.5620      5.1650      1.7700     78.3900
    325     14.8640     12.7730      4.1980      0.0100     78.3900
    326     14.8810     11.2750      5.6410      1.5900     78.3900
    327     13.8180     11.4950      6.5620      1.7700     78.3900
    328     12.9350     10.9370      6.1730      0.0100     78.3900
    329     14.1520     10.9850      7.9010      1.6800     78.3900
    330     13.2620     10.6950      8.9000      1.7700     78.3900
    331     10.0080     10.5440     10.0750      1.6800     78.3900
    332      9.4870     10.9150      9.3100      0.0100     78.3900
    333      9.5270     10.2820     10.9150      0.0100     78.3900
    334     11.9290     10.8420      8.8350      1.6800     78.3900
    335     11.3200     10.4610      9.9570      1.7700     78.3900
    336     11.9950      9.9850     11.0500      1.6800     78.3900
    337     11.4590      9.7300     11.8640      0.0100     78.3900
    338     13.3720      9.8320     11.1520      1.7700     78.3900
    339     13.9000      9.3980     12.1810      1.5900     78.3900
    340     14.0260     10.2360      9.9560      1.7700     78.3900
    341     15.3760     10.2540      9.6320      1.6800     78.3900
    342     15.4040     10.7160      8.4060      1.7700     78.3900
    343     16.3060     10.8930      7.8170      0.0100     78.3900
    344     13.5120     12.9820      6.5750      1.7700     78.3900
    345     13.1760     13.3330      7.5760      0.0100     78.3900
    346     12.5240     13.2770      5.6010      1.5900     78.3900
    347     12.4210     14.2450      5.5260      0.0100     78.3900
    348     14.8700     13.5690      6.2090      1.7700     78.3900
    349     15.5510     13.5280      7.0860      0.0100     78.3900
    350     14.8190     14.8980      5.6590      1.5900     78.3900
    351     14.4400     15.5140      6.3150      0.0100     78.3900

     ----------------------------
     INPUT FOR TESSERA DEFINITION
     ----------------------------
     NTSALL  =        60     MTHALL  =         4
     MTHAUT  =         0     AUTFRE  =    2.0000
     NTSFRZ  =        60     KEEPSM  =         0
     AREAKP  =   10.0000     BONDRY  =    1.0000
     AREATL  =    0.0100

     SPHERE     INITS       METHOD
          1        60       FIXPVA
          2        60       FIXPVA
          3        60       FIXPVA
          4        60       FIXPVA
          5        60       FIXPVA
          6        60       FIXPVA
          7        60       FIXPVA
          8        60       FIXPVA
          9        60       FIXPVA
         10        60       FIXPVA
         11        60       FIXPVA
         12        60       FIXPVA
         13        60       FIXPVA
         14        60       FIXPVA
         15        60       FIXPVA
         16        60       FIXPVA
         17        60       FIXPVA
         18        60       FIXPVA
         19        60       FIXPVA
         20        60       FIXPVA
         21        60       FIXPVA
         22        60       FIXPVA
         23        60       FIXPVA
         24        60       FIXPVA
         25        60       FIXPVA
         26        60       FIXPVA
         27        60       FIXPVA
         28        60       FIXPVA
         29        60       FIXPVA
         30        60       FIXPVA
         31        60       FIXPVA
         32        60       FIXPVA
         33        60       FIXPVA
         34        60       FIXPVA
         35        60       FIXPVA
         36        60       FIXPVA
         37        60       FIXPVA
         38        60       FIXPVA
         39        60       FIXPVA
         40        60       FIXPVA
         41        60       FIXPVA
         42        60       FIXPVA
         43        60       FIXPVA
         44        60       FIXPVA
         45        60       FIXPVA
         46        60       FIXPVA
         47        60       FIXPVA
         48        60       FIXPVA
         49        60       FIXPVA
         50        60       FIXPVA
         51        60       FIXPVA
         52        60       FIXPVA
         53        60       FIXPVA
         54        60       FIXPVA
         55        60       FIXPVA
         56        60       FIXPVA
         57        60       FIXPVA
         58        60       FIXPVA
         59        60       FIXPVA
         60        60       FIXPVA
         61        60       FIXPVA
         62        60       FIXPVA
         63        60       FIXPVA
         64        60       FIXPVA
         65        60       FIXPVA
         66        60       FIXPVA
         67        60       FIXPVA
         68        60       FIXPVA
         69        60       FIXPVA
         70        60       FIXPVA
         71        60       FIXPVA
         72        60       FIXPVA
         73        60       FIXPVA
         74        60       FIXPVA
         75        60       FIXPVA
         76        60       FIXPVA
         77        60       FIXPVA
         78        60       FIXPVA
         79        60       FIXPVA
         80        60       FIXPVA
         81        60       FIXPVA
         82        60       FIXPVA
         83        60       FIXPVA
         84        60       FIXPVA
         85        60       FIXPVA
         86        60       FIXPVA
         87        60       FIXPVA
         88        60       FIXPVA
         89        60       FIXPVA
         90        60       FIXPVA
         91        60       FIXPVA
         92        60       FIXPVA
         93        60       FIXPVA
         94        60       FIXPVA
         95        60       FIXPVA
         96        60       FIXPVA
         97        60       FIXPVA
         98        60       FIXPVA
         99        60       FIXPVA
        100        60       FIXPVA
        101        60       FIXPVA
        102        60       FIXPVA
        103        60       FIXPVA
        104        60       FIXPVA
        105        60       FIXPVA
        106        60       FIXPVA
        107        60       FIXPVA
        108        60       FIXPVA
        109        60       FIXPVA
        110        60       FIXPVA
        111        60       FIXPVA
        112        60       FIXPVA
        113        60       FIXPVA
        114        60       FIXPVA
        115        60       FIXPVA
        116        60       FIXPVA
        117        60       FIXPVA
        118        60       FIXPVA
        119        60       FIXPVA
        120        60       FIXPVA
        121        60       FIXPVA
        122        60       FIXPVA
        123        60       FIXPVA
        124        60       FIXPVA
        125        60       FIXPVA
        126        60       FIXPVA
        127        60       FIXPVA
        128        60       FIXPVA
        129        60       FIXPVA
        130        60       FIXPVA
        131        60       FIXPVA
        132        60       FIXPVA
        133        60       FIXPVA
        134        60       FIXPVA
        135        60       FIXPVA
        136        60       FIXPVA
        137        60       FIXPVA
        138        60       FIXPVA
        139        60       FIXPVA
        140        60       FIXPVA
        141        60       FIXPVA
        142        60       FIXPVA
        143        60       FIXPVA
        144        60       FIXPVA
        145        60       FIXPVA
        146        60       FIXPVA
        147        60       FIXPVA
        148        60       FIXPVA
        149        60       FIXPVA
        150        60       FIXPVA
        151        60       FIXPVA
        152        60       FIXPVA
        153        60       FIXPVA
        154        60       FIXPVA
        155        60       FIXPVA
        156        60       FIXPVA
        157        60       FIXPVA
        158        60       FIXPVA
        159        60       FIXPVA
        160        60       FIXPVA
        161        60       FIXPVA
        162        60       FIXPVA
        163        60       FIXPVA
        164        60       FIXPVA
        165        60       FIXPVA
        166        60       FIXPVA
        167        60       FIXPVA
        168        60       FIXPVA
        169        60       FIXPVA
        170        60       FIXPVA
        171        60       FIXPVA
        172        60       FIXPVA
        173        60       FIXPVA
        174        60       FIXPVA
        175        60       FIXPVA
        176        60       FIXPVA
        177        60       FIXPVA
        178        60       FIXPVA
        179        60       FIXPVA
        180        60       FIXPVA
        181        60       FIXPVA
        182        60       FIXPVA
        183        60       FIXPVA
        184        60       FIXPVA
        185        60       FIXPVA
        186        60       FIXPVA
        187        60       FIXPVA
        188        60       FIXPVA
        189        60       FIXPVA
        190        60       FIXPVA
        191        60       FIXPVA
        192        60       FIXPVA
        193        60       FIXPVA
        194        60       FIXPVA
        195        60       FIXPVA
        196        60       FIXPVA
        197        60       FIXPVA
        198        60       FIXPVA
        199        60       FIXPVA
        200        60       FIXPVA
        201        60       FIXPVA
        202        60       FIXPVA
        203        60       FIXPVA
        204        60       FIXPVA
        205        60       FIXPVA
        206        60       FIXPVA
        207        60       FIXPVA
        208        60       FIXPVA
        209        60       FIXPVA
        210        60       FIXPVA
        211        60       FIXPVA
        212        60       FIXPVA
        213        60       FIXPVA
        214        60       FIXPVA
        215        60       FIXPVA
        216        60       FIXPVA
        217        60       FIXPVA
        218        60       FIXPVA
        219        60       FIXPVA
        220        60       FIXPVA
        221        60       FIXPVA
        222        60       FIXPVA
        223        60       FIXPVA
        224        60       FIXPVA
        225        60       FIXPVA
        226        60       FIXPVA
        227        60       FIXPVA
        228        60       FIXPVA
        229        60       FIXPVA
        230        60       FIXPVA
        231        60       FIXPVA
        232        60       FIXPVA
        233        60       FIXPVA
        234        60       FIXPVA
        235        60       FIXPVA
        236        60       FIXPVA
        237        60       FIXPVA
        238        60       FIXPVA
        239        60       FIXPVA
        240        60       FIXPVA
        241        60       FIXPVA
        242        60       FIXPVA
        243        60       FIXPVA
        244        60       FIXPVA
        245        60       FIXPVA
        246        60       FIXPVA
        247        60       FIXPVA
        248        60       FIXPVA
        249        60       FIXPVA
        250        60       FIXPVA
        251        60       FIXPVA
        252        60       FIXPVA
        253        60       FIXPVA
        254        60       FIXPVA
        255        60       FIXPVA
        256        60       FIXPVA
        257        60       FIXPVA
        258        60       FIXPVA
        259        60       FIXPVA
        260        60       FIXPVA
        261        60       FIXPVA
        262        60       FIXPVA
        263        60       FIXPVA
        264        60       FIXPVA
        265        60       FIXPVA
        266        60       FIXPVA
        267        60       FIXPVA
        268        60       FIXPVA
        269        60       FIXPVA
        270        60       FIXPVA
        271        60       FIXPVA
        272        60       FIXPVA
        273        60       FIXPVA
        274        60       FIXPVA
        275        60       FIXPVA
        276        60       FIXPVA
        277        60       FIXPVA
        278        60       FIXPVA
        279        60       FIXPVA
        280        60       FIXPVA
        281        60       FIXPVA
        282        60       FIXPVA
        283        60       FIXPVA
        284        60       FIXPVA
        285        60       FIXPVA
        286        60       FIXPVA
        287        60       FIXPVA
        288        60       FIXPVA
        289        60       FIXPVA
        290        60       FIXPVA
        291        60       FIXPVA
        292        60       FIXPVA
        293        60       FIXPVA
        294        60       FIXPVA
        295        60       FIXPVA
        296        60       FIXPVA
        297        60       FIXPVA
        298        60       FIXPVA
        299        60       FIXPVA
        300        60       FIXPVA
        301        60       FIXPVA
        302        60       FIXPVA
        303        60       FIXPVA
        304        60       FIXPVA
        305        60       FIXPVA
        306        60       FIXPVA
        307        60       FIXPVA
        308        60       FIXPVA
        309        60       FIXPVA
        310        60       FIXPVA
        311        60       FIXPVA
        312        60       FIXPVA
        313        60       FIXPVA
        314        60       FIXPVA
        315        60       FIXPVA
        316        60       FIXPVA
        317        60       FIXPVA
        318        60       FIXPVA
        319        60       FIXPVA
        320        60       FIXPVA
        321        60       FIXPVA
        322        60       FIXPVA
        323        60       FIXPVA
        324        60       FIXPVA
        325        60       FIXPVA
        326        60       FIXPVA
        327        60       FIXPVA
        328        60       FIXPVA
        329        60       FIXPVA
        330        60       FIXPVA
        331        60       FIXPVA
        332        60       FIXPVA
        333        60       FIXPVA
        334        60       FIXPVA
        335        60       FIXPVA
        336        60       FIXPVA
        337        60       FIXPVA
        338        60       FIXPVA
        339        60       FIXPVA
        340        60       FIXPVA
        341        60       FIXPVA
        342        60       FIXPVA
        343        60       FIXPVA
        344        60       FIXPVA
        345        60       FIXPVA
        346        60       FIXPVA
        347        60       FIXPVA
        348        60       FIXPVA
        349        60       FIXPVA
        350        60       FIXPVA
        351        60       FIXPVA

     ------------------------------
      FIXPVA TESSELLATION FOR PCM
         PEIFENG SU AND HUI LI
     UNIVERSITY OF NEBRASKA-LINCOLN
     ------------------------------


 PCM DIMENSIONS: MXSP=   351, MXTS=     14040, MEMORY=        144264

     INPUT FOR CAVITY DEFINITION 
     ---------------------------
   ATOM               COORDINATES                RADIUS       EPS
      1      6.7810      6.7380     18.5410      0.0100     78.3900
      2      6.8200      7.0920     17.6320      1.5900     78.3900
      3      5.5230      7.6310     17.3340      1.7700     78.3900
      4      5.2910      8.4460     18.0550      0.0100     78.3900
      5      4.7590      6.8280     17.4520      0.0100     78.3900
      6      5.4130      8.2030     15.9150      1.7700     78.3900
      7      4.3830      8.5720     15.7160      0.0100     78.3900
      8      6.3160      9.3380     15.7700      1.5900     78.3900
      9      6.9000      9.3130     14.4760      1.7700     78.3900
     10      6.6630     10.3030     14.0210      0.0100     78.3900
     11      8.3790      9.1340     14.5140      1.6800     78.3900
     12      8.9900      8.6460     15.6480      1.7700     78.3900
     13      8.3390      8.4190     16.4930      0.0100     78.3900
     14     10.3200      8.5060     15.7200      1.7700     78.3900
     15     10.8140      8.1500     16.6220      0.0100     78.3900
     16      9.1490      9.4360     13.3950      1.7700     78.3900
     17      8.5880      9.8340     12.3630      1.5900     78.3900
     18     10.4940      9.3010     13.4490      1.6800     78.3900
     19     11.0860      8.8710     14.5780      1.7700     78.3900
     20     12.4160      8.8010     14.6210      1.6800     78.3900
     21     12.9510      9.0200     13.8010      0.0100     78.3900
     22     12.8950      8.4700     15.4360      0.0100     78.3900
     23      6.1980      8.2300     13.6850      1.7700     78.3900
     24      6.8590      7.7640     12.9310      0.0100     78.3900
     25      5.0570      8.7650     13.0450      1.5900     78.3900
     26      4.6320      8.0320     12.5830      0.0100     78.3900
     27      5.8170      7.2460     14.7850      1.7700     78.3900
     28      6.7240      6.7050     15.1380      0.0100     78.3900
     29      4.7150      6.3650     14.4720      1.5900     78.3900
     30      5.0100      4.9480     13.8560      2.1000     78.3900
     31      6.0890      4.2980     14.6320      1.5900     78.3900
     32      3.7340      4.2070     13.7640      1.5900     78.3900
     33      5.5170      5.2710     12.3980      1.5900     78.3900
     34      4.5920      5.8250     11.4320      1.7700     78.3900
     35      4.0790      6.7320     11.8230      0.0100     78.3900
     36      3.7930      5.0880     11.2010      0.0100     78.3900
     37      5.2980      6.2130     10.1250      1.7700     78.3900
     38      4.5690      6.6250      9.3920      0.0100     78.3900
     39      6.2800      7.2550     10.3970      1.5900     78.3900
     40      7.4250      7.0520      9.5780      1.7700     78.3900
     41      7.5600      7.9960      8.9970      0.0100     78.3900
     42      8.6660      6.7880     10.3680      1.6800     78.3900
     43      8.5800      6.3390     11.6650      1.7700     78.3900
     44      7.5730      6.1810     12.0460      0.0100     78.3900
     45      9.6710      6.1340     12.4150      1.7700     78.3900
     46      9.6110      5.8070     13.4520      0.0100     78.3900
     47      9.9210      6.9590      9.7900      1.7700     78.3900
     48      9.9990      7.3120      8.6050      1.5900     78.3900
     49     11.0370      6.7500     10.5260      1.6800     78.3900
     50     10.9380      6.3690     11.8110      1.7700     78.3900
     51     12.0530      6.2060     12.5210      1.6800     78.3900
     52     12.9450      6.3410     12.0820      0.0100     78.3900
     53     12.0330      5.8990     13.4740      0.0100     78.3900
     54      7.0890      5.9330      8.6150      1.7700     78.3900
     55      7.9790      5.3390      8.3300      0.0100     78.3900
     56      6.4690      6.4590      7.4550      1.5900     78.3900
     57      6.2070      5.6940      6.9320      0.0100     78.3900
     58      6.1050      5.1030      9.4300      1.7700     78.3900
     59      6.6280      4.5500     10.2400      0.0100     78.3900
     60      5.2310      4.2620      8.6440      1.5900     78.3900
     61      5.6280      2.7750      8.3250      2.1000     78.3900
     62      6.1830      2.1510      9.5440      1.5900     78.3900
     63      4.4560      2.1200      7.7080      1.5900     78.3900
     64      6.7860      2.8670      7.2650      1.5900     78.3900
     65      6.5920      3.4050      5.9400      1.7700     78.3900
     66      6.0300      4.3650      5.9630      0.0100     78.3900
     67      6.0050      2.6900      5.3190      0.0100     78.3900
     68      7.9370      3.6550      5.2370      1.7700     78.3900
     69      7.7870      4.1300      4.2440      0.0100     78.3900
     70      8.7610      4.5540      6.0350      1.5900     78.3900
     71     10.1240      4.1720      5.9450      1.7700     78.3900
     72     10.6650      5.0570      5.5350      0.0100     78.3900
     73     10.6960      3.8060      7.2790      1.6800     78.3900
     74      9.8730      3.5250      8.3440      1.7700     78.3900
     75      8.8090      3.5010      8.1160      0.0100     78.3900
     76     12.0670      3.7860      7.4300      1.7700     78.3900
     77     12.8420      4.0280      6.5130      1.5900     78.3900
     78     12.5060      3.5010      8.6990      1.6800     78.3900
     79     13.5140      3.4290      8.7850      0.0100     78.3900
     80     11.7400      3.2550      9.8160      1.7700     78.3900
     81     12.2730      3.0250     10.8990      1.5900     78.3900
     82     10.3300      3.2780      9.5770      1.7700     78.3900
     83      9.6550      3.0590     10.3990      0.0100     78.3900
     84     10.1890      3.0400      4.9400      1.7700     78.3900
     85     10.9720      2.3130      5.2070      0.0100     78.3900
     86     10.4290      3.5420      3.6370      1.5900     78.3900
     87     10.2680      2.8190      3.0120      0.0100     78.3900
     88      8.8070      2.4090      5.0560      1.7700     78.3900
     89      8.7250      1.8200      5.9970      0.0100     78.3900
     90      8.3850      1.6670      3.8910      1.5900     78.3900
     91      8.6690      0.1190      3.7830      2.1000     78.3900
     92      7.6590     -0.5680      4.6160      1.5900     78.3900
     93      8.7240     -0.2740      2.3580      1.5900     78.3900
     94     10.0810     -0.1210      4.4290      1.5900     78.3900
     95     11.3010      0.0370      3.6730      1.7700     78.3900
     96     11.3670      1.0540      3.2270      0.0100     78.3900
     97     11.3390     -0.7000      2.8340      0.0100     78.3900
     98     12.5500     -0.1730      4.5520      1.7700     78.3900
     99     13.4700      0.0220      3.9610      0.0100     78.3900
    100     12.5590      0.7400      5.6970      1.5900     78.3900
    101     13.0060      0.0710      6.8620      1.7700     78.3900
    102     13.8540      0.6900      7.2330      0.0100     78.3900
    103     11.9490     -0.0120      7.9320      1.6800     78.3900
    104     10.6110      0.1080      7.6240      1.7700     78.3900
    105     10.3960      0.3030      6.5790      0.0100     78.3900
    106     12.3380     -0.1640      9.2490      1.7700     78.3900
    107     13.5070     -0.2470      9.5970      1.5900     78.3900
    108     11.3270     -0.1920     10.1660      1.6800     78.3900
    109     11.6240     -0.2940     11.1280      0.0100     78.3900
    110      9.9820     -0.0480      9.9350      1.7700     78.3900
    111      9.1950     -0.0320     10.8780      1.5900     78.3900
    112      9.6400      0.1010      8.5520      1.7700     78.3900
    113      8.5950      0.2530      8.2930      0.0100     78.3900
    114     13.5230     -1.2870      6.4070      1.7700     78.3900
    115     13.3620     -2.0750      7.1740      0.0100     78.3900
    116     14.9040     -1.1770      6.0860      1.5900     78.3900
    117     15.4050     -1.6380      6.7830      0.0100     78.3900
    118     12.6670     -1.5610      5.1710      1.7700     78.3900
    119     11.6310     -1.8240      5.4880      0.0100     78.3900
    120     13.2380     -2.4940      4.2160      1.5900     78.3900
    121     12.6130     -3.9280      4.0640      2.1000     78.3900
    122     11.7580     -4.2040      5.2390      1.5900     78.3900
    123     11.9820     -4.0570      2.7370      1.5900     78.3900
    124     13.8740     -4.8830      4.1110      1.5900     78.3900
    125     13.8030     -6.2290      4.6450      1.7700     78.3900
    126     14.2270     -6.9280      3.8890      0.0100     78.3900
    127     12.7540     -6.5670      4.8120      0.0100     78.3900
    128     14.5930     -6.4350      5.9570      1.7700     78.3900
    129     14.4210     -7.4660      6.3350      0.0100     78.3900
    130     16.0270     -6.2600      5.7330      1.5900     78.3900
    131     16.4720     -5.0830      6.3900      1.7700     78.3900
    132     16.9800     -5.4300      7.3170      0.0100     78.3900
    133     17.3990     -4.3180      5.5430      1.6800     78.3900
    134     18.6550     -3.8900      5.8900      1.7700     78.3900
    135     21.1720     -3.5900      8.2460      1.6800     78.3900
    136     22.0730     -3.1670      8.3340      0.0100     78.3900
    137     20.7100     -3.9310      9.0680      0.0100     78.3900
    138     19.2560     -4.0870      7.0770      1.6800     78.3900
    139     20.4720     -3.5480      7.1260      1.7700     78.3900
    140     21.0600     -2.9180      6.0620      1.6800     78.3900
    141     21.9820     -2.5420      6.1900      0.0100     78.3900
    142     20.4770     -2.7330      4.8110      1.7700     78.3900
    143     21.0740     -2.1630      3.8900      1.5900     78.3900
    144     19.1560     -3.2610      4.7680      1.7700     78.3900
    145     18.2190     -3.2680      3.7380      1.6800     78.3900
    146     17.1920     -3.9160      4.2430      1.7700     78.3900
    147     16.2590     -4.1370      3.7190      0.0100     78.3900
    148     15.2420     -4.3020      6.7730      1.7700     78.3900
    149     14.9020     -3.7020      5.9070      0.0100     78.3900
    150     15.4400     -3.4510      7.8760      1.5900     78.3900
    151     14.8570     -3.7610      8.6080      0.0100     78.3900
    152     14.2430     -5.4250      7.0650      1.7700     78.3900
    153     13.2180     -5.0610      6.8400      0.0100     78.3900
    154     14.3180     -6.0170      8.3940      1.5900     78.3900
    155     13.3630     -5.4130      9.5090      2.1000     78.3900
    156     13.8450     -4.0530      9.8180      1.5900     78.3900
    157     11.9640     -5.5650      9.0480      1.5900     78.3900
    158     13.5630     -6.3370     10.7610      1.5900     78.3900
    159     13.8770     -5.7940     12.0660      1.7700     78.3900
    160     13.0090     -5.2250     12.4700      0.0100     78.3900
    161     14.7320     -5.0840     11.9940      0.0100     78.3900
    162     14.2590     -6.8800     13.0980      1.7700     78.3900
    163     13.3570     -7.2900     13.5990      0.0100     78.3900
    164     14.9040     -8.0020     12.4190      1.5900     78.3900
    165     16.0520     -8.4200     13.1370      1.7700     78.3900
    166     15.9270     -9.5190     13.2750      0.0100     78.3900
    167     17.3240     -8.1840     12.3940      1.6800     78.3900
    168     17.3200     -7.4880     11.2020      1.7700     78.3900
    169     16.3530     -7.1040     10.8640      0.0100     78.3900
    170     18.4450     -7.3140     10.4970      1.7700     78.3900
    171     18.4640     -6.7770      9.5500      0.0100     78.3900
    172     18.5180     -8.7170     12.8800      1.7700     78.3900
    173     18.5030     -9.3740     13.9340      1.5900     78.3900
    174     19.6640     -8.5410     12.1830      1.6800     78.3900
    175     19.6490     -7.8630     11.0230      1.7700     78.3900
    176     20.7790     -7.7420     10.3340      1.6800     78.3900
    177     21.6260     -8.0880     10.7360      0.0100     78.3900
    178     20.8360     -7.2070      9.4920      0.0100     78.3900
    179     16.0070     -7.7420     14.4890      1.7700     78.3900
    180     17.0160     -7.5410     14.9120      0.0100     78.3900
    181     15.2510     -8.5380     15.3860      1.5900     78.3900
    182     15.0560     -7.9970     16.1710      0.0100     78.3900
    183     15.2890     -6.4430     14.1640      1.7700     78.3900
    184     15.9910     -5.7450     13.6600      0.0100     78.3900
    185     14.6430     -5.8660     15.3150      1.5900     78.3900
    186     14.8930     -4.4080     15.8250      2.1000     78.3900
    187     14.3250     -3.4820     14.8240      1.5900     78.3900
    188     14.3850     -4.2890     17.2120      1.5900     78.3900
    189     16.4540     -4.2390     15.8280      1.5900     78.3900
    190     17.3150     -4.9120     16.7730      1.7700     78.3900
    191     17.0690     -5.9990     16.8450      0.0100     78.3900
    192     17.1860     -4.4670     17.7860      0.0100     78.3900
    193     18.7980     -4.7760     16.3760      1.7700     78.3900
    194     19.4640     -5.1710     17.1720      0.0100     78.3900
    195     19.0330     -5.5840     15.1860      1.5900     78.3900
    196     19.9440     -4.9120     14.3270      1.7700     78.3900
    197     20.8020     -5.6160     14.1890      0.0100     78.3900
    198     19.3380     -4.5970     13.0080      1.6800     78.3900
    199     18.0090     -4.2570     12.9470      1.7700     78.3900
    200     17.4750     -4.2930     13.8870      0.0100     78.3900
    201     17.4080     -3.9760     11.7870      1.7700     78.3900
    202     16.3480     -3.7440     11.7160      0.0100     78.3900
    203     20.1120     -4.5630     11.8520      1.7700     78.3900
    204     21.3260     -4.8000     11.9300      1.5900     78.3900
    205     19.5230     -4.2920     10.6650      1.6800     78.3900
    206     18.2110     -4.0140     10.6180      1.7700     78.3900
    207     17.6740     -3.7740      9.4430      1.6800     78.3900
    208     18.2500     -3.8870      8.6260      0.0100     78.3900
    209     16.7110     -3.5530      9.2800      0.0100     78.3900
    210     20.4410     -3.6760     15.0500      1.7700     78.3900
    211     20.6250     -2.8360     14.3560      0.0100     78.3900
    212     21.6220     -3.9630     15.7750      1.5900     78.3900
    213     21.8320     -3.1720     16.2950      0.0100     78.3900
    214     19.2760     -3.3590     15.9840      1.7700     78.3900
    215     18.4500     -2.8830     15.4070      0.0100     78.3900
    216     19.6210     -2.5910     17.1630      1.5900     78.3900
    217     19.7710     -1.0230     17.0720      2.1000     78.3900
    218     18.5350     -0.4770     16.4730      1.5900     78.3900
    219     20.1420     -0.5080     18.4070      1.5900     78.3900
    220     20.9770     -0.7860     16.0820      1.5900     78.3900
    221     21.0870      0.4470     15.3220      1.7700     78.3900
    222     21.6600      1.2020     15.9080      0.0100     78.3900
    223     20.0880      0.8890     15.0880      0.0100     78.3900
    224     21.8050      0.2260     13.9780      1.7700     78.3900
    225     22.8570     -0.0870     14.1380      0.0100     78.3900
    226     21.1430     -0.8440     13.2480      1.5900     78.3900
    227     21.1170     -0.5530     11.8680      1.7700     78.3900
    228     21.6020     -1.4140     11.3560      0.0100     78.3900
    229     19.7430     -0.4360     11.3840      1.6800     78.3900
    230     17.9690     -0.3330     10.0990      1.7700     78.3900
    231     17.5050     -0.3130     11.4060      1.6800     78.3900
    232     18.5920     -0.3760     12.1290      1.7700     78.3900
    233     18.6250     -0.3880     13.2210      0.0100     78.3900
    234     18.0880     -0.3100      7.7340      1.6800     78.3900
    235     19.4120     -0.3660      7.8730      1.7700     78.3900
    236     19.9840     -0.3690      6.9380      0.0100     78.3900
    237     20.1400     -0.4270      8.9910      1.6800     78.3900
    238     19.3480     -0.4090     10.0750      1.7700     78.3900
    239     17.3180     -0.2930      8.8480      1.7700     78.3900
    240     15.9940     -0.2070      8.6680      1.6800     78.3900
    241     15.3050     -0.2560      9.3990      0.0100     78.3900
    242     15.6530     -0.0180      7.7510      0.0100     78.3900
    243     21.9300      0.7030     11.6520      1.7700     78.3900
    244     21.5360      1.3310     10.8270      0.0100     78.3900
    245     23.2780      0.3540     11.3910      1.5900     78.3900
    246     23.8120      1.1560     11.4820      0.0100     78.3900
    247     21.7800      1.4110     12.9950      1.7700     78.3900
    248     20.7660      1.8690     13.0820      0.0100     78.3900
    249     22.8490      2.3340     13.2860      1.5900     78.3900
    250     22.6480      3.8830     13.1100      2.1000     78.3900
    251     21.4490      4.2690     13.8810      1.5900     78.3900
    252     23.9180      4.5660     13.4410      1.5900     78.3900
    253     22.3350      4.0790     11.5860      1.5900     78.3900
    254     23.3040      3.8720     10.5390      1.7700     78.3900
    255     23.7650      2.8610     10.6060      0.0100     78.3900
    256     24.1220      4.6220     10.6120      0.0100     78.3900
    257     22.6550      4.0100      9.1510      1.7700     78.3900
    258     23.4170      3.9280      8.3470      0.0100     78.3900
    259     21.6980      2.9270      8.9560      1.5900     78.3900
    260     20.5260      3.4290      8.3340      1.7700     78.3900
    261     20.3360      2.7820      7.4440      0.0100     78.3900
    262     19.3680      3.3570      9.2340      1.6800     78.3900
    263     17.3320      3.2040     10.0480      1.7700     78.3900
    264     18.1850      3.1870     11.1410      1.6800     78.3900
    265     19.3740      3.2820     10.6060      1.7700     78.3900
    266     20.3010      3.2850     11.1700      0.0100     78.3900
    267     15.3890      3.1720      8.7020      1.6800     78.3900
    268     16.2100      3.2840      7.6490      1.7700     78.3900
    269     15.7210      3.3140      6.6680      0.0100     78.3900
    270     17.5460      3.3680      7.6220      1.6800     78.3900
    271     18.0470      3.3140      8.8670      1.7700     78.3900
    272     15.9310      3.1220      9.9450      1.7700     78.3900
    273     15.1330      2.9900     11.0230      1.6800     78.3900
    274     15.5180      2.9420     11.9510      0.0100     78.3900
    275     14.1370      2.9210     10.9310      0.0100     78.3900
    276     20.8320      4.8360      7.8720      1.7700     78.3900
    277     19.9330      5.4820      7.8600      0.0100     78.3900
    278     21.4110      4.8110      6.5810      1.5900     78.3900
    279     21.6560      5.7220      6.3780      0.0100     78.3900
    280     21.8390      5.2960      8.9220      1.7700     78.3900
    281     21.3170      5.5280      9.8800      0.0100     78.3900
    282     22.7160      6.3590      8.4910      1.5900     78.3900
    283     22.3050      7.8560      8.7350      2.1000     78.3900
    284     21.8980      8.0180     10.1480      1.5900     78.3900
    285     23.3920      8.7360      8.2500      1.5900     78.3900
    286     21.0350      8.0690      7.8330      1.5900     78.3900
    287     21.1750      8.2410      6.4030      1.7700     78.3900
    288     21.7160      7.3830      5.9410      0.0100     78.3900
    289     21.7520      9.1670      6.1710      0.0100     78.3900
    290     19.8020      8.3570      5.7330      1.7700     78.3900
    291     19.8990      8.4350      4.6260      0.0100     78.3900
    292     19.0140      7.1670      6.0150      1.5900     78.3900
    293     17.6570      7.5390      6.1920      1.7700     78.3900
    294     17.0640      6.9380      5.4680      0.0100     78.3900
    295     17.1830      7.2430      7.5480      1.6800     78.3900
    296     15.8790      7.1420      7.9490      1.7700     78.3900
    297     12.4820      7.3680      7.2790      1.6800     78.3900
    298     12.4570      7.6100      6.3110      0.0100     78.3900
    299     11.6190      7.3170      7.7890      0.0100     78.3900
    300     14.7930      7.3210      7.1700      1.6800     78.3900
    301     13.6570      7.1870      7.8560      1.7700     78.3900
    302     13.6180      6.8620      9.1880      1.6800     78.3900
    303     12.7190      6.7830      9.6360      0.0100     78.3900
    304     14.7210      6.6480     10.0050      1.7700     78.3900
    305     14.5890      6.3530     11.1960      1.5900     78.3900
    306     15.9350      6.8220      9.2930      1.7700     78.3900
    307     17.2520      6.7440      9.7310      1.6800     78.3900
    308     17.9550      7.0170      8.6620      1.7700     78.3900
    309     19.0430      7.0750      8.6160      0.0100     78.3900
    310     17.5370      9.0060      5.8530      1.7700     78.3900
    311     16.7420      9.5150      6.4340      0.0100     78.3900
    312     17.2750      9.1490      4.4700      1.5900     78.3900
    313     17.2680     10.0940      4.2770      0.0100     78.3900
    314     18.9250      9.5150      6.2310      1.7700     78.3900
    315     19.0390      9.5480      7.3420      0.0100     78.3900
    316     19.3240     10.7420      5.5840      1.5900     78.3900
    317     19.1020     12.1120      6.3270      2.1000     78.3900
    318     19.5170     11.9850      7.7390      1.5900     78.3900
    319     19.7600     13.1830      5.5490      1.5900     78.3900
    320     17.5420     12.2960      6.2690      1.5900     78.3900
    321     16.8930     12.5140      4.9960      1.7700     78.3900
    322     17.1470     11.7260      4.2510      0.0100     78.3900
    323     17.2160     13.4860      4.5610      0.0100     78.3900
    324     15.3710     12.5620      5.1650      1.7700     78.3900
    325     14.8640     12.7730      4.1980      0.0100     78.3900
    326     14.8810     11.2750      5.6410      1.5900     78.3900
[...]
     8   1.0   0.7392665
     9   7.0   7.8464995
    10   6.0   5.8207653
    11   1.0   0.6637626
    12   6.0   4.8859929
    13   8.0   8.6721846
    14   7.0   7.9345950
    15   1.0   0.5158227
    16   6.0   5.1145732
    17   8.0   8.7289800
    18   6.0   6.4754507
    19   1.0   0.7261512
    20   6.0   5.8937022
    21   1.0   0.7663466
    22   8.0   8.8329403
    23   1.0   0.4958613
    24   6.0   5.8611948
    25   1.0   0.7901027
    26   8.0   8.7869003
    27  15.0  13.4093508
    28   8.0   8.8896402
    29   8.0   8.8937902
    30   8.0   8.9851573
    31   5.0   5.3749207
    32   1.0   0.8672867
    33   1.0   0.7483237
    34   6.0   5.9037462
    35   1.0   0.7421329
    36   8.0   8.7311743
    37   6.0   5.5690920
    38   1.0   0.7425725
    39   7.0   7.8279052
    40   6.0   5.8065544
    41   1.0   0.6981216
    42   6.0   6.4109078
    43   1.0   0.7268586
    44   6.0   4.9363348
    45   8.0   8.7894498
    46   7.0   7.8774731
    47   6.0   5.2461376
    48   7.0   7.9478282
    49   1.0   0.5317514
    50   1.0   0.5560774
    51   6.0   5.9061836
    52   1.0   0.7667262
    53   8.0   8.8408800
    54   1.0   0.4749317
    55   6.0   5.8633776
    56   1.0   0.7585318
    57   8.0   8.7908840
    58  15.0  13.3506384
    59   8.0   8.8842387
    60   8.0   8.8895132
    61   8.0   8.7846925
    62   1.0   0.3978906
 Redoing 1e ESP:                    -1

  iFrag=      3 jFrag=      2 EFMOc= -2761.494286544

  iFrag=      3 jFrag=      2 EFMOu= -2755.634473280 Tr=-0.000074762

 I,J=       7       4 Ees_I(J)=   -7.881 Ees_J(I)=  -11.842 Ees_IJ=  -19.723

 energy of the separated dimer    7    4, L1=  680 is     -2740.692235463

 CPU     0: STEP CPU TIME=   315.68 TOTAL CPU TIME=      16913.2 (    281.9 MIN)
 TOTAL WALL CLOCK TIME=      38120.4 SECONDS, CPU UTILIZATION IS    44.37%

 RHF      dimer      7      4 corr= MP2        , LL1=   680 ID=            23

          -----------------------
          MP2 CONTROL INFORMATION
          -----------------------
          NACORE =       48  NBCORE =       48
          LMOMP2 =        F  AOINTS = DUP     
          METHOD =        2  NWORD  =               0
          MP2PRP =        F  OSPT   = NONE    
          CUTOFF = 1.00E-12  CPHFBS = BASISAO 
          CODE   = IMS     

          NUMBER OF CORE -A-  ORBITALS =    48
          NUMBER OF CORE -B-  ORBITALS =    48
          NUMBER OF OCC. -A-  ORBITALS =   158
          NUMBER OF OCC. -B-  ORBITALS =   158
          NUMBER OF MOLECULAR ORBITALS =   680
          NUMBER OF   BASIS  FUNCTIONS =   680


 AO spaces for     7     4     0 n-mer: L1=   680, L0=   638

 DIRECT SCF CALCULATION, SCHWRZ=T   FDIFF=T,  DIRTHR=  0.00E+00 NITDIR=10

                                                                                   NONZERO     BLOCKS
 ITER EX DEM     TOTAL ENERGY        E CHANGE  DENSITY CHANGE     ORB. GRAD      INTEGRALS    SKIPPED
   1  0  0    -2643.0456389542 -2643.0456389542   0.006646691   0.000000000     2536572673  229923919
          ---------------START SECOND ORDER SCF---------------
   2  1  0    -2643.0457335961    -0.0000946419   0.001096272   0.000189187     2161057617  236798550
   3  2  0    -2643.0457480390    -0.0000144428   0.000405567   0.000114628     1996734323  238494897
   4  3  0    -2643.0457476239     0.0000004151   0.000110436   0.000027782     1877427452  239641347
   5  4  0    -2643.0457465159     0.0000011080   0.000043650   0.000010029     1730436915  241104759
   6  5  0    -2643.0457477609    -0.0000012450   0.000016707   0.000004669     1646909231  241822705
   7  6  0    -2643.0457478100    -0.0000000490   0.000005619   0.000001520     1504301433  243196919
   8  7  0    -2643.0457478598    -0.0000000499   0.000002949   0.000000537     1384056651  244210847
   9  8  0    -2643.0457478629    -0.0000000031   0.000000541   0.000000159     1272885570  245164666
  10  9  0    -2643.0457478889    -0.0000000259   0.000000198   0.000000075     1160660928  246157015
  11 10  0    -2643.0457478824     0.0000000065   0.000000094   0.000000025     1045438324  247104709

          -----------------
          DENSITY CONVERGED
          -----------------
     TIME TO FORM FOCK OPERATORS=      61.6 SECONDS (       5.6 SEC/ITER)
     FOCK TIME ON FIRST ITERATION=       9.3, LAST ITERATION=       3.7
     TIME TO SOLVE SCF EQUATIONS=       1.1 SECONDS (       0.1 SEC/ITER)

 FINAL RHF ENERGY IS    -2643.0457478824 AFTER  11 ITERATIONS
 ...... END OF RHF CALCULATION ......
 CPU     0: STEP CPU TIME=   117.61 TOTAL CPU TIME=      17030.8 (    283.8 MIN)
 TOTAL WALL CLOCK TIME=      38361.8 SECONDS, CPU UTILIZATION IS    44.40%

 --------------------------   -----------------------------
 RHF-MP2 ENERGY CALCULATION   PROGRAM WRITTEN BY K.ISHIMURA
 --------------------------   -----------------------------
 NUMBER OF OCCUPIED ORBITALS            =  158
 NUMBER OF CORRELATED OCCUPIED ORBITALS =  110
 NUMBER OF VIRTUAL ORBITALS             =  470
 NUMBER OF BASIS FUNCTIONS              =  680
 NUMBER OF BASIS SHELLS                 =  212
 AO-TRANSFORMED INTEGRAL THRESHOLD      = 1.00E-12
 HALF-TRANSFORMED INTEGRAL THRESHOLD    = 3.75E-14

 NUMBER OF REDUNDANT MOS IN FMO         =   10
 TOTAL DISK REQUIRED (ALL PROCESSORS)=          15609 MBYTES
                  DISK SPACE PER CORE=            975 MBYTES, USING P=   16
 MEMORY REQUIRED FOR TRANSFORMATION OF 1ST THREE INDICES=    28876331
 MEMORY REQUIRED FOR    4TH INDEX TRANSF. AND MP2 ENERGY=    57009476
 BEGINNING MP2 INTEGRAL TRANSFORMATION...
 BEGINNING    1ST SHELL LOOP...
 BEGINNING   26TH SHELL LOOP...
 BEGINNING   51ST SHELL LOOP...
 BEGINNING   76TH SHELL LOOP...
 BEGINNING  101ST SHELL LOOP...
 BEGINNING  126TH SHELL LOOP...
 BEGINNING  151ST SHELL LOOP...
 BEGINNING  176TH SHELL LOOP...
 BEGINNING  201ST SHELL LOOP...

 RESULTS OF MOLLER-PLESSET 2ND ORDER CORRECTION ARE
               E(0)=     -2643.0457478824
               E(1)=         0.0
               E(2)=        -5.7959474089
             E(MP2)=     -2648.8416952913
 SPIN-COMPONENT-SCALED MP2 RESULTS ARE
              E(2S)=        -4.2046020330
              E(2T)=        -1.5913453759
             E(2ST)=        -5.5759708982 = 6/5 * E(2S) + 1/3 * E(2T)
            SCS-MP2=     -2648.6217187806

          ---------------------
          ELECTROSTATIC MOMENTS
          ---------------------

 POINT   1           X           Y           Z (BOHR)    CHARGE
                27.793886    4.244032   18.466762       -2.00 (A.U.)
         DX          DY          DZ         /D/  (DEBYE)
   -21.428337   46.837654  -13.464328   53.237464

 Atomic populations
     I    Z      Q
     1   5.0   5.4015050
     2   1.0   0.7969815
     3   1.0   0.7717771
     4   6.0   5.9216878
     5   1.0   0.7513142
     6   8.0   8.7268430
     7   6.0   5.6026840
     8   1.0   0.7418146
     9   7.0   7.8096494
    10   6.0   5.8280120
    11   1.0   0.6896597
    12   6.0   6.3912958
    13   1.0   0.7452195
    14   6.0   4.9811707
    15   8.0   8.7460008
    16   7.0   7.8367423
    17   6.0   5.2848360
    18   7.0   7.9036798
    19   1.0   0.5607103
    20   1.0   0.5652613
    21   6.0   5.8719808
    22   1.0   0.7576640
    23   8.0   8.8473346
    24   1.0   0.4893050
    25   6.0   5.8493716
    26   1.0   0.7612872
    27   8.0   8.7832054
    28  15.0  13.3994303
    29   8.0   8.9213986
    30   8.0   8.8775710
    31   8.0   8.9795848
    32   5.0   5.4102532
    33   1.0   0.8169597
    34   1.0   0.7519612
    35   6.0   5.9046745
    36   1.0   0.7400085
    37   8.0   8.7336384
    38   6.0   5.5623091
    39   1.0   0.7709016
    40   7.0   7.8454991
    41   6.0   5.8214077
    42   1.0   0.6939698
    43   6.0   4.8535136
    44   8.0   8.7139868
    45   7.0   7.9408819
    46   1.0   0.5308052
    47   6.0   5.1354677
    48   8.0   8.6897690
    49   6.0   6.4410585
    50   1.0   0.7170590
    51   6.0   5.8862665
    52   1.0   0.7586881
    53   8.0   8.8336814
    54   1.0   0.4902302
    55   6.0   5.8277874
    56   1.0   0.7533266
    57   8.0   8.7749946
    58  15.0  13.4493007
    59   8.0   8.9198246
    60   8.0   8.8738660
    61   8.0   8.9566643
    62   1.0   0.4049759
    63   1.0   0.4012913
 Redoing 1e ESP:                    -1

  iFrag=      7 jFrag=      4 EFMOc= -2746.487129031

  iFrag=      7 jFrag=      4 EFMOu= -2740.691181622 Tr=-0.001104569

 I,J=       4       2 Ees_I(J)=  -11.775 Ees_J(I)=  -18.852 Ees_IJ=  -30.627

 energy of the separated dimer    4    2, L1=  680 is     -2740.632521827

 CPU     0: STEP CPU TIME=   203.86 TOTAL CPU TIME=      17234.7 (    287.2 MIN)
 TOTAL WALL CLOCK TIME=      38721.5 SECONDS, CPU UTILIZATION IS    44.51%

 RHF      dimer      4      2 corr= MP2        , LL1=   680 ID=            24

          -----------------------
          MP2 CONTROL INFORMATION
          -----------------------
          NACORE =       48  NBCORE =       48
          LMOMP2 =        F  AOINTS = DUP     
          METHOD =        2  NWORD  =               0
          MP2PRP =        F  OSPT   = NONE    
          CUTOFF = 1.00E-12  CPHFBS = BASISAO 
          CODE   = IMS     

          NUMBER OF CORE -A-  ORBITALS =    48
          NUMBER OF CORE -B-  ORBITALS =    48
          NUMBER OF OCC. -A-  ORBITALS =   158
          NUMBER OF OCC. -B-  ORBITALS =   158
          NUMBER OF MOLECULAR ORBITALS =   680
          NUMBER OF   BASIS  FUNCTIONS =   680


 AO spaces for     4     2     0 n-mer: L1=   680, L0=   638

 DIRECT SCF CALCULATION, SCHWRZ=T   FDIFF=T,  DIRTHR=  0.00E+00 NITDIR=10

                                                                                   NONZERO     BLOCKS
 ITER EX DEM     TOTAL ENERGY        E CHANGE  DENSITY CHANGE     ORB. GRAD      INTEGRALS    SKIPPED
   1  0  0    -2653.7228657696 -2653.7228657696   0.034542866   0.000000000     2789888906  227824389
          ---------------START SECOND ORDER SCF---------------
   2  1  0    -2654.7225378950    -0.9996721254   0.007139160   0.000632454     2387943265  235329197
   3  2  0    -2654.7225489415    -0.0000110465   0.002199091   0.000171483     2174255794  237469689
   4  3  0    -2654.7225554833    -0.0000065417   0.000152828   0.000035823     2043730947  238713239
   5  4  0    -2654.7225487833     0.0000067000   0.000110414   0.000022312     1905869560  239883919
   6  5  0    -2654.7225501976    -0.0000014143   0.000014487   0.000008440     1721353056  241612387
   7  6  0    -2654.7225504627    -0.0000002651   0.000007602   0.000002641     1620209786  242473600
   8  7  0    -2654.7225503800     0.0000000827   0.000002404   0.000000642     1543514641  243054627
   9  8  0    -2654.7225503676     0.0000000124   0.000001713   0.000000388     1366015994  244658905
  10  9  0    -2654.7225503859    -0.0000000184   0.000000374   0.000000100     1270002871  245413261
  11 10  0    -2654.7225503991    -0.0000000132   0.000000090   0.000000051     1109383985  246755737
  12 11  0    -2654.7225503988     0.0000000003   0.000000047   0.000000017      984255815  247779183

          -----------------
          DENSITY CONVERGED
          -----------------
     TIME TO FORM FOCK OPERATORS=      74.4 SECONDS (       6.2 SEC/ITER)
     FOCK TIME ON FIRST ITERATION=       9.4, LAST ITERATION=       3.6
     TIME TO SOLVE SCF EQUATIONS=       1.2 SECONDS (       0.1 SEC/ITER)

 FINAL RHF ENERGY IS    -2654.7225503988 AFTER  12 ITERATIONS
 ...... END OF RHF CALCULATION ......
 CPU     0: STEP CPU TIME=   152.69 TOTAL CPU TIME=      17387.4 (    289.8 MIN)
 TOTAL WALL CLOCK TIME=      39024.7 SECONDS, CPU UTILIZATION IS    44.55%

 --------------------------   -----------------------------
 RHF-MP2 ENERGY CALCULATION   PROGRAM WRITTEN BY K.ISHIMURA
 --------------------------   -----------------------------
 NUMBER OF OCCUPIED ORBITALS            =  158
 NUMBER OF CORRELATED OCCUPIED ORBITALS =  110
 NUMBER OF VIRTUAL ORBITALS             =  470
 NUMBER OF BASIS FUNCTIONS              =  680
 NUMBER OF BASIS SHELLS                 =  212
 AO-TRANSFORMED INTEGRAL THRESHOLD      = 1.00E-12
 HALF-TRANSFORMED INTEGRAL THRESHOLD    = 4.43E-14

 NUMBER OF REDUNDANT MOS IN FMO         =   10
 TOTAL DISK REQUIRED (ALL PROCESSORS)=          15609 MBYTES
                  DISK SPACE PER CORE=            975 MBYTES, USING P=   16
 MEMORY REQUIRED FOR TRANSFORMATION OF 1ST THREE INDICES=    28876331
 MEMORY REQUIRED FOR    4TH INDEX TRANSF. AND MP2 ENERGY=    57009476
 BEGINNING MP2 INTEGRAL TRANSFORMATION...
 BEGINNING    1ST SHELL LOOP...
 BEGINNING   26TH SHELL LOOP...
 BEGINNING   51ST SHELL LOOP...
 BEGINNING   76TH SHELL LOOP...
 BEGINNING  101ST SHELL LOOP...
 BEGINNING  126TH SHELL LOOP...
 BEGINNING  151ST SHELL LOOP...
 BEGINNING  176TH SHELL LOOP...
 BEGINNING  201ST SHELL LOOP...

 RESULTS OF MOLLER-PLESSET 2ND ORDER CORRECTION ARE
               E(0)=     -2654.7225503988
               E(1)=         0.0
               E(2)=        -5.7945971483
             E(MP2)=     -2660.5171475471
 SPIN-COMPONENT-SCALED MP2 RESULTS ARE
              E(2S)=        -4.2038426061
              E(2T)=        -1.5907545422
             E(2ST)=        -5.5748626414 = 6/5 * E(2S) + 1/3 * E(2T)
            SCS-MP2=     -2660.2974130402

          ---------------------
          ELECTROSTATIC MOMENTS
          ---------------------

 POINT   1           X           Y           Z (BOHR)    CHARGE
                27.793886    4.244032   18.466762       -2.00 (A.U.)
         DX          DY          DZ         /D/  (DEBYE)
    55.842030   19.824130   38.594696   70.716894

 Atomic populations
     I    Z      Q
     1   5.0   5.4102047
     2   1.0   0.8173868
     3   1.0   0.7505957
     4   6.0   5.9052364
     5   1.0   0.7401780
     6   8.0   8.7341806
     7   6.0   5.5618006
     8   1.0   0.7735060
     9   7.0   7.8454557
    10   6.0   5.8212442
    11   1.0   0.6928494
    12   6.0   4.8525858
    13   8.0   8.7177130
    14   7.0   7.9410875
    15   1.0   0.5337054
    16   6.0   5.1356253
    17   8.0   8.6889151
    18   6.0   6.4439941
    19   1.0   0.7154698
    20   6.0   5.8872999
    21   1.0   0.7565929
    22   8.0   8.8337087
    23   1.0   0.4912673
    24   6.0   5.8271267
    25   1.0   0.7525288
    26   8.0   8.7749855
    27  15.0  13.4496825
    28   8.0   8.9181541
    29   8.0   8.8738368
    30   8.0   8.9574028
    31   5.0   5.3745864
    32   1.0   0.8674662
    33   1.0   0.7472933
    34   6.0   5.9045268
    35   1.0   0.7421110
    36   8.0   8.7305123
    37   6.0   5.5714185
    38   1.0   0.7423075
    39   7.0   7.8264234
    40   6.0   5.8061367
    41   1.0   0.6977604
    42   6.0   6.4116887
    43   1.0   0.7266448
    44   6.0   4.9392291
    45   8.0   8.7880028
    46   7.0   7.8757452
    47   6.0   5.2482610
    48   7.0   7.9469731
    49   1.0   0.5323285
    50   1.0   0.5557085
    51   6.0   5.8658970
    52   1.0   0.8077733
    53   8.0   8.8240230
    54   1.0   0.4979656
    55   6.0   5.8513538
    56   1.0   0.7572586
    57   8.0   8.7878543
    58  15.0  13.3998829
    59   8.0   8.8856762
    60   8.0   8.8917013
    61   8.0   8.9756202
    62   1.0   0.3997139
    63   1.0   0.4158358
 Redoing 1e ESP:                    -1

  iFrag=      4 jFrag=      2 EFMOc= -2746.428086891

  iFrag=      4 jFrag=      2 EFMOu= -2740.633489742 Tr= 0.000241036

 I,J=       4       3 Ees_I(J)=  -23.436 Ees_J(I)=  -24.654 Ees_IJ=  -48.090

 energy of the separated dimer    4    3, L1=  678 is     -2775.170036204

 CPU     0: STEP CPU TIME=   214.15 TOTAL CPU TIME=      17601.6 (    293.4 MIN)
 TOTAL WALL CLOCK TIME=      39417.6 SECONDS, CPU UTILIZATION IS    44.65%

 RHF      dimer      4      3 corr= MP2        , LL1=   678 ID=            25

          -----------------------
          MP2 CONTROL INFORMATION
          -----------------------
          NACORE =       48  NBCORE =       48
          LMOMP2 =        F  AOINTS = DUP     
          METHOD =        2  NWORD  =               0
          MP2PRP =        F  OSPT   = NONE    
          CUTOFF = 1.00E-12  CPHFBS = BASISAO 
          CODE   = IMS     

          NUMBER OF CORE -A-  ORBITALS =    48
          NUMBER OF CORE -B-  ORBITALS =    48
          NUMBER OF OCC. -A-  ORBITALS =   158
          NUMBER OF OCC. -B-  ORBITALS =   158
          NUMBER OF MOLECULAR ORBITALS =   663
          NUMBER OF   BASIS  FUNCTIONS =   663


 AO spaces for     4     3     0 n-mer: L1=   663, L0=   622

 DIRECT SCF CALCULATION, SCHWRZ=T   FDIFF=T,  DIRTHR=  0.00E+00 NITDIR=10

                                                                                   NONZERO     BLOCKS
 ITER EX DEM     TOTAL ENERGY        E CHANGE  DENSITY CHANGE     ORB. GRAD      INTEGRALS    SKIPPED
   1  0  0    -2667.8890019527 -2667.8890019527   0.135236866   0.000000000     4730219944  182084329
          ---------------START SECOND ORDER SCF---------------
   2  1  0    -2670.2461181421    -2.3571161895   0.043579548   0.005373893     4519706021  187593103
   3  2  0    -2670.2517985751    -0.0056804330   0.015686891   0.001872406     4223364080  191800214
   4  3  0    -2670.2527518608    -0.0009532858   0.004742523   0.000817102     4002701655  194164558
   5  4  0    -2670.2527387450     0.0000131158   0.000891539   0.000090440     3715400235  197097789
   6  5  0    -2670.2527394483    -0.0000007033   0.000258548   0.000047200     3405710672  199970783
   7  6  0    -2670.2527399889    -0.0000005406   0.000098798   0.000013830     3116023653  202536116
   8  7  0    -2670.2527384811     0.0000015078   0.000026328   0.000004754     2829110507  205048430
   9  8  0    -2670.2527382435     0.0000002376   0.000009311   0.000001803     2557430930  207354966
  10  9  0    -2670.2527380844     0.0000001591   0.000003298   0.000000581     2267086918  209859351
  11 10  0    -2670.2527380377     0.0000000467   0.000000982   0.000000343     2037000518  211775308
  12 11  0    -2670.2527380228     0.0000000149   0.000000450   0.000000147     1798470621  213753450
  13 12  0    -2670.2527380247    -0.0000000018   0.000000130   0.000000029     1648627225  214945946
  14 13  0    -2670.2527380208     0.0000000039   0.000000047   0.000000016     1367769381  217203278

          -----------------
          DENSITY CONVERGED
          -----------------
     TIME TO FORM FOCK OPERATORS=     136.9 SECONDS (       9.8 SEC/ITER)
     FOCK TIME ON FIRST ITERATION=      16.8, LAST ITERATION=       5.0
     TIME TO SOLVE SCF EQUATIONS=       1.2 SECONDS (       0.1 SEC/ITER)

 FINAL RHF ENERGY IS    -2670.2527380208 AFTER  14 ITERATIONS
 ...... END OF RHF CALCULATION ......
 CPU     0: STEP CPU TIME=   215.19 TOTAL CPU TIME=      17816.7 (    296.9 MIN)
 TOTAL WALL CLOCK TIME=      39868.0 SECONDS, CPU UTILIZATION IS    44.69%

 --------------------------   -----------------------------
 RHF-MP2 ENERGY CALCULATION   PROGRAM WRITTEN BY K.ISHIMURA
 --------------------------   -----------------------------
 NUMBER OF OCCUPIED ORBITALS            =  158
 NUMBER OF CORRELATED OCCUPIED ORBITALS =  110
 NUMBER OF VIRTUAL ORBITALS             =  459
 NUMBER OF BASIS FUNCTIONS              =  663
 NUMBER OF BASIS SHELLS                 =  206
 AO-TRANSFORMED INTEGRAL THRESHOLD      = 1.00E-12
 HALF-TRANSFORMED INTEGRAL THRESHOLD    = 5.45E-14

 NUMBER OF REDUNDANT MOS IN FMO         =    5
 TOTAL DISK REQUIRED (ALL PROCESSORS)=          14862 MBYTES
                  DISK SPACE PER CORE=            928 MBYTES, USING P=   16
 MEMORY REQUIRED FOR TRANSFORMATION OF 1ST THREE INDICES=    28187323
 MEMORY REQUIRED FOR    4TH INDEX TRANSF. AND MP2 ENERGY=    57344080
 BEGINNING MP2 INTEGRAL TRANSFORMATION...
 BEGINNING    1ST SHELL LOOP...
 BEGINNING   26TH SHELL LOOP...
 BEGINNING   51ST SHELL LOOP...
 BEGINNING   76TH SHELL LOOP...
 BEGINNING  101ST SHELL LOOP...
 BEGINNING  126TH SHELL LOOP...
 BEGINNING  151ST SHELL LOOP...
 BEGINNING  176TH SHELL LOOP...
 BEGINNING  201ST SHELL LOOP...
