‘2LBJ_2_fmo_input.inp’ -> ‘/scratch/hazwong/820846/./2LBJ_2_fmo_input.inp’
‘rungms’ -> ‘/scratch/hazwong/820846/./rungms’
‘gms-files.csh’ -> ‘/scratch/hazwong/820846/./gms-files.csh’
----- GAMESS execution script 'rungms' -----
This job is running on host gollum060.lsa.umich.edu
under operating system Linux at Fri Dec 6 00:44:06 EST 2019
Available scratch disk space (Kbyte units) at beginning of the job is
Filesystem     1K-blocks  Used Available Use% Mounted on
/dev/sda4      426933580 33468 426900112   1% /scratch
GAMESS temporary binary files will be written to /scratch/hazwong/820846/2LBJ_2/usrc
GAMESS supplementary output files will be written to /scratch/hazwong/820846/2LBJ_2/src
Copying input file 2LBJ_2_fmo_input.inp to your run's scratch directory...
cp 2LBJ_2_fmo_input.inp /scratch/hazwong/820846/2LBJ_2/usrc/2LBJ_2_fmo_input.F05
unset echo
setenv OUTPUT /scratch/hazwong/820846/2LBJ_2/usrc/2LBJ_2_fmo_input.F06
This is a GDDI run, keeping various output files on local disks
setenv PUNCH /scratch/hazwong/820846/2LBJ_2/usrc/2LBJ_2_fmo_input.F07
unset echo
 
Assuming a single but multicore node.
 
/export/apps/CentOS7/gamess/src/build//ddikick.x /export/apps/CentOS7/gamess/src/build//gamess.R3.x 2LBJ_2_fmo_input -ddi 1 16 gollum060.lsa.umich.edu:cpus=16 -scr /scratch/hazwong/820846/2LBJ_2/usrc

 Distributed Data Interface kickoff program.
 Initiating 16 compute processes on 1 nodes to run the following command:
 /export/apps/CentOS7/gamess/src/build//gamess.R3.x 2LBJ_2_fmo_input 

          ******************************************************
          *         GAMESS VERSION = 30 SEP 2018 (R3)         *
          *             FROM IOWA STATE UNIVERSITY             *
          * M.W.SCHMIDT, K.K.BALDRIDGE, J.A.BOATZ, S.T.ELBERT, *
          *   M.S.GORDON, J.H.JENSEN, S.KOSEKI, N.MATSUNAGA,   *
          *          K.A.NGUYEN, S.J.SU, T.L.WINDUS,           *
          *       TOGETHER WITH M.DUPUIS, J.A.MONTGOMERY       *
          *         J.COMPUT.CHEM.  14, 1347-1363(1993)        *
          **************** 64 BIT LINUX VERSION ****************

  SINCE 1993, STUDENTS AND POSTDOCS WORKING AT IOWA STATE UNIVERSITY
  AND ALSO IN THEIR VARIOUS JOBS AFTER LEAVING ISU HAVE MADE IMPORTANT
  CONTRIBUTIONS TO THE CODE:
     IVANA ADAMOVIC, CHRISTINE AIKENS, YURI ALEXEEV, POOJA ARORA,
     ANDREY ASADCHEV, ROB BELL, PRADIPTA BANDYOPADHYAY, JONATHAN BENTZ,
     BRETT BODE, KURT BRORSEN, CALEB CARLIN, GALINA CHABAN, WEI CHEN,
     CHEOL HO CHOI, PAUL DAY, ALBERT DEFUSCO, NUWAN DESILVA, TIM DUDLEY,
     DMITRI FEDOROV, ALEX FINDLATER, GRAHAM FLETCHER, MARK FREITAG,
     KURT GLAESEMANN, ANASTASIA GUNINA,
     DAN KEMP, GRANT MERRILL, NORIYUKI MINEZAWA, JONATHAN MULLIN,
     TAKESHI NAGATA, SEAN NEDD, HEATHER NETZLOFF, BOSILJKA NJEGIC, RYAN OLSON,
     MIKE PAK, BUU PHAM,
     SPENCER PRUITT, LUKE ROSKOP, JIM SHOEMAKER, LYUDMILA SLIPCHENKO,
     TONY SMITH, SAROM SOK LEANG, JIE SONG, TETSUYA TAKETSUGU, SIMON WEBB,
     PENG XU, SOOHAENG YOO, FEDERICO ZAHARIEV

  ADDITIONAL CODE HAS BEEN PROVIDED BY COLLABORATORS IN OTHER GROUPS:
     IOWA STATE UNIVERSITY:
          JOE IVANIC, AARON WEST, LAIMUTIS BYTAUTAS, KLAUS RUEDENBERG
     UNIVERSITY OF TOKYO: KIMIHIKO HIRAO, TAKAHITO NAKAJIMA,
          TAKAO TSUNEDA, MUNEAKI KAMIYA, SUSUMU YANAGISAWA,
          KIYOSHI YAGI, MAHITO CHIBA, SEIKEN TOKURA, NAOAKI KAWAKAMI
     UNIVERSITY OF AARHUS: FRANK JENSEN
     UNIVERSITY OF IOWA: VISVALDAS KAIRYS, HUI LI
     NATIONAL INST. OF STANDARDS AND TECHNOLOGY: WALT STEVENS, DAVID GARMER
     UNIVERSITY OF PISA: BENEDETTA MENNUCCI, JACOPO TOMASI
     UNIVERSITY OF MEMPHIS: HENRY KURTZ, PRAKASHAN KORAMBATH
     UNIVERSITY OF ALBERTA: TOBY ZENG, MARIUSZ KLOBUKOWSKI
     UNIVERSITY OF NEW ENGLAND: MARK SPACKMAN
     MIE UNIVERSITY: HIROAKI UMEDA
     NAT. INST. OF ADVANCED INDUSTRIAL SCIENCE AND TECHNOLOGY: KAZUO KITAURA
     MICHIGAN STATE UNIVERSITY:
          KAROL KOWALSKI, MARTA WLOCH, JEFFREY GOUR, JESSE LUTZ,
          WEI LI, JUN SHEN, J. EMILIANO DEUSTUA, PIOTR PIECUCH
     UNIVERSITY OF MINNESOTA:
          YINAN SHU
     UNIVERSITY OF SILESIA: MONIKA MUSIAL, STANISLAW KUCHARSKI
     FACULTES UNIVERSITAIRES NOTRE-DAME DE LA PAIX:
          OLIVIER QUINET, BENOIT CHAMPAGNE
     UNIVERSITY OF CALIFORNIA - SANTA BARBARA: BERNARD KIRTMAN
     INSTITUTE FOR MOLECULAR SCIENCE:
          KAZUYA ISHIMURA, MICHIO KATOUDA, AND SHIGERU NAGASE
     UNIVERSITY OF NOTRE DAME: ANNA POMOGAEVA, DAN CHIPMAN
     KYUSHU UNIVERSITY:
          HARUYUKI NAKANO,
          FENG LONG GU, JACEK KORCHOWIEC, MARCIN MAKOWSKI, AND YURIKO AOKI,
          HIROTOSHI MORI AND EISAKU MIYOSHI
     PENNSYLVANIA STATE UNIVERSITY:
          TZVETELIN IORDANOV, CHET SWALINA, JONATHAN SKONE,
          SHARON HAMMES-SCHIFFER
     WASEDA UNIVERSITY:
          MASATO KOBAYASHI, TOMOKO AKAMA, TSUGUKI TOUMA,
          TAKESHI YOSHIKAWA, YASUHIRO IKABATA, JUNJI SEINO,
          YUYA NAKAJIMA, HIROMI NAKAI
     NANJING UNIVERSITY: SHUHUA LI
     UNIVERSITY OF NEBRASKA:
          PEIFENG SU, DEJUN SI, NANDUN THELLAMUREGE, YALI WANG, HUI LI
     UNIVERSITY OF ZURICH: ROBERTO PEVERATI, KIM BALDRIDGE
     N. COPERNICUS UNIVERSITY AND JACKSON STATE UNIVERSITY:
          MARIA BARYSZ
     UNIVERSITY OF COPENHAGEN: Jimmy Kromann, CASPER STEINMANN
     TOKYO INSTITUTE OF TECHNOLOGY: HIROYA NAKATA
     NAGOYA UNIVERSITY: YOSHIO NISHIMOTO, STEPHAN IRLE
     MOSCOW STATE UNIVERSITY: VLADIMIR MIRONOV


 PARALLEL VERSION RUNNING ON       16 PROCESSORS IN        1 NODES.

 EXECUTION OF GAMESS BEGUN Fri Dec  6 00:44:07 2019

            ECHO OF THE FIRST FEW INPUT CARDS -
 INPUT CARD>!*** FMO 5.3 (Gamess) INPUT generated by Facio 22.1.1.32 ***                    
 INPUT CARD> $CONTRL RUNTYP=ENERGY NPRINT=-5 ISPHER=1 MAXIT=200 $END                        
 INPUT CARD> $SYSTEM MWORDS=63 MEMDDI=63 $END                                               
 INPUT CARD> $GDDI NGROUP=1 $END                                                            
 INPUT CARD> $SCF DIRSCF=.TRUE. NPUNCH=0 $END                                               
 INPUT CARD>!*** NumCPU : 2  MemPerNode : 512MB                                             
 INPUT CARD> $PCM SOLVNT=WATER IEF=-10 ICOMP=2 ICAV=1 IDISP=1 IFMO=-1 $END                  
 INPUT CARD> $PCMCAV RADII=SUAHF $END                                                       
 INPUT CARD> $TESCAV NTSALL=60 $END                                                         
 INPUT CARD> $FMOPRP                                                                        
 INPUT CARD>    NAODIR=200                                                                  
 INPUT CARD>    NGRFMO(1)=1, 1, 0, 0, 0,   0, 0, 0, 0, 0                                    
 INPUT CARD>    IPIEDA=1                                                                    
 INPUT CARD>    NPRINT=9                                                                    
 INPUT CARD> $END                                                                           
 INPUT CARD> $FMO                                                                           
 INPUT CARD>      SCFTYP(1)=RHF                                                             
 INPUT CARD>      MODGRD=10                                                                 
 INPUT CARD>      MODMUL=0                                                                  
 INPUT CARD>      MAXCAO=5                                                                  
 INPUT CARD>      MAXBND=13                                                                 
 INPUT CARD>      NLAYER=1                                                                  
 INPUT CARD>      MPLEVL(1)=2                                                               
 INPUT CARD>      NFRAG=11                                                                  
 INPUT CARD>      ICHARG(1)=-1, -1, -1, -1, -1, -1, -1, -1, -1, -1, 0                       
 INPUT CARD>      FRGNAM(1)=F1, F2, F3, F4, F5, F6, F7, F8, F9, F10, F11                    
 INPUT CARD>      indat(1)=0                                                                
 INPUT CARD>               1   -33   0                                                      
 INPUT CARD>               34   -64   0                                                     
 INPUT CARD>               65   -94   0                                                     
 INPUT CARD>               95   -124   0                                                    
 INPUT CARD>               125   -158   0                                                   
 INPUT CARD>               159   -189   0                                                   
 INPUT CARD>               190   -220   0                                                   
 INPUT CARD>               221   -253   0                                                   
 INPUT CARD>               254   -286   0                                                   
 INPUT CARD>               287   -320   0                                                   
 INPUT CARD>               321   -351   0                                                   
 INPUT CARD> $END                                                                           
 INPUT CARD>                                                                                
 INPUT CARD> $FMOBND                                                                        
 INPUT CARD>   -34   33       6-31G*    MINI                                                
 INPUT CARD>   -65   64       6-31G*    MINI                                                
 INPUT CARD>   -95   94       6-31G*    MINI                                                
 INPUT CARD>   -125   124       6-31G*    MINI                                              
 INPUT CARD>   -159   158       6-31G*    MINI                                              
 INPUT CARD>   -190   189       6-31G*    MINI                                              
 INPUT CARD>   -221   220       6-31G*    MINI                                              
 INPUT CARD>   -254   253       6-31G*    MINI                                              
 INPUT CARD>   -287   286       6-31G*    MINI                                              


 -------------------------------------------------------------
 GROUP DDI, PROGRAMMED BY: RYAN M. OLSON AND DMITRI G. FEDOROV
        FEDOROV ET AL., J. COMPUT. CHEM., 25 (2004) 872.
 -------------------------------------------------------------

 -------------------------------------------------------
 GDDI: INITIALIZATION COMPLETED FOR GROUP     1 OF     1
 WITH    16 PROCESSES BALTYP=DLB   global rank=        0
 -------------------------------------------------------

   63000000 WORDS OF MEMORY AVAILABLE


     RUN TITLE
     ---------
  FMO calculation                                                                

 THE POINT GROUP OF THE MOLECULE IS C1      
 THE ORDER OF THE PRINCIPAL AXIS IS     0

 ATOM   ATOMIC CHARGE
 H.1-1       1.0
 O.1-1       8.0
 C.1-1       6.0
 N.1-1       7.0
 P.1-1      15.0

     ATOMIC BASIS SET LIBRARY
     ----------------
 THE CONTRACTED PRIMITIVE FUNCTIONS HAVE BEEN UNNORMALIZED
 THE CONTRACTED BASIS FUNCTIONS ARE NOW NORMALIZED TO UNITY

  SHELL TYPE  PRIMITIVE        EXPONENT          CONTRACTION COEFFICIENT(S)

 H.1-1     

      1   S       1            18.7311370    0.033494604338
      1   S       2             2.8253944    0.234726953484
      1   S       3             0.6401217    0.813757326146

      2   S       4             0.1612778    1.000000000000

 O.1-1     

      3   S       5          5484.6716600    0.001831074430
      3   S       6           825.2349460    0.013950172200
      3   S       7           188.0469580    0.068445078098
      3   S       8            52.9645000    0.232714335992
      3   S       9            16.8975704    0.470192897984
      3   S      10             5.7996353    0.358520852987

      4   L      11            15.5396162   -0.110777549525    0.070874268231
      4   L      12             3.5999336   -0.148026262701    0.339752839147
      4   L      13             1.0137618    1.130767015354    0.727158577316

      5   L      14             0.2700058    1.000000000000    1.000000000000

      6   D      15             0.8000000    1.000000000000

 C.1-1     

      7   S      16          3047.5248800    0.001834737132
      7   S      17           457.3695180    0.014037322813
      7   S      18           103.9486850    0.068842622264
      7   S      19            29.2101553    0.232184443216
      7   S      20             9.2866630    0.467941348435
      7   S      21             3.1639270    0.362311985337

      8   L      22             7.8682723   -0.119332419775    0.068999066591
      8   L      23             1.8812885   -0.160854151696    0.316423960957
      8   L      24             0.5442493    1.143456437840    0.744308290898

      9   L      25             0.1687145    1.000000000000    1.000000000000

     10   D      26             0.8000000    1.000000000000

 N.1-1     

     11   S      27          4173.5114600    0.001834772160
     11   S      28           627.4579110    0.013994627002
     11   S      29           142.9020930    0.068586551812
     11   S      30            40.2343293    0.232240873040
     11   S      31            12.8202129    0.469069948082
     11   S      32             4.3904370    0.360455199063

     12   L      33            11.6263619   -0.114961181702    0.067579743878
     12   L      34             2.7162798   -0.169117478561    0.323907295893
     12   L      35             0.7722184    1.145851947027    0.740895139755

     13   L      36             0.2120315    1.000000000000    1.000000000000

     14   D      37             0.8000000    1.000000000000

 P.1-1     

     15   S      38         19413.3000000    0.001851598923
     15   S      39          2909.4200000    0.014206191735
     15   S      40           661.3640000    0.069999459277
     15   S      41           185.7590000    0.240078860331
     15   S      42            59.1943000    0.484761717984
     15   S      43            20.0310000    0.335199804993

     16   L      44           339.4780000   -0.002782170105    0.004564616191
     16   L      45            81.0101000   -0.036049901354    0.033693571881
     16   L      46            25.8780000   -0.116631004382    0.139754883368
     16   L      47             9.4522100    0.096832803638    0.339361716786
     16   L      48             3.6656600    0.614418023082    0.450920623685
     16   L      49             1.4674600    0.403798015170    0.238585800889

     17   L      50             2.1562300   -0.252924113863   -0.017765312733
     17   L      51             0.7489970    0.032851844678    0.274058196433
     17   L      52             0.2831450    1.081254761783    0.785421562957

     18   L      53             0.0998317    1.000000000000    1.000000000000

     19   D      54             0.5500000    1.000000000000

 TOTAL NUMBER OF BASIS SET SHELLS             =   19
 NUMBER OF CARTESIAN GAUSSIAN BASIS FUNCTIONS =   66

     $CONTRL OPTIONS
     ---------------
 SCFTYP=RHF          RUNTYP=ENERGY       EXETYP=RUN     
 MPLEVL=       0     CITYP =NONE         CCTYP =NONE         VBTYP =NONE    
 DFTTYP=NONE         TDDFT =NONE    
 MULT  =       1     ICHARG=       0     NZVAR =       0     COORD =UNIQUE  
 PP    =NONE         RELWFN=NONE         LOCAL =NONE         NUMGRD=       F
 ISPHER=       1     NOSYM =       0     MAXIT =     200     UNITS =ANGS    
 PLTORB=       F     MOLPLT=       F     AIMPAC=       F     FRIEND=        
 NPRINT=      -5     IREST =       0     GEOM  =INPUT   
 NORMF =       0     NORMP =       0     ITOL  =      24     ICUT  =      12
 INTTYP=BEST         GRDTYP=BEST         QMTTOL= 1.0E-06

     $SYSTEM OPTIONS
     ---------------
  REPLICATED MEMORY=    63000000 WORDS (ON EVERY NODE).
 DISTRIBUTED MEMDDI=          63 MILLION WORDS IN AGGREGATE,
 MEMDDI DISTRIBUTED OVER  16 PROCESSORS IS     3937500 WORDS/PROCESSOR.
 TOTAL MEMORY REQUESTED ON EACH PROCESSOR=    66937500 WORDS.
 TIMLIM=      525600.00 MINUTES, OR     365.0 DAYS.
 PARALL= T  BALTYP=  DLB     KDIAG=    0  COREFL= F
 MXSEQ2=     300 MXSEQ3=     150  mem10=         0

 ** LOOKING UP INTERNALLY STORED DATA FOR SOLVENT=WATER    **
 OPTICAL AND PHYSICAL CONSTANTS:
 EPS= 78.390; EPSINF=  1.776; RSOLV=  1.385 A; VMOL=  18.070 ML/MOL;
 TCE= .25700E-03 1/K; STEN= 71.810 DYN/CM;  DSTEN=  0.6500; CMF=  1.2770


     -----------------------------------
     INPUT FOR PCM SOLVATION CALCULATION 
     -----------------------------------
     IEF   =     -10
     ICOMP =       2     IFIELD=       0     ICAV  =       1
     IDISP =       1     IREP  =       0     IDP   =       0

     SOLVNT=WATER        EPS   = 78.3900     EPSINF=  1.7760
     VMOL  = 18.0700     TCE   =  0.00025700 STEN  = 71.8100
     DSTEN =  0.6500     CMF   =  1.2770     RSOLV =  1.3850

     NESFP =       0
     OMEGA = 40.0000     RET   =100.0000     FRO   =  0.7000

     TABS  =298.0000     IPRINT=       0

     --------------------------------
     INPUT FOR ITERATIVE C-PCM METHOD 
     --------------------------------
     IPCMIT  =         1     MXDIIS  =        50
     MXITR1  =       200     MXITR2  =       200
     THRES   = 0.100E-09     IMUL    =         3
     RCUT(1) =   20.0000     RCUT(2) =   50.0000

     IDIRCT  =         1
     IMGABI  =         0     RABI    =    4.0000
     IMGASC  =         0     RASC    =   20.0000
     THRSLS  = 0.500E-03     DENSLS  =    0.0100
     IEFPOL  =         1     REFPOL  =    0.0000

     INPUT FOR ISOTROPIC DIELECTRICS
     -------------------------------
     EPS=    78.39

          ----------------
          PROPERTIES INPUT
          ----------------

     MOMENTS            FIELD           POTENTIAL          DENSITY
 IEMOM =       1   IEFLD =       0   IEPOT =       0   IEDEN =       0
 WHERE =COMASS     WHERE =NUCLEI     WHERE =NUCLEI     WHERE =NUCLEI  
 OUTPUT=BOTH       OUTPUT=BOTH       OUTPUT=NONE       OUTPUT=BOTH    
 IEMINT=       0   IEFINT=       0                     IEDINT=       0
                                                       MORB  =       0
          EXTRAPOLATION IN EFFECT
          SOSCF IN EFFECT
 ORBITAL PRINTING OPTION: NPREO=     1 32767     2     1

     -------------------------------
     INTEGRAL TRANSFORMATION OPTIONS
     -------------------------------
     NWORD  =            0
     CUTOFF = 1.0E-10     MPTRAN =       0
     DIRTRF =       T     AOINTS =DUP     

          ----------------------
          INTEGRAL INPUT OPTIONS
          ----------------------
 NOPK  =       1 NORDER=       0 SCHWRZ=       T

 ..... DONE SETTING UP THE RUN .....
 CPU     0: STEP CPU TIME=     0.04 TOTAL CPU TIME=          0.0 (      0.0 MIN)
 TOTAL WALL CLOCK TIME=          0.1 SECONDS, CPU UTILIZATION IS    40.00%
 CPU     0: STEP CPU TIME=     0.00 TOTAL CPU TIME=          0.0 (      0.0 MIN)
 TOTAL WALL CLOCK TIME=          0.1 SECONDS, CPU UTILIZATION IS    40.00%

                    ----------------------
                    AO INTEGRAL TECHNOLOGY
                    ----------------------
     S,P,L SHELL ROTATED AXIS INTEGRALS, REPROGRAMMED BY
        KAZUYA ISHIMURA (IMS) AND JOSE SIERRA (SYNSTAR).
     S,P,D,L SHELL ROTATED AXIS INTEGRALS PROGRAMMED BY
        KAZUYA ISHIMURA (INSTITUTE FOR MOLECULAR SCIENCE).
     S,P,D,F,G SHELL TO TOTAL QUARTET ANGULAR MOMENTUM SUM 5,
        ERIC PROGRAM BY GRAHAM FLETCHER (ELORET AND NASA ADVANCED
        SUPERCOMPUTING DIVISION, AMES RESEARCH CENTER).
     S,P,D,F,G,L SHELL GENERAL RYS QUADRATURE PROGRAMMED BY
        MICHEL DUPUIS (PACIFIC NORTHWEST NATIONAL LABORATORY).
 Setting modorb=1 flag...
 Setting modorb=1 flag...

          -----------------------
          MP2 CONTROL INFORMATION
          -----------------------
          NACORE =        8  NBCORE =        8
          LMOMP2 =        F  AOINTS = DUP     
          METHOD =        2  NWORD  =               0
          MP2PRP =        F  OSPT   = NONE    
          CUTOFF = 1.00E-12  CPHFBS = BASISAO 
          CODE   = IMS     

          NUMBER OF CORE -A-  ORBITALS =     8
          NUMBER OF CORE -B-  ORBITALS =     8
          NUMBER OF OCC. -A-  ORBITALS =    18
          NUMBER OF OCC. -B-  ORBITALS =    18
          NUMBER OF MOLECULAR ORBITALS =    66
          NUMBER OF   BASIS  FUNCTIONS =    66

 CPU     0: STEP CPU TIME=     0.03 TOTAL CPU TIME=          0.1 (      0.0 MIN)
 TOTAL WALL CLOCK TIME=          0.2 SECONDS, CPU UTILIZATION IS    46.67%
 CPU     0: STEP CPU TIME=     0.00 TOTAL CPU TIME=          0.1 (      0.0 MIN)
 TOTAL WALL CLOCK TIME=          0.2 SECONDS, CPU UTILIZATION IS    46.67%

     INPUT FOR CAVITY DEFINITION 
     ---------------------------
   ATOM               COORDINATES                RADIUS       EPS
      1      6.0820      6.0510     17.9170      0.0100     78.3900
      2      6.1450      6.3650     16.9950      1.5900     78.3900
      3      4.8200      6.7370     16.5860      1.7700     78.3900
      4      4.4230      7.5060     17.2840      0.0100     78.3900
      5      4.1630      5.8410     16.6500      0.0100     78.3900
      6      4.7510      7.3000     15.1600      1.7700     78.3900
      7      3.7000      7.5170     14.8700      0.0100     78.3900
      8      5.4860      8.5590     15.0950      1.5900     78.3900
      9      6.1900      8.6250     13.8600      1.7700     78.3900
     10      5.8590      9.5800     13.3880      0.0100     78.3900
     11      7.6690      8.6660     14.0340      1.6800     78.3900
     12      8.2390      8.2670     15.2230      1.7700     78.3900
     13      7.5530      7.9290     16.0010      0.0100     78.3900
     14      9.5630      8.3220     15.4160      1.7700     78.3900
     15     10.0210      8.0300     16.3600      0.0100     78.3900
     16      8.4840      9.1030     12.9930      1.7700     78.3900
     17      7.9660      9.4410     11.9190      1.5900     78.3900
     18      9.8240      9.1600     13.1680      1.6800     78.3900
     19     10.3670      8.8030     14.3450      1.7700     78.3900
     20     11.6870      8.9000     14.5000      1.6800     78.3900
     21     12.2540      9.2150     13.7350      0.0100     78.3900
     22     12.1360      8.6140     15.3480      0.0100     78.3900
     23      5.7300      7.4620     13.0090      1.7700     78.3900
     24      6.5200      7.1030     12.3230      0.0100     78.3900
     25      4.5910      7.8320     12.2570      1.5900     78.3900
     26      4.3090      7.0420     11.7810      0.0100     78.3900
     27      5.3940      6.4200     14.0740      1.7700     78.3900
     28      6.3330      6.0050     14.5100      0.0100     78.3900
     29      4.4640      5.3920     13.6650      1.5900     78.3900
     30      5.0030      4.0510     13.0410      2.1000     78.3900
     31      6.0980      3.5290     13.8900      1.5900     78.3900
     32      3.8480      3.1550     12.8070      1.5900     78.3900
     33      5.5850      4.5150     11.6610      1.5900     78.3900
     34      4.6960      4.9000     10.5860      1.7700     78.3900
     35      4.0020      5.7100     10.9030      0.0100     78.3900
     36      4.0710      4.0330     10.2760      0.0100     78.3900
     37      5.4710      5.3870      9.3570      1.7700     78.3900
     38      4.7780      5.7160      8.5520      0.0100     78.3900
     39      6.2980      6.5260      9.7180      1.5900     78.3900
     40      7.5290      6.4570      9.0080      1.7700     78.3900
     41      7.5890      7.4050      8.4230      0.0100     78.3900
     42      8.7160      6.3750      9.9060      1.6800     78.3900
     43      8.5690      5.9330     11.2000      1.7700     78.3900
     44      7.5600      5.6500     11.4940      0.0100     78.3900
     45      9.6020      5.9020     12.0500      1.7700     78.3900
     46      9.4890      5.6010     13.0900      0.0100     78.3900
     47      9.9840      6.7110      9.4360      1.7700     78.3900
     48     10.1210      7.0570      8.2540      1.5900     78.3900
     49     11.0450      6.6650     10.2750      1.6800     78.3900
     50     10.8780      6.2970     11.5570      1.7700     78.3900
     51     11.9300      6.2940     12.3720      1.6800     78.3900
     52     12.8380      6.5360     12.0170      0.0100     78.3900
     53     11.8580      5.9850     13.3230      0.0100     78.3900
     54      7.4330      5.2910      8.0470      1.7700     78.3900
     55      8.4100      4.7970      7.8760      0.0100     78.3900
     56      6.8990      5.7310      6.8150      1.5900     78.3900
     57      6.7630      4.9360      6.2860      0.0100     78.3900
     58      6.4570      4.3700      8.7680      1.7700     78.3900
     59      6.9550      3.8860      9.6410      0.0100     78.3900
     60      5.7540      3.4280      7.9140      1.5900     78.3900
     61      6.4290      2.0250      7.6630      2.1000     78.3900
     62      6.9580      1.5300      8.9460      1.5900     78.3900
     63      5.4960      1.1300      6.9450      1.5900     78.3900
     64      7.6580      2.3350      6.7410      1.5900     78.3900
     65      7.5400      2.7520      5.3690      1.7700     78.3900
     66      6.9170      3.6670      5.2790      0.0100     78.3900
     67      7.0460      1.9600      4.7660      0.0100     78.3900
     68      8.9160      3.0600      4.7610      1.7700     78.3900
     69      8.8130      3.4560      3.7310      0.0100     78.3900
     70      9.5890      4.0900      5.5470      1.5900     78.3900
     71     10.9850      3.8370      5.5690      1.7700     78.3900
     72     11.4610      4.7420      5.1240      0.0100     78.3900
     73     11.4900      3.6260      6.9580      1.6800     78.3900
     74     10.6380      3.2570      7.9750      1.7700     78.3900
     75      9.6010      3.1070      7.6810      0.0100     78.3900
     76     12.8320      3.8210      7.2040      1.7700     78.3900
     77     13.6260      4.1470      6.3310      1.5900     78.3900
     78     13.2170      3.6390      8.5070      1.6800     78.3900
     79     14.2080      3.7740      8.6830      0.0100     78.3900
     80     12.4190      3.2890      9.5750      1.7700     78.3900
     81     12.9030      3.1590     10.6970      1.5900     78.3900
     82     11.0390      3.1010      9.2450      1.7700     78.3900
     83     10.3450      2.8230     10.0360      0.0100     78.3900
     84     11.2410      2.6460      4.6570      1.7700     78.3900
     85     12.0690      2.0150      5.0290      0.0100     78.3900
     86     11.5300      3.0850      3.3400      1.5900     78.3900
     87     11.4550      2.3180      2.7510      0.0100     78.3900
     88      9.9150      1.8980      4.7180      1.7700     78.3900
     89      9.8080      1.3740      5.6960      0.0100     78.3900
     90      9.6680      1.0460      3.5710      1.5900     78.3900
     91      9.6970     -0.5230      3.7430      2.1000     78.3900
     92      8.6230     -0.9020      4.6830      1.5900     78.3900
     93      9.6680     -1.1590      2.4080      1.5900     78.3900
     94     11.0870     -0.8230      4.4180      1.5900     78.3900
     95     12.3350     -0.6420      3.7180      1.7700     78.3900
     96     12.4000      0.3710      3.2640      0.0100     78.3900
     97     12.4450     -1.3950      2.9040      0.0100     78.3900
     98     13.5290     -0.7890      4.6690      1.7700     78.3900
     99     14.4820     -0.6510      4.1180      0.0100     78.3900
    100     13.4620      0.2400      5.7090      1.5900     78.3900
    101     13.8540     -0.3120      6.9460      1.7700     78.3900
    102     14.6620      0.3530      7.3310      0.0100     78.3900
    103     12.7270     -0.3580      7.9450      1.6800     78.3900
    104     11.4090     -0.1670      7.5860      1.7700     78.3900
    105     11.2380     -0.0140      6.5220      0.0100     78.3900
    106     13.0450     -0.5550      9.2660      1.7700     78.3900
    107     14.1870     -0.7260      9.6460      1.5900     78.3900
    108     12.0110     -0.5280     10.1500      1.6800     78.3900
    109     12.2740     -0.6530     11.1210      0.0100     78.3900
    110     10.6910     -0.2820      9.8780      1.7700     78.3900
    111      9.8850     -0.2010     10.8020      1.5900     78.3900
    112     10.4040     -0.1130      8.4820      1.7700     78.3900
    113      9.3770      0.1050      8.1890      0.0100     78.3900
    114     14.4470     -1.6740      6.6290      1.7700     78.3900
    115     14.3140     -2.3810      7.4520      0.0100     78.3900
    116     15.8290     -1.5650      6.3060      1.5900     78.3900
    117     16.2590     -0.9340      6.8990      0.0100     78.3900
    118     13.6150     -2.1130      5.4360      1.7700     78.3900
    119     12.5790     -2.3710      5.7560      0.0100     78.3900
    120     14.2360     -3.1350      4.6280      1.5900     78.3900
    121     13.8210     -4.6480      4.7450      2.1000     78.3900
    122     12.4960     -4.8010      4.1080      1.5900     78.3900
    123     14.9010     -5.5130      4.2060      1.5900     78.3900
    124     13.6630     -4.9650      6.2880      1.5900     78.3900
    125     14.8240     -5.1110      7.1440      1.7700     78.3900
    126     15.5540     -4.2850      6.9810      0.0100     78.3900
    127     15.3450     -6.0660      6.9150      0.0100     78.3900
    128     14.4650     -5.1210      8.6460      1.7700     78.3900
    129     15.3850     -5.1510      9.2680      0.0100     78.3900
    130     13.7600     -3.8990      8.9970      1.5900     78.3900
    131     12.6990     -4.1820      9.8730      1.7700     78.3900
    132     12.8240     -3.5010     10.7430      0.0100     78.3900
    133     11.4010     -3.9070      9.2500      1.6800     78.3900
    134     10.2180     -3.7270      9.9130      1.7700     78.3900
    135      8.4180     -3.6280     12.8630      1.6800     78.3900
    136      7.4810     -3.4500     13.1620      0.0100     78.3900
    137      9.1200     -3.8380     13.5400      0.0100     78.3900
    138     10.0460     -3.7850     11.2430      1.6800     78.3900
    139      8.7780     -3.5740     11.5950      1.7700     78.3900
    140      7.7770     -3.3120     10.6940      1.6800     78.3900
    141      6.8510     -3.1420     11.0410      0.0100     78.3900
    142      7.9340     -3.2390      9.3150      1.7700     78.3900
    143      6.9810     -3.0150      8.5630      1.5900     78.3900
    144      9.2800     -3.4770      8.9320      1.7700     78.3900
    145      9.8650     -3.4850      7.6740      1.6800     78.3900
    146     11.1260     -3.7430      7.9120      1.7700     78.3900
    147     11.9030     -3.8230      7.1540      0.0100     78.3900
    148     12.8530     -5.6130     10.3180      1.7700     78.3900
    149     11.8760     -6.0980     10.5300      0.0100     78.3900
    150     13.6750     -5.6590     11.4680      1.5900     78.3900
    151     13.8460     -6.5880     11.6560      0.0100     78.3900
    152     13.5440     -6.2540      9.1100      1.7700     78.3900
    153     12.8130     -6.4240      8.2870      0.0100     78.3900
    154     14.3290     -7.4370      9.3920      1.5900     78.3900
    155     13.5860     -8.7940      9.7050      2.1000     78.3900
    156     12.2870     -8.5220     10.3590      1.5900     78.3900
    157     13.5570     -9.6180      8.4760      1.5900     78.3900
    158     14.5100     -9.4930     10.7570      1.5900     78.3900
    159     15.0270     -8.8910     11.9610      1.7700     78.3900
    160     14.3780     -9.1580     12.8260      0.0100     78.3900
    161     15.0400     -7.7810     11.8900      0.0100     78.3900
    162     16.4730     -9.3340     12.2770      1.7700     78.3900
    163     16.4860    -10.2630     12.8800      0.0100     78.3900
    164     17.2050     -9.6190     11.0480      1.5900     78.3900
    165     18.5130     -9.0850     11.1310      1.7700     78.3900
    166     19.1930     -9.9430     10.9080      0.0100     78.3900
    167     18.7610     -8.0150     10.1250      1.6800     78.3900
    168     17.7060     -7.3830      9.5060      1.7700     78.3900
    169     16.7050     -7.7150      9.7930      0.0100     78.3900
    170     17.9100     -6.4420      8.5760      1.7700     78.3900
    171     17.0970     -5.9520      8.0520      0.0100     78.3900
    172     20.0700     -7.6460      9.8160      1.7700     78.3900
    173     21.0060     -8.2120     10.4030      1.5900     78.3900
    174     20.2930     -6.7220      8.8480      1.6800     78.3900
    175     19.2550     -6.1170      8.2440      1.7700     78.3900
    176     19.4910     -5.2290      7.2850      1.6800     78.3900
    177     20.4350     -4.9370      7.1300      0.0100     78.3900
    178     18.7600     -4.7280      6.8260      0.0100     78.3900
    179     18.7340     -8.6330     12.5590      1.7700     78.3900
    180     19.4220     -7.7670     12.6300      0.0100     78.3900
    181     19.2420     -9.7080     13.3280      1.5900     78.3900
    182     19.2120     -9.4400     14.2610      0.0100     78.3900
    183     17.3200     -8.2510     12.9840      1.7700     78.3900
    184     17.0430     -7.2760     12.5170      0.0100     78.3900
    185     17.0880     -8.2800     14.4160      1.5900     78.3900
    186     17.2970     -6.9460     15.2440      2.1000     78.3900
    187     16.5560     -5.8690     14.5560      1.5900     78.3900
    188     16.9090     -7.2030     16.6490      1.5900     78.3900
    189     18.8440     -6.6380     15.1800      1.5900     78.3900
    190     19.3370     -5.2720     15.3010      1.7700     78.3900
    191     19.7470     -5.1120     16.3230      0.0100     78.3900
    192     18.5330     -4.5090     15.1600      0.0100     78.3900
    193     20.4430     -4.9550     14.2790      1.7700     78.3900
    194     21.3750     -5.4980     14.5370      0.0100     78.3900
    195     20.0290     -5.4200     12.9680      1.5900     78.3900
    196     20.4540     -4.5110     11.9790      1.7700     78.3900
    197     21.0690     -5.1080     11.2670      0.0100     78.3900
    198     19.3170     -3.9080     11.2510      1.6800     78.3900
    199     18.0540     -3.8870     11.8080      1.7700     78.3900
    200     17.9410     -4.3580     12.7900      0.0100     78.3900
    201     17.0200     -3.3590     11.1440      1.7700     78.3900
    202     16.0060     -3.3650     11.5390      0.0100     78.3900
    203     19.5410     -3.3220     10.0090      1.7700     78.3900
    204     20.6900     -3.3080      9.5470      1.5900     78.3900
    205     18.5080     -2.7980      9.3210      1.6800     78.3900
    206     17.2810     -2.8260      9.8510      1.7700     78.3900
    207     16.2980     -2.3730      9.1190      1.6800     78.3900
    208     15.3520     -2.3450      9.4470      0.0100     78.3900
    209     16.4740     -2.1850      8.1590      0.0100     78.3900
    210     21.3310     -3.4750     12.6490      1.7700     78.3900
    211     21.2280     -2.4780     12.1760      0.0100     78.3900
    212     22.6900     -3.8900     12.6200      1.5900     78.3900
    213     23.1910     -3.2180     13.0990      0.0100     78.3900
    214     20.7680     -3.4600     14.0660      1.7700     78.3900
    215     19.7900     -2.9230     14.0820      0.0100     78.3900
    216     21.6950     -2.9850     15.0730      1.5900     78.3900
    217     21.6390     -1.4880     15.5660      2.1000     78.3900
    218     20.2180     -1.1100     15.7110      1.5900     78.3900
    219     22.4960     -1.3490     16.7600      1.5900     78.3900
    220     22.2590     -0.6380     14.4040      1.5900     78.3900
    221     23.6130     -0.7530     13.9280      1.7700     78.3900
    222     23.9350     -1.8180     13.8730      0.0100     78.3900
    223     24.3050     -0.2310     14.6270      0.0100     78.3900
    224     23.7600     -0.1160     12.5270      1.7700     78.3900
    225     24.7880     -0.2550     12.1300      0.0100     78.3900
    226     22.8470     -0.7740     11.6010      1.5900     78.3900
    227     22.2430      0.1850     10.7530      1.7700     78.3900
    228     22.4320     -0.1550      9.7090      0.0100     78.3900
    229     20.7930      0.2600     10.9750      1.6800     78.3900
    230     18.6320      0.4830     10.6870      1.7700     78.3900
    231     18.8050      0.1450     12.0170      1.6800     78.3900
    232     20.0980      0.0340     12.1380      1.7700     78.3900
    233     20.5940     -0.2270     13.0630      0.0100     78.3900
    234     17.6360      1.0210      8.6120      1.6800     78.3900
    235     18.8770      1.0630      8.1160      1.7700     78.3900
    236     18.9500      1.3040      7.0500      0.0100     78.3900
    237     20.0440      0.8670      8.7430      1.6800     78.3900
    238     19.8440      0.5540     10.0330      1.7700     78.3900
    239     17.4820      0.7450      9.9310      1.7700     78.3900
    240     16.2670      0.7470     10.4840      1.6800     78.3900
    241     16.1320      0.4500     11.4360      0.0100     78.3900
    242     15.4900      0.6640      9.8610      0.0100     78.3900
    243     22.9380      1.5060     10.9790      1.7700     78.3900
    244     22.2550      2.3740     10.8550      0.0100     78.3900
    245     24.0370      1.6330     10.0940      1.5900     78.3900
    246     24.4740      2.4690     10.3210      0.0100     78.3900
    247     23.4040      1.3810     12.4280      1.7700     78.3900
    248     22.5530      1.5520     13.1280      0.0100     78.3900
    249     24.5560      2.1880     12.7630      1.5900     78.3900
    250     24.3930      3.7350     12.9920      2.1000     78.3900
    251     23.1180      3.9400     13.7090      1.5900     78.3900
    252     25.6210      4.2380     13.6470      1.5900     78.3900
    253     24.3100      4.3610     11.5400      1.5900     78.3900
    254     23.5560      5.5890     11.3210      1.7700     78.3900
    255     24.1790      6.4820     11.5470      0.0100     78.3900
    256     22.6520      5.6490     11.9750      0.0100     78.3900
    257     23.0640      5.7110      9.8690      1.7700     78.3900
    258     23.9160      5.7820      9.1600      0.0100     78.3900
    259     22.3140      4.5100      9.5310      1.5900     78.3900
    260     21.1310      4.8520      8.8420      1.7700     78.3900
    261     21.0990      4.2250      7.9210      0.0100     78.3900
    262     19.9520      4.5690      9.6690      1.6800     78.3900
    263     17.9100      4.1550     10.3710      1.7700     78.3900
    264     18.7240      4.1140     11.5010      1.6800     78.3900
    265     19.9210      4.3620     11.0300      1.7700     78.3900
    266     20.8320      4.4110     11.6340      0.0100     78.3900
    267     16.0240      4.1100      8.9380      1.6800     78.3900
    268     16.8750      4.3650      7.9400      1.7700     78.3900
    269     16.4180      4.4530      6.9470      0.0100     78.3900
    270     18.1990      4.5570      7.9790      1.6800     78.3900
    271     18.6550      4.4340      9.2370      1.7700     78.3900
    272     16.5190      3.9910     10.1970      1.7700     78.3900
    273     15.6790      3.7200     11.2150      1.6800     78.3900
    274     16.0210      3.5810     12.1510      0.0100     78.3900
    275     14.7140      3.5200     11.0350      0.0100     78.3900
    276     21.2380      6.3090      8.4590      1.7700     78.3900
    277     20.2510      6.8070      8.3930      0.0100     78.3900
    278     21.9020      6.4250      7.2170      1.5900     78.3900
    279     22.0350      7.3680      7.0590      0.0100     78.3900
    280     22.0830      6.8740      9.5960      1.7700     78.3900
    281     21.4650      6.9770     10.5190      0.0100     78.3900
    282     22.8030      8.0890      9.2590      1.5900     78.3900
    283     22.1330      9.4850      9.5710      2.1000     78.3900
    284     21.6150      9.4280     10.9550      1.5900     78.3900
    285     23.1010     10.5650      9.2820      1.5900     78.3900
    286     20.9260      9.5910      8.5630      1.5900     78.3900
    287     21.1660      9.7560      7.1420      1.7700     78.3900
    288     21.8700      8.9890      6.7480      0.0100     78.3900
    289     21.6350     10.7400      6.9430      0.0100     78.3900
    290     19.8590      9.6760      6.3370      1.7700     78.3900
    291     20.0540      9.7790      5.2480      0.0100     78.3900
    292     19.2440      8.3750      6.5440      1.5900     78.3900
    293     17.8320      8.5200      6.5820      1.7700     78.3900
    294     17.4220      7.8350      5.8020      0.0100     78.3900
    295     17.2880      8.1350      7.8940      1.6800     78.3900
    296     15.9850      7.8370      8.1790      1.7700     78.3900
    297     12.6830      7.5380      7.1850      1.6800     78.3900
    298     12.7200      7.7750      6.2170      0.0100     78.3900
    299     11.7940      7.3240      7.6000      0.0100     78.3900
    300     14.9640      7.8560      7.3030      1.6800     78.3900
    301     13.8070      7.5320      7.8750      1.7700     78.3900
    302     13.6920      7.1840      9.1950      1.6800     78.3900
    303     12.7780      6.9490      9.5470      0.0100     78.3900
    304     14.7330      7.1370     10.1140      1.7700     78.3900
    305     14.5360      6.8140     11.2900      1.5900     78.3900
    306     15.9650      7.5120      9.5230      1.7700     78.3900
    307     17.2340      7.6160     10.0810      1.6800     78.3900
    308     17.9830      7.9900      9.0730      1.7700     78.3900
    309     19.0510      8.2070      9.1270      0.0100     78.3900
    310     17.5130      9.9560      6.2270      1.7700     78.3900
    311     16.6000     10.3280      6.7350      0.0100     78.3900
    312     17.3590     10.0790      4.8270      1.5900     78.3900
    313     17.2080     11.0140      4.6410      0.0100     78.3900
    314     18.7620     10.6810      6.7190      1.7700     78.3900
    315     18.7650     10.7230      7.8330      0.0100     78.3900
    316     19.0130     11.9660      6.0910      1.5900     78.3900
    317     18.5260     13.2620      6.8410      2.1000     78.3900
    318     18.8000     13.1290      8.2840      1.5900     78.3900
    319     19.0900     14.4600      6.1830      1.5900     78.3900
    320     16.9700     13.2340      6.6400      1.5900     78.3900
    321     16.4130     13.3700      5.3120      1.7700     78.3900
    322     16.8470     12.6300      4.6020      0.0100     78.3900
    323     16.6320     14.3840      4.9000      0.0100     78.3900
    324     14.8930     13.1820      5.3460      1.7700     78.3900
    325     14.4510     13.3120      4.3320      0.0100     78.3900
    326     14.5640     11.8350      5.7880      1.5900     78.3900
    327     13.3960     11.8850      6.5990      1.7700     78.3900
    328     12.6480     11.2040      6.1290      0.0100     78.3900
    329     13.6760     11.4170      7.9640      1.6800     78.3900
    330     12.7530     10.9720      8.8730      1.7700     78.3900
    331      9.4630     10.3680      9.7610      1.6800     78.3900
    332      8.9660     10.6630      8.9480      0.0100     78.3900
    333      8.9480     10.0360     10.5560      0.0100     78.3900
    334     11.4250     10.9040      8.6800      1.6800     78.3900
    335     10.7790     10.4510      9.7540      1.7700     78.3900
    336     11.4160     10.0840     10.9120      1.6800     78.3900
    337     10.8500      9.7640     11.6820      0.0100     78.3900
    338     12.7850     10.1400     11.1390      1.7700     78.3900
    339     13.2790      9.7970     12.2180      1.5900     78.3900
    340     13.4780     10.6320     10.0000      1.7700     78.3900
    341     14.8330     10.8650      9.8050      1.6800     78.3900
    342     14.9040     11.3400      8.5850      1.7700     78.3900
    343     15.8190     11.6530      8.0790      0.0100     78.3900
    344     12.8690     13.3120      6.5710      1.7700     78.3900
    345     12.3960     13.6110      7.5340      0.0100     78.3900
    346     11.9390     13.4620      5.5080      1.5900     78.3900
    347     11.6650     14.3950      5.4500      0.0100     78.3900
    348     14.1560     14.0960      6.3330      1.7700     78.3900
    349     14.7510     14.1500      7.2700      0.0100     78.3900
    350     13.9700     15.4050      5.7680      1.5900     78.3900
    351     13.5030     15.9760      6.4030      0.0100     78.3900

     ----------------------------
     INPUT FOR TESSERA DEFINITION
     ----------------------------
     NTSALL  =        60     MTHALL  =         4
     MTHAUT  =         0     AUTFRE  =    2.0000
     NTSFRZ  =        60     KEEPSM  =         0
     AREAKP  =   10.0000     BONDRY  =    1.0000
     AREATL  =    0.0100

     SPHERE     INITS       METHOD
          1        60       FIXPVA
          2        60       FIXPVA
          3        60       FIXPVA
          4        60       FIXPVA
          5        60       FIXPVA
          6        60       FIXPVA
          7        60       FIXPVA
          8        60       FIXPVA
          9        60       FIXPVA
         10        60       FIXPVA
         11        60       FIXPVA
         12        60       FIXPVA
         13        60       FIXPVA
         14        60       FIXPVA
         15        60       FIXPVA
         16        60       FIXPVA
         17        60       FIXPVA
         18        60       FIXPVA
         19        60       FIXPVA
         20        60       FIXPVA
         21        60       FIXPVA
         22        60       FIXPVA
         23        60       FIXPVA
         24        60       FIXPVA
         25        60       FIXPVA
         26        60       FIXPVA
         27        60       FIXPVA
         28        60       FIXPVA
         29        60       FIXPVA
         30        60       FIXPVA
         31        60       FIXPVA
         32        60       FIXPVA
         33        60       FIXPVA
         34        60       FIXPVA
         35        60       FIXPVA
         36        60       FIXPVA
         37        60       FIXPVA
         38        60       FIXPVA
         39        60       FIXPVA
         40        60       FIXPVA
         41        60       FIXPVA
         42        60       FIXPVA
         43        60       FIXPVA
         44        60       FIXPVA
         45        60       FIXPVA
         46        60       FIXPVA
         47        60       FIXPVA
         48        60       FIXPVA
         49        60       FIXPVA
         50        60       FIXPVA
         51        60       FIXPVA
         52        60       FIXPVA
         53        60       FIXPVA
         54        60       FIXPVA
         55        60       FIXPVA
         56        60       FIXPVA
         57        60       FIXPVA
         58        60       FIXPVA
         59        60       FIXPVA
         60        60       FIXPVA
         61        60       FIXPVA
         62        60       FIXPVA
         63        60       FIXPVA
         64        60       FIXPVA
         65        60       FIXPVA
         66        60       FIXPVA
         67        60       FIXPVA
         68        60       FIXPVA
         69        60       FIXPVA
         70        60       FIXPVA
         71        60       FIXPVA
         72        60       FIXPVA
         73        60       FIXPVA
         74        60       FIXPVA
         75        60       FIXPVA
         76        60       FIXPVA
         77        60       FIXPVA
         78        60       FIXPVA
         79        60       FIXPVA
         80        60       FIXPVA
         81        60       FIXPVA
         82        60       FIXPVA
         83        60       FIXPVA
         84        60       FIXPVA
         85        60       FIXPVA
         86        60       FIXPVA
         87        60       FIXPVA
         88        60       FIXPVA
         89        60       FIXPVA
         90        60       FIXPVA
         91        60       FIXPVA
         92        60       FIXPVA
         93        60       FIXPVA
         94        60       FIXPVA
         95        60       FIXPVA
         96        60       FIXPVA
         97        60       FIXPVA
         98        60       FIXPVA
         99        60       FIXPVA
        100        60       FIXPVA
        101        60       FIXPVA
        102        60       FIXPVA
        103        60       FIXPVA
        104        60       FIXPVA
        105        60       FIXPVA
        106        60       FIXPVA
        107        60       FIXPVA
        108        60       FIXPVA
        109        60       FIXPVA
        110        60       FIXPVA
        111        60       FIXPVA
        112        60       FIXPVA
        113        60       FIXPVA
        114        60       FIXPVA
        115        60       FIXPVA
        116        60       FIXPVA
        117        60       FIXPVA
        118        60       FIXPVA
        119        60       FIXPVA
        120        60       FIXPVA
        121        60       FIXPVA
        122        60       FIXPVA
        123        60       FIXPVA
        124        60       FIXPVA
        125        60       FIXPVA
        126        60       FIXPVA
        127        60       FIXPVA
        128        60       FIXPVA
        129        60       FIXPVA
        130        60       FIXPVA
        131        60       FIXPVA
        132        60       FIXPVA
        133        60       FIXPVA
        134        60       FIXPVA
        135        60       FIXPVA
        136        60       FIXPVA
        137        60       FIXPVA
        138        60       FIXPVA
        139        60       FIXPVA
        140        60       FIXPVA
        141        60       FIXPVA
        142        60       FIXPVA
        143        60       FIXPVA
        144        60       FIXPVA
        145        60       FIXPVA
        146        60       FIXPVA
        147        60       FIXPVA
        148        60       FIXPVA
        149        60       FIXPVA
        150        60       FIXPVA
        151        60       FIXPVA
        152        60       FIXPVA
        153        60       FIXPVA
        154        60       FIXPVA
        155        60       FIXPVA
        156        60       FIXPVA
        157        60       FIXPVA
        158        60       FIXPVA
        159        60       FIXPVA
        160        60       FIXPVA
        161        60       FIXPVA
        162        60       FIXPVA
        163        60       FIXPVA
        164        60       FIXPVA
        165        60       FIXPVA
        166        60       FIXPVA
        167        60       FIXPVA
        168        60       FIXPVA
        169        60       FIXPVA
        170        60       FIXPVA
        171        60       FIXPVA
        172        60       FIXPVA
        173        60       FIXPVA
        174        60       FIXPVA
        175        60       FIXPVA
        176        60       FIXPVA
        177        60       FIXPVA
        178        60       FIXPVA
        179        60       FIXPVA
        180        60       FIXPVA
        181        60       FIXPVA
        182        60       FIXPVA
        183        60       FIXPVA
        184        60       FIXPVA
        185        60       FIXPVA
        186        60       FIXPVA
        187        60       FIXPVA
        188        60       FIXPVA
        189        60       FIXPVA
        190        60       FIXPVA
        191        60       FIXPVA
        192        60       FIXPVA
        193        60       FIXPVA
        194        60       FIXPVA
        195        60       FIXPVA
        196        60       FIXPVA
        197        60       FIXPVA
        198        60       FIXPVA
        199        60       FIXPVA
        200        60       FIXPVA
        201        60       FIXPVA
        202        60       FIXPVA
        203        60       FIXPVA
        204        60       FIXPVA
        205        60       FIXPVA
        206        60       FIXPVA
        207        60       FIXPVA
        208        60       FIXPVA
        209        60       FIXPVA
        210        60       FIXPVA
        211        60       FIXPVA
        212        60       FIXPVA
        213        60       FIXPVA
        214        60       FIXPVA
        215        60       FIXPVA
        216        60       FIXPVA
        217        60       FIXPVA
        218        60       FIXPVA
        219        60       FIXPVA
        220        60       FIXPVA
        221        60       FIXPVA
        222        60       FIXPVA
        223        60       FIXPVA
        224        60       FIXPVA
        225        60       FIXPVA
        226        60       FIXPVA
        227        60       FIXPVA
        228        60       FIXPVA
        229        60       FIXPVA
        230        60       FIXPVA
        231        60       FIXPVA
        232        60       FIXPVA
        233        60       FIXPVA
        234        60       FIXPVA
        235        60       FIXPVA
        236        60       FIXPVA
        237        60       FIXPVA
        238        60       FIXPVA
        239        60       FIXPVA
        240        60       FIXPVA
        241        60       FIXPVA
        242        60       FIXPVA
        243        60       FIXPVA
        244        60       FIXPVA
        245        60       FIXPVA
        246        60       FIXPVA
        247        60       FIXPVA
        248        60       FIXPVA
        249        60       FIXPVA
        250        60       FIXPVA
        251        60       FIXPVA
        252        60       FIXPVA
        253        60       FIXPVA
        254        60       FIXPVA
        255        60       FIXPVA
        256        60       FIXPVA
        257        60       FIXPVA
        258        60       FIXPVA
        259        60       FIXPVA
        260        60       FIXPVA
        261        60       FIXPVA
        262        60       FIXPVA
        263        60       FIXPVA
        264        60       FIXPVA
        265        60       FIXPVA
        266        60       FIXPVA
        267        60       FIXPVA
        268        60       FIXPVA
        269        60       FIXPVA
        270        60       FIXPVA
        271        60       FIXPVA
        272        60       FIXPVA
        273        60       FIXPVA
        274        60       FIXPVA
        275        60       FIXPVA
        276        60       FIXPVA
        277        60       FIXPVA
        278        60       FIXPVA
        279        60       FIXPVA
        280        60       FIXPVA
        281        60       FIXPVA
        282        60       FIXPVA
        283        60       FIXPVA
        284        60       FIXPVA
        285        60       FIXPVA
        286        60       FIXPVA
        287        60       FIXPVA
        288        60       FIXPVA
        289        60       FIXPVA
        290        60       FIXPVA
        291        60       FIXPVA
        292        60       FIXPVA
        293        60       FIXPVA
        294        60       FIXPVA
        295        60       FIXPVA
        296        60       FIXPVA
        297        60       FIXPVA
        298        60       FIXPVA
        299        60       FIXPVA
        300        60       FIXPVA
        301        60       FIXPVA
        302        60       FIXPVA
        303        60       FIXPVA
        304        60       FIXPVA
        305        60       FIXPVA
        306        60       FIXPVA
        307        60       FIXPVA
        308        60       FIXPVA
        309        60       FIXPVA
        310        60       FIXPVA
        311        60       FIXPVA
        312        60       FIXPVA
        313        60       FIXPVA
        314        60       FIXPVA
        315        60       FIXPVA
        316        60       FIXPVA
        317        60       FIXPVA
        318        60       FIXPVA
        319        60       FIXPVA
        320        60       FIXPVA
        321        60       FIXPVA
        322        60       FIXPVA
        323        60       FIXPVA
        324        60       FIXPVA
        325        60       FIXPVA
        326        60       FIXPVA
        327        60       FIXPVA
        328        60       FIXPVA
        329        60       FIXPVA
        330        60       FIXPVA
        331        60       FIXPVA
        332        60       FIXPVA
        333        60       FIXPVA
        334        60       FIXPVA
        335        60       FIXPVA
        336        60       FIXPVA
        337        60       FIXPVA
        338        60       FIXPVA
        339        60       FIXPVA
        340        60       FIXPVA
        341        60       FIXPVA
        342        60       FIXPVA
        343        60       FIXPVA
        344        60       FIXPVA
        345        60       FIXPVA
        346        60       FIXPVA
        347        60       FIXPVA
        348        60       FIXPVA
        349        60       FIXPVA
        350        60       FIXPVA
        351        60       FIXPVA

     ------------------------------
      FIXPVA TESSELLATION FOR PCM
         PEIFENG SU AND HUI LI
     UNIVERSITY OF NEBRASKA-LINCOLN
     ------------------------------


 PCM DIMENSIONS: MXSP=   351, MXTS=     14040, MEMORY=        144264

     INPUT FOR CAVITY DEFINITION 
     ---------------------------
   ATOM               COORDINATES                RADIUS       EPS
      1      6.0820      6.0510     17.9170      0.0100     78.3900
      2      6.1450      6.3650     16.9950      1.5900     78.3900
      3      4.8200      6.7370     16.5860      1.7700     78.3900
      4      4.4230      7.5060     17.2840      0.0100     78.3900
      5      4.1630      5.8410     16.6500      0.0100     78.3900
      6      4.7510      7.3000     15.1600      1.7700     78.3900
      7      3.7000      7.5170     14.8700      0.0100     78.3900
      8      5.4860      8.5590     15.0950      1.5900     78.3900
      9      6.1900      8.6250     13.8600      1.7700     78.3900
     10      5.8590      9.5800     13.3880      0.0100     78.3900
     11      7.6690      8.6660     14.0340      1.6800     78.3900
     12      8.2390      8.2670     15.2230      1.7700     78.3900
     13      7.5530      7.9290     16.0010      0.0100     78.3900
     14      9.5630      8.3220     15.4160      1.7700     78.3900
     15     10.0210      8.0300     16.3600      0.0100     78.3900
     16      8.4840      9.1030     12.9930      1.7700     78.3900
     17      7.9660      9.4410     11.9190      1.5900     78.3900
     18      9.8240      9.1600     13.1680      1.6800     78.3900
     19     10.3670      8.8030     14.3450      1.7700     78.3900
     20     11.6870      8.9000     14.5000      1.6800     78.3900
     21     12.2540      9.2150     13.7350      0.0100     78.3900
     22     12.1360      8.6140     15.3480      0.0100     78.3900
     23      5.7300      7.4620     13.0090      1.7700     78.3900
     24      6.5200      7.1030     12.3230      0.0100     78.3900
     25      4.5910      7.8320     12.2570      1.5900     78.3900
     26      4.3090      7.0420     11.7810      0.0100     78.3900
     27      5.3940      6.4200     14.0740      1.7700     78.3900
     28      6.3330      6.0050     14.5100      0.0100     78.3900
     29      4.4640      5.3920     13.6650      1.5900     78.3900
     30      5.0030      4.0510     13.0410      2.1000     78.3900
     31      6.0980      3.5290     13.8900      1.5900     78.3900
     32      3.8480      3.1550     12.8070      1.5900     78.3900
     33      5.5850      4.5150     11.6610      1.5900     78.3900
     34      4.6960      4.9000     10.5860      1.7700     78.3900
     35      4.0020      5.7100     10.9030      0.0100     78.3900
     36      4.0710      4.0330     10.2760      0.0100     78.3900
     37      5.4710      5.3870      9.3570      1.7700     78.3900
     38      4.7780      5.7160      8.5520      0.0100     78.3900
     39      6.2980      6.5260      9.7180      1.5900     78.3900
     40      7.5290      6.4570      9.0080      1.7700     78.3900
     41      7.5890      7.4050      8.4230      0.0100     78.3900
     42      8.7160      6.3750      9.9060      1.6800     78.3900
     43      8.5690      5.9330     11.2000      1.7700     78.3900
     44      7.5600      5.6500     11.4940      0.0100     78.3900
     45      9.6020      5.9020     12.0500      1.7700     78.3900
     46      9.4890      5.6010     13.0900      0.0100     78.3900
     47      9.9840      6.7110      9.4360      1.7700     78.3900
     48     10.1210      7.0570      8.2540      1.5900     78.3900
     49     11.0450      6.6650     10.2750      1.6800     78.3900
     50     10.8780      6.2970     11.5570      1.7700     78.3900
     51     11.9300      6.2940     12.3720      1.6800     78.3900
     52     12.8380      6.5360     12.0170      0.0100     78.3900
     53     11.8580      5.9850     13.3230      0.0100     78.3900
     54      7.4330      5.2910      8.0470      1.7700     78.3900
     55      8.4100      4.7970      7.8760      0.0100     78.3900
     56      6.8990      5.7310      6.8150      1.5900     78.3900
     57      6.7630      4.9360      6.2860      0.0100     78.3900
     58      6.4570      4.3700      8.7680      1.7700     78.3900
     59      6.9550      3.8860      9.6410      0.0100     78.3900
     60      5.7540      3.4280      7.9140      1.5900     78.3900
     61      6.4290      2.0250      7.6630      2.1000     78.3900
     62      6.9580      1.5300      8.9460      1.5900     78.3900
     63      5.4960      1.1300      6.9450      1.5900     78.3900
     64      7.6580      2.3350      6.7410      1.5900     78.3900
     65      7.5400      2.7520      5.3690      1.7700     78.3900
     66      6.9170      3.6670      5.2790      0.0100     78.3900
     67      7.0460      1.9600      4.7660      0.0100     78.3900
     68      8.9160      3.0600      4.7610      1.7700     78.3900
     69      8.8130      3.4560      3.7310      0.0100     78.3900
     70      9.5890      4.0900      5.5470      1.5900     78.3900
     71     10.9850      3.8370      5.5690      1.7700     78.3900
     72     11.4610      4.7420      5.1240      0.0100     78.3900
     73     11.4900      3.6260      6.9580      1.6800     78.3900
     74     10.6380      3.2570      7.9750      1.7700     78.3900
     75      9.6010      3.1070      7.6810      0.0100     78.3900
     76     12.8320      3.8210      7.2040      1.7700     78.3900
     77     13.6260      4.1470      6.3310      1.5900     78.3900
     78     13.2170      3.6390      8.5070      1.6800     78.3900
     79     14.2080      3.7740      8.6830      0.0100     78.3900
     80     12.4190      3.2890      9.5750      1.7700     78.3900
     81     12.9030      3.1590     10.6970      1.5900     78.3900
     82     11.0390      3.1010      9.2450      1.7700     78.3900
     83     10.3450      2.8230     10.0360      0.0100     78.3900
     84     11.2410      2.6460      4.6570      1.7700     78.3900
     85     12.0690      2.0150      5.0290      0.0100     78.3900
     86     11.5300      3.0850      3.3400      1.5900     78.3900
     87     11.4550      2.3180      2.7510      0.0100     78.3900
     88      9.9150      1.8980      4.7180      1.7700     78.3900
     89      9.8080      1.3740      5.6960      0.0100     78.3900
     90      9.6680      1.0460      3.5710      1.5900     78.3900
     91      9.6970     -0.5230      3.7430      2.1000     78.3900
     92      8.6230     -0.9020      4.6830      1.5900     78.3900
     93      9.6680     -1.1590      2.4080      1.5900     78.3900
     94     11.0870     -0.8230      4.4180      1.5900     78.3900
     95     12.3350     -0.6420      3.7180      1.7700     78.3900
     96     12.4000      0.3710      3.2640      0.0100     78.3900
     97     12.4450     -1.3950      2.9040      0.0100     78.3900
     98     13.5290     -0.7890      4.6690      1.7700     78.3900
     99     14.4820     -0.6510      4.1180      0.0100     78.3900
    100     13.4620      0.2400      5.7090      1.5900     78.3900
    101     13.8540     -0.3120      6.9460      1.7700     78.3900
    102     14.6620      0.3530      7.3310      0.0100     78.3900
    103     12.7270     -0.3580      7.9450      1.6800     78.3900
    104     11.4090     -0.1670      7.5860      1.7700     78.3900
    105     11.2380     -0.0140      6.5220      0.0100     78.3900
    106     13.0450     -0.5550      9.2660      1.7700     78.3900
    107     14.1870     -0.7260      9.6460      1.5900     78.3900
    108     12.0110     -0.5280     10.1500      1.6800     78.3900
    109     12.2740     -0.6530     11.1210      0.0100     78.3900
    110     10.6910     -0.2820      9.8780      1.7700     78.3900
    111      9.8850     -0.2010     10.8020      1.5900     78.3900
    112     10.4040     -0.1130      8.4820      1.7700     78.3900
    113      9.3770      0.1050      8.1890      0.0100     78.3900
    114     14.4470     -1.6740      6.6290      1.7700     78.3900
    115     14.3140     -2.3810      7.4520      0.0100     78.3900
    116     15.8290     -1.5650      6.3060      1.5900     78.3900
    117     16.2590     -0.9340      6.8990      0.0100     78.3900
    118     13.6150     -2.1130      5.4360      1.7700     78.3900
    119     12.5790     -2.3710      5.7560      0.0100     78.3900
    120     14.2360     -3.1350      4.6280      1.5900     78.3900
    121     13.8210     -4.6480      4.7450      2.1000     78.3900
    122     12.4960     -4.8010      4.1080      1.5900     78.3900
    123     14.9010     -5.5130      4.2060      1.5900     78.3900
    124     13.6630     -4.9650      6.2880      1.5900     78.3900
    125     14.8240     -5.1110      7.1440      1.7700     78.3900
    126     15.5540     -4.2850      6.9810      0.0100     78.3900
    127     15.3450     -6.0660      6.9150      0.0100     78.3900
    128     14.4650     -5.1210      8.6460      1.7700     78.3900
    129     15.3850     -5.1510      9.2680      0.0100     78.3900
    130     13.7600     -3.8990      8.9970      1.5900     78.3900
    131     12.6990     -4.1820      9.8730      1.7700     78.3900
    132     12.8240     -3.5010     10.7430      0.0100     78.3900
    133     11.4010     -3.9070      9.2500      1.6800     78.3900
    134     10.2180     -3.7270      9.9130      1.7700     78.3900
    135      8.4180     -3.6280     12.8630      1.6800     78.3900
    136      7.4810     -3.4500     13.1620      0.0100     78.3900
    137      9.1200     -3.8380     13.5400      0.0100     78.3900
    138     10.0460     -3.7850     11.2430      1.6800     78.3900
    139      8.7780     -3.5740     11.5950      1.7700     78.3900
    140      7.7770     -3.3120     10.6940      1.6800     78.3900
    141      6.8510     -3.1420     11.0410      0.0100     78.3900
    142      7.9340     -3.2390      9.3150      1.7700     78.3900
    143      6.9810     -3.0150      8.5630      1.5900     78.3900
    144      9.2800     -3.4770      8.9320      1.7700     78.3900
    145      9.8650     -3.4850      7.6740      1.6800     78.3900
    146     11.1260     -3.7430      7.9120      1.7700     78.3900
    147     11.9030     -3.8230      7.1540      0.0100     78.3900
    148     12.8530     -5.6130     10.3180      1.7700     78.3900
    149     11.8760     -6.0980     10.5300      0.0100     78.3900
    150     13.6750     -5.6590     11.4680      1.5900     78.3900
    151     13.8460     -6.5880     11.6560      0.0100     78.3900
    152     13.5440     -6.2540      9.1100      1.7700     78.3900
    153     12.8130     -6.4240      8.2870      0.0100     78.3900
    154     14.3290     -7.4370      9.3920      1.5900     78.3900
    155     13.5860     -8.7940      9.7050      2.1000     78.3900
    156     12.2870     -8.5220     10.3590      1.5900     78.3900
    157     13.5570     -9.6180      8.4760      1.5900     78.3900
    158     14.5100     -9.4930     10.7570      1.5900     78.3900
    159     15.0270     -8.8910     11.9610      1.7700     78.3900
    160     14.3780     -9.1580     12.8260      0.0100     78.3900
    161     15.0400     -7.7810     11.8900      0.0100     78.3900
    162     16.4730     -9.3340     12.2770      1.7700     78.3900
    163     16.4860    -10.2630     12.8800      0.0100     78.3900
    164     17.2050     -9.6190     11.0480      1.5900     78.3900
    165     18.5130     -9.0850     11.1310      1.7700     78.3900
    166     19.1930     -9.9430     10.9080      0.0100     78.3900
    167     18.7610     -8.0150     10.1250      1.6800     78.3900
    168     17.7060     -7.3830      9.5060      1.7700     78.3900
    169     16.7050     -7.7150      9.7930      0.0100     78.3900
    170     17.9100     -6.4420      8.5760      1.7700     78.3900
    171     17.0970     -5.9520      8.0520      0.0100     78.3900
    172     20.0700     -7.6460      9.8160      1.7700     78.3900
    173     21.0060     -8.2120     10.4030      1.5900     78.3900
    174     20.2930     -6.7220      8.8480      1.6800     78.3900
    175     19.2550     -6.1170      8.2440      1.7700     78.3900
    176     19.4910     -5.2290      7.2850      1.6800     78.3900
    177     20.4350     -4.9370      7.1300      0.0100     78.3900
    178     18.7600     -4.7280      6.8260      0.0100     78.3900
    179     18.7340     -8.6330     12.5590      1.7700     78.3900
    180     19.4220     -7.7670     12.6300      0.0100     78.3900
    181     19.2420     -9.7080     13.3280      1.5900     78.3900
    182     19.2120     -9.4400     14.2610      0.0100     78.3900
    183     17.3200     -8.2510     12.9840      1.7700     78.3900
    184     17.0430     -7.2760     12.5170      0.0100     78.3900
    185     17.0880     -8.2800     14.4160      1.5900     78.3900
    186     17.2970     -6.9460     15.2440      2.1000     78.3900
    187     16.5560     -5.8690     14.5560      1.5900     78.3900
    188     16.9090     -7.2030     16.6490      1.5900     78.3900
    189     18.8440     -6.6380     15.1800      1.5900     78.3900
    190     19.3370     -5.2720     15.3010      1.7700     78.3900
    191     19.7470     -5.1120     16.3230      0.0100     78.3900
    192     18.5330     -4.5090     15.1600      0.0100     78.3900
    193     20.4430     -4.9550     14.2790      1.7700     78.3900
    194     21.3750     -5.4980     14.5370      0.0100     78.3900
    195     20.0290     -5.4200     12.9680      1.5900     78.3900
    196     20.4540     -4.5110     11.9790      1.7700     78.3900
    197     21.0690     -5.1080     11.2670      0.0100     78.3900
    198     19.3170     -3.9080     11.2510      1.6800     78.3900
    199     18.0540     -3.8870     11.8080      1.7700     78.3900
    200     17.9410     -4.3580     12.7900      0.0100     78.3900
    201     17.0200     -3.3590     11.1440      1.7700     78.3900
    202     16.0060     -3.3650     11.5390      0.0100     78.3900
    203     19.5410     -3.3220     10.0090      1.7700     78.3900
    204     20.6900     -3.3080      9.5470      1.5900     78.3900
    205     18.5080     -2.7980      9.3210      1.6800     78.3900
    206     17.2810     -2.8260      9.8510      1.7700     78.3900
    207     16.2980     -2.3730      9.1190      1.6800     78.3900
    208     15.3520     -2.3450      9.4470      0.0100     78.3900
    209     16.4740     -2.1850      8.1590      0.0100     78.3900
    210     21.3310     -3.4750     12.6490      1.7700     78.3900
    211     21.2280     -2.4780     12.1760      0.0100     78.3900
    212     22.6900     -3.8900     12.6200      1.5900     78.3900
    213     23.1910     -3.2180     13.0990      0.0100     78.3900
    214     20.7680     -3.4600     14.0660      1.7700     78.3900
    215     19.7900     -2.9230     14.0820      0.0100     78.3900
    216     21.6950     -2.9850     15.0730      1.5900     78.3900
    217     21.6390     -1.4880     15.5660      2.1000     78.3900
    218     20.2180     -1.1100     15.7110      1.5900     78.3900
    219     22.4960     -1.3490     16.7600      1.5900     78.3900
    220     22.2590     -0.6380     14.4040      1.5900     78.3900
    221     23.6130     -0.7530     13.9280      1.7700     78.3900
    222     23.9350     -1.8180     13.8730      0.0100     78.3900
    223     24.3050     -0.2310     14.6270      0.0100     78.3900
    224     23.7600     -0.1160     12.5270      1.7700     78.3900
    225     24.7880     -0.2550     12.1300      0.0100     78.3900
    226     22.8470     -0.7740     11.6010      1.5900     78.3900
    227     22.2430      0.1850     10.7530      1.7700     78.3900
    228     22.4320     -0.1550      9.7090      0.0100     78.3900
    229     20.7930      0.2600     10.9750      1.6800     78.3900
    230     18.6320      0.4830     10.6870      1.7700     78.3900
    231     18.8050      0.1450     12.0170      1.6800     78.3900
    232     20.0980      0.0340     12.1380      1.7700     78.3900
    233     20.5940     -0.2270     13.0630      0.0100     78.3900
    234     17.6360      1.0210      8.6120      1.6800     78.3900
    235     18.8770      1.0630      8.1160      1.7700     78.3900
    236     18.9500      1.3040      7.0500      0.0100     78.3900
    237     20.0440      0.8670      8.7430      1.6800     78.3900
    238     19.8440      0.5540     10.0330      1.7700     78.3900
    239     17.4820      0.7450      9.9310      1.7700     78.3900
    240     16.2670      0.7470     10.4840      1.6800     78.3900
    241     16.1320      0.4500     11.4360      0.0100     78.3900
    242     15.4900      0.6640      9.8610      0.0100     78.3900
    243     22.9380      1.5060     10.9790      1.7700     78.3900
    244     22.2550      2.3740     10.8550      0.0100     78.3900
    245     24.0370      1.6330     10.0940      1.5900     78.3900
    246     24.4740      2.4690     10.3210      0.0100     78.3900
    247     23.4040      1.3810     12.4280      1.7700     78.3900
    248     22.5530      1.5520     13.1280      0.0100     78.3900
    249     24.5560      2.1880     12.7630      1.5900     78.3900
    250     24.3930      3.7350     12.9920      2.1000     78.3900
    251     23.1180      3.9400     13.7090      1.5900     78.3900
    252     25.6210      4.2380     13.6470      1.5900     78.3900
    253     24.3100      4.3610     11.5400      1.5900     78.3900
    254     23.5560      5.5890     11.3210      1.7700     78.3900
    255     24.1790      6.4820     11.5470      0.0100     78.3900
    256     22.6520      5.6490     11.9750      0.0100     78.3900
    257     23.0640      5.7110      9.8690      1.7700     78.3900
    258     23.9160      5.7820      9.1600      0.0100     78.3900
    259     22.3140      4.5100      9.5310      1.5900     78.3900
    260     21.1310      4.8520      8.8420      1.7700     78.3900
    261     21.0990      4.2250      7.9210      0.0100     78.3900
    262     19.9520      4.5690      9.6690      1.6800     78.3900
    263     17.9100      4.1550     10.3710      1.7700     78.3900
    264     18.7240      4.1140     11.5010      1.6800     78.3900
    265     19.9210      4.3620     11.0300      1.7700     78.3900
    266     20.8320      4.4110     11.6340      0.0100     78.3900
    267     16.0240      4.1100      8.9380      1.6800     78.3900
    268     16.8750      4.3650      7.9400      1.7700     78.3900
    269     16.4180      4.4530      6.9470      0.0100     78.3900
    270     18.1990      4.5570      7.9790      1.6800     78.3900
    271     18.6550      4.4340      9.2370      1.7700     78.3900
    272     16.5190      3.9910     10.1970      1.7700     78.3900
    273     15.6790      3.7200     11.2150      1.6800     78.3900
    274     16.0210      3.5810     12.1510      0.0100     78.3900
    275     14.7140      3.5200     11.0350      0.0100     78.3900
    276     21.2380      6.3090      8.4590      1.7700     78.3900
    277     20.2510      6.8070      8.3930      0.0100     78.3900
    278     21.9020      6.4250      7.2170      1.5900     78.3900
    279     22.0350      7.3680      7.0590      0.0100     78.3900
    280     22.0830      6.8740      9.5960      1.7700     78.3900
    281     21.4650      6.9770     10.5190      0.0100     78.3900
    282     22.8030      8.0890      9.2590      1.5900     78.3900
    283     22.1330      9.4850      9.5710      2.1000     78.3900
    284     21.6150      9.4280     10.9550      1.5900     78.3900
    285     23.1010     10.5650      9.2820      1.5900     78.3900
    286     20.9260      9.5910      8.5630      1.5900     78.3900
    287     21.1660      9.7560      7.1420      1.7700     78.3900
    288     21.8700      8.9890      6.7480      0.0100     78.3900
    289     21.6350     10.7400      6.9430      0.0100     78.3900
    290     19.8590      9.6760      6.3370      1.7700     78.3900
    291     20.0540      9.7790      5.2480      0.0100     78.3900
    292     19.2440      8.3750      6.5440      1.5900     78.3900
    293     17.8320      8.5200      6.5820      1.7700     78.3900
    294     17.4220      7.8350      5.8020      0.0100     78.3900
    295     17.2880      8.1350      7.8940      1.6800     78.3900
    296     15.9850      7.8370      8.1790      1.7700     78.3900
    297     12.6830      7.5380      7.1850      1.6800     78.3900
    298     12.7200      7.7750      6.2170      0.0100     78.3900
    299     11.7940      7.3240      7.6000      0.0100     78.3900
    300     14.9640      7.8560      7.3030      1.6800     78.3900
    301     13.8070      7.5320      7.8750      1.7700     78.3900
    302     13.6920      7.1840      9.1950      1.6800     78.3900
    303     12.7780      6.9490      9.5470      0.0100     78.3900
    304     14.7330      7.1370     10.1140      1.7700     78.3900
    305     14.5360      6.8140     11.2900      1.5900     78.3900
    306     15.9650      7.5120      9.5230      1.7700     78.3900
    307     17.2340      7.6160     10.0810      1.6800     78.3900
    308     17.9830      7.9900      9.0730      1.7700     78.3900
    309     19.0510      8.2070      9.1270      0.0100     78.3900
    310     17.5130      9.9560      6.2270      1.7700     78.3900
    311     16.6000     10.3280      6.7350      0.0100     78.3900
    312     17.3590     10.0790      4.8270      1.5900     78.3900
    313     17.2080     11.0140      4.6410      0.0100     78.3900
    314     18.7620     10.6810      6.7190      1.7700     78.3900
    315     18.7650     10.7230      7.8330      0.0100     78.3900
    316     19.0130     11.9660      6.0910      1.5900     78.3900
    317     18.5260     13.2620      6.8410      2.1000     78.3900
    318     18.8000     13.1290      8.2840      1.5900     78.3900
    319     19.0900     14.4600      6.1830      1.5900     78.3900
    320     16.9700     13.2340      6.6400      1.5900     78.3900
    321     16.4130     13.3700      5.3120      1.7700     78.3900
    322     16.8470     12.6300      4.6020      0.0100     78.3900
    323     16.6320     14.3840      4.9000      0.0100     78.3900
    324     14.8930     13.1820      5.3460      1.7700     78.3900
    325     14.4510     13.3120      4.3320      0.0100     78.3900
    326     14.5640     11.8350      5.7880      1.5900     78.3900
[...]
     10 F10      -1   34   1   89  386 1  1 G RHF             0      -1      -1
     11 F11       0   31   0   69  309 1  1 G RHF             0      -1      -1

 Close fragment pairs, distance relative to vdW radii

 CPU     0: STEP CPU TIME=     0.01 TOTAL CPU TIME=          2.2 (      0.0 MIN)
 TOTAL WALL CLOCK TIME=          5.5 SECONDS, CPU UTILIZATION IS    40.73%
 dmexch needs              4153986  words of memory.
 CPU     0: STEP CPU TIME=     0.02 TOTAL CPU TIME=          2.3 (      0.0 MIN)
 TOTAL WALL CLOCK TIME=          5.5 SECONDS, CPU UTILIZATION IS    40.79%

 Data exchange of   1375965 words took     0.0 s.

 RHF      monomer      5 corr= NONE       , L1=   386, L0=   362 ID=      1


 AO spaces for     5     0     0 n-mer: L1=   386, L0=   362

 DIRECT SCF CALCULATION, SCHWRZ=T   FDIFF=T,  DIRTHR=  0.00E+00 NITDIR=10

                                                                                   NONZERO     BLOCKS
 ITER EX DEM     TOTAL ENERGY        E CHANGE  DENSITY CHANGE     ORB. GRAD      INTEGRALS    SKIPPED
   1  0  0  1251414.4485333886*****************   0.515890001   0.000000000      886339915   17726727
          ---------------START SECOND ORDER SCF---------------
   2  1  0    -1446.6359254352*****************   0.391555107   0.102241667      890871624   17717487
   3  2  0    -1446.8668541183    -0.2309286831   0.177798453   0.091069536      885625966   17961588
   4  3  0    -1447.4171929944    -0.5503388762   0.112646523   0.018889999      874226668   18278730
   5  4  0    -1447.4332613681    -0.0160683736   0.031848315   0.011354370      860086169   18535506
   6  5  0    -1447.4371275251    -0.0038661571   0.007653715   0.003526163      835194956   18898629
   7  6  0    -1447.4373919826    -0.0002644574   0.003259708   0.001554336      810783252   19212064
   8  7  0    -1447.4374915794    -0.0000995969   0.000849741   0.000235002      785993277   19483576
   9  8  0    -1447.4374974860    -0.0000059065   0.000469116   0.000104745      745080651   19860729
  10  9  0    -1447.4374990273    -0.0000015413   0.000135053   0.000047104      712068689   20163364
  11 10  0    -1447.4374991868    -0.0000001595   0.000074331   0.000020693      672216687   20520666
  12 11  0    -1447.4374992183    -0.0000000315   0.000026507   0.000010033      640715849   20777508
  13 12  0    -1447.4374992231    -0.0000000048   0.000008601   0.000002751      607176475   21055001
  14 13  0    -1447.4374992232    -0.0000000002   0.000003897   0.000000967      562001085   21430746
  15 14  0    -1447.4374992232     0.0000000001   0.000001571   0.000000549      524520547   21751956
  16 15  0    -1447.4374992237    -0.0000000006   0.000000556   0.000000197      485148935   22059392
  17 16  0    -1447.4374992243    -0.0000000006   0.000000320   0.000000120      443771122   22387148
  18 17  0    -1447.4374992245    -0.0000000002   0.000000106   0.000000038      406362101   22677757

          -----------------
          DENSITY CONVERGED
          -----------------
     TIME TO FORM FOCK OPERATORS=      41.4 SECONDS (       2.3 SEC/ITER)
     FOCK TIME ON FIRST ITERATION=       2.8, LAST ITERATION=       1.4
     TIME TO SOLVE SCF EQUATIONS=       0.7 SECONDS (       0.0 SEC/ITER)

 FINAL RHF ENERGY IS    -1447.4374992245 AFTER  18 ITERATIONS
 ...... END OF RHF CALCULATION ......
 CPU     0: STEP CPU TIME=    75.26 TOTAL CPU TIME=         77.5 (      1.3 MIN)
 TOTAL WALL CLOCK TIME=        150.0 SECONDS, CPU UTILIZATION IS    51.68%
 DONE PCM POT.
 CPU     0: STEP CPU TIME=     0.42 TOTAL CPU TIME=         77.9 (      1.3 MIN)
 TOTAL WALL CLOCK TIME=        151.2 SECONDS, CPU UTILIZATION IS    51.56%

 Iter=  1 iFrag=      5 EFMO= -1507.043539707, DD= 0.475813148, DE=************


 RHF      monomer     10 corr= NONE       , L1=   386, L0=   362 ID=      2


 AO spaces for    10     0     0 n-mer: L1=   386, L0=   362

 DIRECT SCF CALCULATION, SCHWRZ=T   FDIFF=T,  DIRTHR=  0.00E+00 NITDIR=10

                                                                                   NONZERO     BLOCKS
 ITER EX DEM     TOTAL ENERGY        E CHANGE  DENSITY CHANGE     ORB. GRAD      INTEGRALS    SKIPPED
   1  0  0  1263979.8963147465*****************   0.528509656   0.000000000      903026277   17641132
          ---------------START SECOND ORDER SCF---------------
   2  1  0    -1451.9011278680*****************   0.418821045   0.103909445      907797102   17635597
   3  2  0    -1452.1310362073    -0.2299083392   0.180346328   0.074976941      902370219   17884628
   4  3  0    -1452.6881152841    -0.5570790768   0.096496286   0.018359816      890234042   18205097
   5  4  0    -1452.7043165289    -0.0162012448   0.023674903   0.009667975      875240089   18476551
   6  5  0    -1452.7074490361    -0.0031325071   0.005947783   0.002034069      849050414   18851968
   7  6  0    -1452.7076535817    -0.0002045456   0.002588735   0.000986405      818985746   19199590
   8  7  0    -1452.7077253139    -0.0000717322   0.000813904   0.000201122      791136745   19484068
   9  8  0    -1452.7077301727    -0.0000048588   0.000393162   0.000132593      751375903   19842437
  10  9  0    -1452.7077314677    -0.0000012950   0.000118356   0.000042546      712775029   20183328
  11 10  0    -1452.7077316094    -0.0000001417   0.000061850   0.000026504      675329875   20506368
  12 11  0    -1452.7077316365    -0.0000000270   0.000020091   0.000012914      642613758   20769673
  13 12  0    -1452.7077316402    -0.0000000037   0.000007652   0.000004023      602792621   21093769
  14 13  0    -1452.7077316423    -0.0000000021   0.000003667   0.000001418      561591503   21431088
  15 14  0    -1452.7077316418     0.0000000005   0.000001301   0.000000550      522212382   21760062
  16 15  0    -1452.7077316421    -0.0000000003   0.000000666   0.000000151      484198092   22062477
  17 16  0    -1452.7077316418     0.0000000002   0.000000201   0.000000120      442003093   22381796
  18 17  0    -1452.7077316421    -0.0000000003   0.000000081   0.000000033      401075309   22708595

          -----------------
          DENSITY CONVERGED
          -----------------
     TIME TO FORM FOCK OPERATORS=      44.7 SECONDS (       2.5 SEC/ITER)
     FOCK TIME ON FIRST ITERATION=       3.7, LAST ITERATION=       1.5
     TIME TO SOLVE SCF EQUATIONS=       0.7 SECONDS (       0.0 SEC/ITER)

 FINAL RHF ENERGY IS    -1452.7077316421 AFTER  18 ITERATIONS
 ...... END OF RHF CALCULATION ......
 CPU     0: STEP CPU TIME=    68.22 TOTAL CPU TIME=        146.2 (      2.4 MIN)
 TOTAL WALL CLOCK TIME=        287.1 SECONDS, CPU UTILIZATION IS    50.91%
 DONE PCM POT.
 CPU     0: STEP CPU TIME=     0.44 TOTAL CPU TIME=        146.6 (      2.4 MIN)
 TOTAL WALL CLOCK TIME=        288.2 SECONDS, CPU UTILIZATION IS    50.86%

 Iter=  1 iFrag=     10 EFMO= -1506.986797896, DD= 0.460353660, DE=************


 RHF      monomer      8 corr= NONE       , L1=   371, L0=   348 ID=      3


 AO spaces for     8     0     0 n-mer: L1=   371, L0=   348

 DIRECT SCF CALCULATION, SCHWRZ=T   FDIFF=T,  DIRTHR=  0.00E+00 NITDIR=10

                                                                                   NONZERO     BLOCKS
 ITER EX DEM     TOTAL ENERGY        E CHANGE  DENSITY CHANGE     ORB. GRAD      INTEGRALS    SKIPPED
   1  0  0  1239599.3471044227*****************   0.524639900   0.000000000      802599373   15130500
          ---------------START SECOND ORDER SCF---------------
   2  1  0    -1374.6016939990*****************   0.408242775   0.096759853      806670795   15131808
   3  2  0    -1374.8660809040    -0.2643869050   0.170060022   0.079261153      801110146   15399315
   4  3  0    -1375.1931251317    -0.3270442277   0.053556568   0.011023346      790159323   15689924
   5  4  0    -1375.2007246112    -0.0075994795   0.013822027   0.004140330      770939160   16006665
   6  5  0    -1375.2019224802    -0.0011978689   0.003419260   0.001978924      748681384   16301464
   7  6  0    -1375.2020923244    -0.0001698442   0.001159855   0.000677022      720983640   16617420
   8  7  0    -1375.2021209572    -0.0000286329   0.000804781   0.000309326      692101952   16896018
   9  8  0    -1375.2021267563    -0.0000057991   0.000416775   0.000133427      668134296   17123307
  10  9  0    -1375.2021280545    -0.0000012982   0.000122264   0.000042395      638220883   17405052
  11 10  0    -1375.2021282433    -0.0000001888   0.000044735   0.000011592      615256049   17576167
  12 11  0    -1375.2021282638    -0.0000000205   0.000018437   0.000007012      581019553   17866229
  13 12  0    -1375.2021282668    -0.0000000030   0.000007323   0.000001694      540112969   18228770
  14 13  0    -1375.2021282670    -0.0000000002   0.000001750   0.000000833      501455774   18551244
  15 14  0    -1375.2021282687    -0.0000000017   0.000001052   0.000000374      460502815   18896555
  16 15  0    -1375.2021282684     0.0000000002   0.000000341   0.000000106      424532206   19217460
  17 16  0    -1375.2021282675     0.0000000009   0.000000153   0.000000032      386520531   19497812

          -----------------
          DENSITY CONVERGED
          -----------------
     TIME TO FORM FOCK OPERATORS=      36.4 SECONDS (       2.1 SEC/ITER)
     FOCK TIME ON FIRST ITERATION=       2.8, LAST ITERATION=       1.2
     TIME TO SOLVE SCF EQUATIONS=       0.6 SECONDS (       0.0 SEC/ITER)

 FINAL RHF ENERGY IS    -1375.2021282675 AFTER  17 ITERATIONS
 ...... END OF RHF CALCULATION ......
 CPU     0: STEP CPU TIME=    63.84 TOTAL CPU TIME=        210.4 (      3.5 MIN)
 TOTAL WALL CLOCK TIME=        411.8 SECONDS, CPU UTILIZATION IS    51.10%
 DONE PCM POT.
 CPU     0: STEP CPU TIME=     0.42 TOTAL CPU TIME=        210.9 (      3.5 MIN)
 TOTAL WALL CLOCK TIME=        412.9 SECONDS, CPU UTILIZATION IS    51.07%

 Iter=  1 iFrag=      8 EFMO= -1432.235402235, DD= 0.440305600, DE=************


 RHF      monomer      9 corr= NONE       , L1=   371, L0=   348 ID=      4


 AO spaces for     9     0     0 n-mer: L1=   371, L0=   348

 DIRECT SCF CALCULATION, SCHWRZ=T   FDIFF=T,  DIRTHR=  0.00E+00 NITDIR=10

                                                                                   NONZERO     BLOCKS
 ITER EX DEM     TOTAL ENERGY        E CHANGE  DENSITY CHANGE     ORB. GRAD      INTEGRALS    SKIPPED
   1  0  0  1373849.2141809198*****************   0.532794416   0.000000000      820645576   14894098
          ---------------START SECOND ORDER SCF---------------
   2  1  0    -1374.9632574480*****************   0.427261364   0.104582833      824492277   14893442
   3  2  0    -1375.2350105796    -0.2717531317   0.175925429   0.074798293      819849557   15138110
   4  3  0    -1375.6233140707    -0.3883034911   0.059001700   0.011407420      809387708   15436138
   5  4  0    -1375.6328164274    -0.0095023567   0.016907169   0.004771928      792380688   15745023
   6  5  0    -1375.6348451566    -0.0020287292   0.003906455   0.002645678      771714412   16045628
   7  6  0    -1375.6350625848    -0.0002174282   0.001227594   0.000744123      744781135   16368938
   8  7  0    -1375.6351085528    -0.0000459680   0.000980856   0.000334895      718283310   16641233
   9  8  0    -1375.6351164390    -0.0000078863   0.000495884   0.000148830      692444986   16893541
  10  9  0    -1375.6351182595    -0.0000018204   0.000160756   0.000050891      661141331   17193994
  11 10  0    -1375.6351185221    -0.0000002627   0.000052736   0.000016314      637595301   17370790
  12 11  0    -1375.6351185545    -0.0000000324   0.000029000   0.000007611      603046852   17659565
  13 12  0    -1375.6351185597    -0.0000000052   0.000006966   0.000002503      559014769   18058990
  14 13  0    -1375.6351185605    -0.0000000008   0.000002281   0.000000979      524323765   18347626
  15 14  0    -1375.6351185612    -0.0000000007   0.000001323   0.000000359      485742402   18675236
  16 15  0    -1375.6351185613    -0.0000000001   0.000000577   0.000000126      447943010   19001891
  17 16  0    -1375.6351185614    -0.0000000001   0.000000206   0.000000053      411185244   19287849
  18 17  0    -1375.6351185605     0.0000000009   0.000000049   0.000000020      371939761   19608594

          -----------------
          DENSITY CONVERGED
          -----------------
     TIME TO FORM FOCK OPERATORS=      36.3 SECONDS (       2.0 SEC/ITER)
     FOCK TIME ON FIRST ITERATION=       2.6, LAST ITERATION=       1.2
     TIME TO SOLVE SCF EQUATIONS=       0.6 SECONDS (       0.0 SEC/ITER)

 FINAL RHF ENERGY IS    -1375.6351185605 AFTER  18 ITERATIONS
 ...... END OF RHF CALCULATION ......
 CPU     0: STEP CPU TIME=    59.54 TOTAL CPU TIME=        270.4 (      4.5 MIN)
 TOTAL WALL CLOCK TIME=        542.0 SECONDS, CPU UTILIZATION IS    49.89%
 DONE PCM POT.
 CPU     0: STEP CPU TIME=     0.39 TOTAL CPU TIME=        270.8 (      4.5 MIN)
 TOTAL WALL CLOCK TIME=        543.0 SECONDS, CPU UTILIZATION IS    49.87%

 Iter=  1 iFrag=      9 EFMO= -1432.125199376, DD= 0.432628665, DE=************


 RHF      monomer      1 corr= NONE       , L1=   358, L0=   336 ID=      5


 AO spaces for     1     0     0 n-mer: L1=   358, L0=   336

 DIRECT SCF CALCULATION, SCHWRZ=T   FDIFF=T,  DIRTHR=  0.00E+00 NITDIR=10

                                                                                   NONZERO     BLOCKS
 ITER EX DEM     TOTAL ENERGY        E CHANGE  DENSITY CHANGE     ORB. GRAD      INTEGRALS    SKIPPED
   1  0  0   849869.2409361386849869.2409361386   0.526638838   0.000000000      770884170   13422013
          ---------------START SECOND ORDER SCF---------------
   2  1  0    -1403.1755515743*****************   0.416772053   0.090504409      774964594   13429255
   3  2  0    -1403.4100882830    -0.2345367086   0.176654150   0.072556721      768828177   13685217
   4  3  0    -1403.8041169724    -0.3940286895   0.052546808   0.014532286      757237449   13984051
   5  4  0    -1403.8150933049    -0.0109763325   0.012356645   0.004824003      741390733   14260277
   6  5  0    -1403.8165191376    -0.0014258327   0.006409338   0.002852131      717653175   14594630
   7  6  0    -1403.8166214803    -0.0001023426   0.005049099   0.003174240      695732680   14871921
   8  7  0    -1403.8167339061    -0.0001124259   0.002653054   0.001328285      674481416   15124767
   9  8  0    -1403.8167432233    -0.0000093172   0.002585339   0.001119887      661616873   15269850
  10  9  0    -1403.8167601088    -0.0000168855   0.000871703   0.000557696      636085306   15536269
  11 10  0    -1403.8167631286    -0.0000030198   0.000406861   0.000234080      630074114   15576026
  12 11  0    -1403.8167651115    -0.0000019829   0.000141722   0.000058655      605843454   15810808
  13 12  0    -1403.8167651766    -0.0000000651   0.000056115   0.000048218      564250451   16205417
  14 13  0    -1403.8167652382    -0.0000000616   0.000022383   0.000009378      537029651   16444293
  15 14  0    -1403.8167652425    -0.0000000044   0.000015144   0.000007322      508287854   16694899
  16 15  0    -1403.8167652451    -0.0000000026   0.000005591   0.000001988      479866259   16956972
  17 16  0    -1403.8167652439     0.0000000011   0.000003446   0.000001512      445737009   17241310
  18 17  0    -1403.8167652447    -0.0000000007   0.000000724   0.000000244      405938066   17605234
  19 18  0    -1403.8167652449    -0.0000000002   0.000000299   0.000000103      375209433   17861748
  20 19  0    -1403.8167652449    -0.0000000000   0.000000106   0.000000032      346277750   18085334

          -----------------
          DENSITY CONVERGED
          -----------------
     TIME TO FORM FOCK OPERATORS=      40.8 SECONDS (       2.0 SEC/ITER)
     FOCK TIME ON FIRST ITERATION=       3.0, LAST ITERATION=       1.1
     TIME TO SOLVE SCF EQUATIONS=       0.6 SECONDS (       0.0 SEC/ITER)

 FINAL RHF ENERGY IS    -1403.8167652449 AFTER  20 ITERATIONS
 ...... END OF RHF CALCULATION ......
 CPU     0: STEP CPU TIME=    55.47 TOTAL CPU TIME=        326.3 (      5.4 MIN)
 TOTAL WALL CLOCK TIME=        655.8 SECONDS, CPU UTILIZATION IS    49.75%
 DONE PCM POT.
 CPU     0: STEP CPU TIME=     0.38 TOTAL CPU TIME=        326.6 (      5.4 MIN)
 TOTAL WALL CLOCK TIME=        656.8 SECONDS, CPU UTILIZATION IS    49.73%

 Iter=  1 iFrag=      1 EFMO= -1450.364976873, DD= 0.502999906, DE=************


 RHF      monomer      7 corr= NONE       , L1=   341, L0=   320 ID=      6


 AO spaces for     7     0     0 n-mer: L1=   341, L0=   320

 DIRECT SCF CALCULATION, SCHWRZ=T   FDIFF=T,  DIRTHR=  0.00E+00 NITDIR=10

                                                                                   NONZERO     BLOCKS
 ITER EX DEM     TOTAL ENERGY        E CHANGE  DENSITY CHANGE     ORB. GRAD      INTEGRALS    SKIPPED
   1  0  0  1366159.3938225708*****************   0.528844964   0.000000000      661872263   10550726
          ---------------START SECOND ORDER SCF---------------
   2  1  0    -1310.7034433775*****************   0.421793185   0.099223796      665712134   10549064
   3  2  0    -1310.9424867069    -0.2390433294   0.173023886   0.076748431      661309098   10733539
   4  3  0    -1311.3914517139    -0.4489650070   0.057642939   0.018382093      651718793   10967593
   5  4  0    -1311.4047155384    -0.0132638245   0.013437473   0.006221787      638890087   11186515
   6  5  0    -1311.4067467618    -0.0020312233   0.003193408   0.001905360      617553151   11473344
   7  6  0    -1311.4068977103    -0.0001509485   0.001067967   0.000986410      592054485   11755221
   8  7  0    -1311.4069356231    -0.0000379128   0.000576487   0.000293777      571049186   11979543
   9  8  0    -1311.4069391827    -0.0000035596   0.000254441   0.000140461      544300863   12242838
  10  9  0    -1311.4069403159    -0.0000011332   0.000120504   0.000071617      516455441   12514304
  11 10  0    -1311.4069404235    -0.0000001075   0.000068654   0.000058464      498227115   12673896
  12 11  0    -1311.4069404762    -0.0000000527   0.000018193   0.000011170      467823812   12950839
  13 12  0    -1311.4069404815    -0.0000000053   0.000007159   0.000006944      445400706   13145839
  14 13  0    -1311.4069404822    -0.0000000007   0.000003102   0.000001276      413598907   13437632
  15 14  0    -1311.4069404828    -0.0000000006   0.000001193   0.000000830      388461753   13648521
  16 15  0    -1311.4069404832    -0.0000000003   0.000000493   0.000000277      357536205   13917020
  17 16  0    -1311.4069404835    -0.0000000003   0.000000126   0.000000082      327544419   14186231
  18 17  0    -1311.4069404830     0.0000000005   0.000000081   0.000000042      295934745   14445212

          -----------------
          DENSITY CONVERGED
          -----------------
     TIME TO FORM FOCK OPERATORS=      31.9 SECONDS (       1.8 SEC/ITER)
     FOCK TIME ON FIRST ITERATION=       2.6, LAST ITERATION=       1.0
     TIME TO SOLVE SCF EQUATIONS=       0.5 SECONDS (       0.0 SEC/ITER)

 FINAL RHF ENERGY IS    -1311.4069404830 AFTER  18 ITERATIONS
 ...... END OF RHF CALCULATION ......
 CPU     0: STEP CPU TIME=    48.71 TOTAL CPU TIME=        375.3 (      6.3 MIN)
 TOTAL WALL CLOCK TIME=        757.1 SECONDS, CPU UTILIZATION IS    49.58%
 DONE PCM POT.
 CPU     0: STEP CPU TIME=     0.34 TOTAL CPU TIME=        375.7 (      6.3 MIN)
 TOTAL WALL CLOCK TIME=        758.0 SECONDS, CPU UTILIZATION IS    49.56%

 Iter=  1 iFrag=      7 EFMO= -1360.229057908, DD= 0.545768935, DE=************


 RHF      monomer      6 corr= NONE       , L1=   341, L0=   320 ID=      7


 AO spaces for     6     0     0 n-mer: L1=   341, L0=   320

 DIRECT SCF CALCULATION, SCHWRZ=T   FDIFF=T,  DIRTHR=  0.00E+00 NITDIR=10

                                                                                   NONZERO     BLOCKS
 ITER EX DEM     TOTAL ENERGY        E CHANGE  DENSITY CHANGE     ORB. GRAD      INTEGRALS    SKIPPED
