‘2LBK_4_fmo_input.inp’ -> ‘/scratch/hazwong/821671/./2LBK_4_fmo_input.inp’
‘rungms’ -> ‘/scratch/hazwong/821671/./rungms’
‘gms-files.csh’ -> ‘/scratch/hazwong/821671/./gms-files.csh’
----- GAMESS execution script 'rungms' -----
This job is running on host gollum054.lsa.umich.edu
under operating system Linux at Fri Dec 6 09:16:40 EST 2019
Available scratch disk space (Kbyte units) at beginning of the job is
Filesystem     1K-blocks  Used Available Use% Mounted on
/dev/sda4      426933580 33328 426900252   1% /scratch
GAMESS temporary binary files will be written to /scratch/hazwong/821671/2LBK_4/usrc
GAMESS supplementary output files will be written to /scratch/hazwong/821671/2LBK_4/src
Copying input file 2LBK_4_fmo_input.inp to your run's scratch directory...
cp 2LBK_4_fmo_input.inp /scratch/hazwong/821671/2LBK_4/usrc/2LBK_4_fmo_input.F05
unset echo
This is a GDDI run, keeping various output files on local disks
setenv OUTPUT /scratch/hazwong/821671/2LBK_4/usrc/2LBK_4_fmo_input.F06
setenv PUNCH /scratch/hazwong/821671/2LBK_4/usrc/2LBK_4_fmo_input.F07
unset echo
 
Assuming a single but multicore node.
 
/export/apps/CentOS7/gamess/src/build//ddikick.x /export/apps/CentOS7/gamess/src/build//gamess.R3.x 2LBK_4_fmo_input -ddi 1 16 gollum054.lsa.umich.edu:cpus=16 -scr /scratch/hazwong/821671/2LBK_4/usrc

 Distributed Data Interface kickoff program.
 Initiating 16 compute processes on 1 nodes to run the following command:
 /export/apps/CentOS7/gamess/src/build//gamess.R3.x 2LBK_4_fmo_input 

          ******************************************************
          *         GAMESS VERSION = 30 SEP 2018 (R3)         *
          *             FROM IOWA STATE UNIVERSITY             *
          * M.W.SCHMIDT, K.K.BALDRIDGE, J.A.BOATZ, S.T.ELBERT, *
          *   M.S.GORDON, J.H.JENSEN, S.KOSEKI, N.MATSUNAGA,   *
          *          K.A.NGUYEN, S.J.SU, T.L.WINDUS,           *
          *       TOGETHER WITH M.DUPUIS, J.A.MONTGOMERY       *
          *         J.COMPUT.CHEM.  14, 1347-1363(1993)        *
          **************** 64 BIT LINUX VERSION ****************

  SINCE 1993, STUDENTS AND POSTDOCS WORKING AT IOWA STATE UNIVERSITY
  AND ALSO IN THEIR VARIOUS JOBS AFTER LEAVING ISU HAVE MADE IMPORTANT
  CONTRIBUTIONS TO THE CODE:
     IVANA ADAMOVIC, CHRISTINE AIKENS, YURI ALEXEEV, POOJA ARORA,
     ANDREY ASADCHEV, ROB BELL, PRADIPTA BANDYOPADHYAY, JONATHAN BENTZ,
     BRETT BODE, KURT BRORSEN, CALEB CARLIN, GALINA CHABAN, WEI CHEN,
     CHEOL HO CHOI, PAUL DAY, ALBERT DEFUSCO, NUWAN DESILVA, TIM DUDLEY,
     DMITRI FEDOROV, ALEX FINDLATER, GRAHAM FLETCHER, MARK FREITAG,
     KURT GLAESEMANN, ANASTASIA GUNINA,
     DAN KEMP, GRANT MERRILL, NORIYUKI MINEZAWA, JONATHAN MULLIN,
     TAKESHI NAGATA, SEAN NEDD, HEATHER NETZLOFF, BOSILJKA NJEGIC, RYAN OLSON,
     MIKE PAK, BUU PHAM,
     SPENCER PRUITT, LUKE ROSKOP, JIM SHOEMAKER, LYUDMILA SLIPCHENKO,
     TONY SMITH, SAROM SOK LEANG, JIE SONG, TETSUYA TAKETSUGU, SIMON WEBB,
     PENG XU, SOOHAENG YOO, FEDERICO ZAHARIEV

  ADDITIONAL CODE HAS BEEN PROVIDED BY COLLABORATORS IN OTHER GROUPS:
     IOWA STATE UNIVERSITY:
          JOE IVANIC, AARON WEST, LAIMUTIS BYTAUTAS, KLAUS RUEDENBERG
     UNIVERSITY OF TOKYO: KIMIHIKO HIRAO, TAKAHITO NAKAJIMA,
          TAKAO TSUNEDA, MUNEAKI KAMIYA, SUSUMU YANAGISAWA,
          KIYOSHI YAGI, MAHITO CHIBA, SEIKEN TOKURA, NAOAKI KAWAKAMI
     UNIVERSITY OF AARHUS: FRANK JENSEN
     UNIVERSITY OF IOWA: VISVALDAS KAIRYS, HUI LI
     NATIONAL INST. OF STANDARDS AND TECHNOLOGY: WALT STEVENS, DAVID GARMER
     UNIVERSITY OF PISA: BENEDETTA MENNUCCI, JACOPO TOMASI
     UNIVERSITY OF MEMPHIS: HENRY KURTZ, PRAKASHAN KORAMBATH
     UNIVERSITY OF ALBERTA: TOBY ZENG, MARIUSZ KLOBUKOWSKI
     UNIVERSITY OF NEW ENGLAND: MARK SPACKMAN
     MIE UNIVERSITY: HIROAKI UMEDA
     NAT. INST. OF ADVANCED INDUSTRIAL SCIENCE AND TECHNOLOGY: KAZUO KITAURA
     MICHIGAN STATE UNIVERSITY:
          KAROL KOWALSKI, MARTA WLOCH, JEFFREY GOUR, JESSE LUTZ,
          WEI LI, JUN SHEN, J. EMILIANO DEUSTUA, PIOTR PIECUCH
     UNIVERSITY OF MINNESOTA:
          YINAN SHU
     UNIVERSITY OF SILESIA: MONIKA MUSIAL, STANISLAW KUCHARSKI
     FACULTES UNIVERSITAIRES NOTRE-DAME DE LA PAIX:
          OLIVIER QUINET, BENOIT CHAMPAGNE
     UNIVERSITY OF CALIFORNIA - SANTA BARBARA: BERNARD KIRTMAN
     INSTITUTE FOR MOLECULAR SCIENCE:
          KAZUYA ISHIMURA, MICHIO KATOUDA, AND SHIGERU NAGASE
     UNIVERSITY OF NOTRE DAME: ANNA POMOGAEVA, DAN CHIPMAN
     KYUSHU UNIVERSITY:
          HARUYUKI NAKANO,
          FENG LONG GU, JACEK KORCHOWIEC, MARCIN MAKOWSKI, AND YURIKO AOKI,
          HIROTOSHI MORI AND EISAKU MIYOSHI
     PENNSYLVANIA STATE UNIVERSITY:
          TZVETELIN IORDANOV, CHET SWALINA, JONATHAN SKONE,
          SHARON HAMMES-SCHIFFER
     WASEDA UNIVERSITY:
          MASATO KOBAYASHI, TOMOKO AKAMA, TSUGUKI TOUMA,
          TAKESHI YOSHIKAWA, YASUHIRO IKABATA, JUNJI SEINO,
          YUYA NAKAJIMA, HIROMI NAKAI
     NANJING UNIVERSITY: SHUHUA LI
     UNIVERSITY OF NEBRASKA:
          PEIFENG SU, DEJUN SI, NANDUN THELLAMUREGE, YALI WANG, HUI LI
     UNIVERSITY OF ZURICH: ROBERTO PEVERATI, KIM BALDRIDGE
     N. COPERNICUS UNIVERSITY AND JACKSON STATE UNIVERSITY:
          MARIA BARYSZ
     UNIVERSITY OF COPENHAGEN: Jimmy Kromann, CASPER STEINMANN
     TOKYO INSTITUTE OF TECHNOLOGY: HIROYA NAKATA
     NAGOYA UNIVERSITY: YOSHIO NISHIMOTO, STEPHAN IRLE
     MOSCOW STATE UNIVERSITY: VLADIMIR MIRONOV


 PARALLEL VERSION RUNNING ON       16 PROCESSORS IN        1 NODES.

 EXECUTION OF GAMESS BEGUN Fri Dec  6 09:16:40 2019

            ECHO OF THE FIRST FEW INPUT CARDS -
 INPUT CARD>!*** FMO 5.3 (Gamess) INPUT generated by Facio 22.1.1.32 ***                    
 INPUT CARD> $CONTRL RUNTYP=ENERGY NPRINT=-5 ISPHER=1 MAXIT=200 $END                        
 INPUT CARD> $SYSTEM MWORDS=63 MEMDDI=63 $END                                               
 INPUT CARD> $GDDI NGROUP=1 $END                                                            
 INPUT CARD> $SCF DIRSCF=.TRUE. NPUNCH=0 $END                                               
 INPUT CARD>!*** NumCPU : 2  MemPerNode : 512MB                                             
 INPUT CARD> $PCM SOLVNT=WATER IEF=-10 ICOMP=2 ICAV=1 IDISP=1 IFMO=-1 $END                  
 INPUT CARD> $PCMCAV RADII=SUAHF $END                                                       
 INPUT CARD> $TESCAV NTSALL=60 $END                                                         
 INPUT CARD> $FMOPRP                                                                        
 INPUT CARD>    NAODIR=200                                                                  
 INPUT CARD>    NGRFMO(1)=1, 1, 0, 0, 0,   0, 0, 0, 0, 0                                    
 INPUT CARD>    IPIEDA=1                                                                    
 INPUT CARD>    NPRINT=9                                                                    
 INPUT CARD> $END                                                                           
 INPUT CARD> $FMO                                                                           
 INPUT CARD>      SCFTYP(1)=RHF                                                             
 INPUT CARD>      MODGRD=10                                                                 
 INPUT CARD>      MODMUL=0                                                                  
 INPUT CARD>      MAXCAO=5                                                                  
 INPUT CARD>      MAXBND=13                                                                 
 INPUT CARD>      NLAYER=1                                                                  
 INPUT CARD>      MPLEVL(1)=2                                                               
 INPUT CARD>      NFRAG=11                                                                  
 INPUT CARD>      ICHARG(1)=-1, -1, -1, -1, -1, -1, -1, -1, -1, -1, 0                       
 INPUT CARD>      FRGNAM(1)=F1, F2, F3, F4, F5, F6, F7, F8, F9, F10, F11                    
 INPUT CARD>      indat(1)=0                                                                
 INPUT CARD>               1   -35   0                                                      
 INPUT CARD>               36   -66   0                                                     
 INPUT CARD>               67   -97   0                                                     
 INPUT CARD>               98   -127   0                                                    
 INPUT CARD>               128   -157   0                                                   
 INPUT CARD>               158   -188   0                                                   
 INPUT CARD>               189   -219   0                                                   
 INPUT CARD>               220   -250   0                                                   
 INPUT CARD>               251   -284   0                                                   
 INPUT CARD>               285   -318   0                                                   
 INPUT CARD>               319   -345   0                                                   
 INPUT CARD> $END                                                                           
 INPUT CARD>                                                                                
 INPUT CARD> $FMOBND                                                                        
 INPUT CARD>   -36   35       6-31G*    MINI                                                
 INPUT CARD>   -67   66       6-31G*    MINI                                                
 INPUT CARD>   -98   97       6-31G*    MINI                                                
 INPUT CARD>   -128   127       6-31G*    MINI                                              
 INPUT CARD>   -158   157       6-31G*    MINI                                              
 INPUT CARD>   -189   188       6-31G*    MINI                                              
 INPUT CARD>   -220   219       6-31G*    MINI                                              
 INPUT CARD>   -251   250       6-31G*    MINI                                              
 INPUT CARD>   -285   284       6-31G*    MINI                                              


 -------------------------------------------------------------
 GROUP DDI, PROGRAMMED BY: RYAN M. OLSON AND DMITRI G. FEDOROV
        FEDOROV ET AL., J. COMPUT. CHEM., 25 (2004) 872.
 -------------------------------------------------------------

 -------------------------------------------------------
 GDDI: INITIALIZATION COMPLETED FOR GROUP     1 OF     1
 WITH    16 PROCESSES BALTYP=DLB   global rank=        0
 -------------------------------------------------------

   63000000 WORDS OF MEMORY AVAILABLE


     RUN TITLE
     ---------
  FMO calculation                                                                

 THE POINT GROUP OF THE MOLECULE IS C1      
 THE ORDER OF THE PRINCIPAL AXIS IS     0

 ATOM   ATOMIC CHARGE
 H.1-1       1.0
 O.1-1       8.0
 C.1-1       6.0
 N.1-1       7.0
 P.1-1      15.0

     ATOMIC BASIS SET LIBRARY
     ----------------
 THE CONTRACTED PRIMITIVE FUNCTIONS HAVE BEEN UNNORMALIZED
 THE CONTRACTED BASIS FUNCTIONS ARE NOW NORMALIZED TO UNITY

  SHELL TYPE  PRIMITIVE        EXPONENT          CONTRACTION COEFFICIENT(S)

 H.1-1     

      1   S       1            18.7311370    0.033494604338
      1   S       2             2.8253944    0.234726953484
      1   S       3             0.6401217    0.813757326146

      2   S       4             0.1612778    1.000000000000

 O.1-1     

      3   S       5          5484.6716600    0.001831074430
      3   S       6           825.2349460    0.013950172200
      3   S       7           188.0469580    0.068445078098
      3   S       8            52.9645000    0.232714335992
      3   S       9            16.8975704    0.470192897984
      3   S      10             5.7996353    0.358520852987

      4   L      11            15.5396162   -0.110777549525    0.070874268231
      4   L      12             3.5999336   -0.148026262701    0.339752839147
      4   L      13             1.0137618    1.130767015354    0.727158577316

      5   L      14             0.2700058    1.000000000000    1.000000000000

      6   D      15             0.8000000    1.000000000000

 C.1-1     

      7   S      16          3047.5248800    0.001834737132
      7   S      17           457.3695180    0.014037322813
      7   S      18           103.9486850    0.068842622264
      7   S      19            29.2101553    0.232184443216
      7   S      20             9.2866630    0.467941348435
      7   S      21             3.1639270    0.362311985337

      8   L      22             7.8682723   -0.119332419775    0.068999066591
      8   L      23             1.8812885   -0.160854151696    0.316423960957
      8   L      24             0.5442493    1.143456437840    0.744308290898

      9   L      25             0.1687145    1.000000000000    1.000000000000

     10   D      26             0.8000000    1.000000000000

 N.1-1     

     11   S      27          4173.5114600    0.001834772160
     11   S      28           627.4579110    0.013994627002
     11   S      29           142.9020930    0.068586551812
     11   S      30            40.2343293    0.232240873040
     11   S      31            12.8202129    0.469069948082
     11   S      32             4.3904370    0.360455199063

     12   L      33            11.6263619   -0.114961181702    0.067579743878
     12   L      34             2.7162798   -0.169117478561    0.323907295893
     12   L      35             0.7722184    1.145851947027    0.740895139755

     13   L      36             0.2120315    1.000000000000    1.000000000000

     14   D      37             0.8000000    1.000000000000

 P.1-1     

     15   S      38         19413.3000000    0.001851598923
     15   S      39          2909.4200000    0.014206191735
     15   S      40           661.3640000    0.069999459277
     15   S      41           185.7590000    0.240078860331
     15   S      42            59.1943000    0.484761717984
     15   S      43            20.0310000    0.335199804993

     16   L      44           339.4780000   -0.002782170105    0.004564616191
     16   L      45            81.0101000   -0.036049901354    0.033693571881
     16   L      46            25.8780000   -0.116631004382    0.139754883368
     16   L      47             9.4522100    0.096832803638    0.339361716786
     16   L      48             3.6656600    0.614418023082    0.450920623685
     16   L      49             1.4674600    0.403798015170    0.238585800889

     17   L      50             2.1562300   -0.252924113863   -0.017765312733
     17   L      51             0.7489970    0.032851844678    0.274058196433
     17   L      52             0.2831450    1.081254761783    0.785421562957

     18   L      53             0.0998317    1.000000000000    1.000000000000

     19   D      54             0.5500000    1.000000000000

 TOTAL NUMBER OF BASIS SET SHELLS             =   19
 NUMBER OF CARTESIAN GAUSSIAN BASIS FUNCTIONS =   66

     $CONTRL OPTIONS
     ---------------
 SCFTYP=RHF          RUNTYP=ENERGY       EXETYP=RUN     
 MPLEVL=       0     CITYP =NONE         CCTYP =NONE         VBTYP =NONE    
 DFTTYP=NONE         TDDFT =NONE    
 MULT  =       1     ICHARG=       0     NZVAR =       0     COORD =UNIQUE  
 PP    =NONE         RELWFN=NONE         LOCAL =NONE         NUMGRD=       F
 ISPHER=       1     NOSYM =       0     MAXIT =     200     UNITS =ANGS    
 PLTORB=       F     MOLPLT=       F     AIMPAC=       F     FRIEND=        
 NPRINT=      -5     IREST =       0     GEOM  =INPUT   
 NORMF =       0     NORMP =       0     ITOL  =      24     ICUT  =      12
 INTTYP=BEST         GRDTYP=BEST         QMTTOL= 1.0E-06

     $SYSTEM OPTIONS
     ---------------
  REPLICATED MEMORY=    63000000 WORDS (ON EVERY NODE).
 DISTRIBUTED MEMDDI=          63 MILLION WORDS IN AGGREGATE,
 MEMDDI DISTRIBUTED OVER  16 PROCESSORS IS     3937500 WORDS/PROCESSOR.
 TOTAL MEMORY REQUESTED ON EACH PROCESSOR=    66937500 WORDS.
 TIMLIM=      525600.00 MINUTES, OR     365.0 DAYS.
 PARALL= T  BALTYP=  DLB     KDIAG=    0  COREFL= F
 MXSEQ2=     300 MXSEQ3=     150  mem10=         0

 ** LOOKING UP INTERNALLY STORED DATA FOR SOLVENT=WATER    **
 OPTICAL AND PHYSICAL CONSTANTS:
 EPS= 78.390; EPSINF=  1.776; RSOLV=  1.385 A; VMOL=  18.070 ML/MOL;
 TCE= .25700E-03 1/K; STEN= 71.810 DYN/CM;  DSTEN=  0.6500; CMF=  1.2770


     -----------------------------------
     INPUT FOR PCM SOLVATION CALCULATION 
     -----------------------------------
     IEF   =     -10
     ICOMP =       2     IFIELD=       0     ICAV  =       1
     IDISP =       1     IREP  =       0     IDP   =       0

     SOLVNT=WATER        EPS   = 78.3900     EPSINF=  1.7760
     VMOL  = 18.0700     TCE   =  0.00025700 STEN  = 71.8100
     DSTEN =  0.6500     CMF   =  1.2770     RSOLV =  1.3850

     NESFP =       0
     OMEGA = 40.0000     RET   =100.0000     FRO   =  0.7000

     TABS  =298.0000     IPRINT=       0

     --------------------------------
     INPUT FOR ITERATIVE C-PCM METHOD 
     --------------------------------
     IPCMIT  =         1     MXDIIS  =        50
     MXITR1  =       200     MXITR2  =       200
     THRES   = 0.100E-09     IMUL    =         3
     RCUT(1) =   20.0000     RCUT(2) =   50.0000

     IDIRCT  =         1
     IMGABI  =         0     RABI    =    4.0000
     IMGASC  =         0     RASC    =   20.0000
     THRSLS  = 0.500E-03     DENSLS  =    0.0100
     IEFPOL  =         1     REFPOL  =    0.0000

     INPUT FOR ISOTROPIC DIELECTRICS
     -------------------------------
     EPS=    78.39

          ----------------
          PROPERTIES INPUT
          ----------------

     MOMENTS            FIELD           POTENTIAL          DENSITY
 IEMOM =       1   IEFLD =       0   IEPOT =       0   IEDEN =       0
 WHERE =COMASS     WHERE =NUCLEI     WHERE =NUCLEI     WHERE =NUCLEI  
 OUTPUT=BOTH       OUTPUT=BOTH       OUTPUT=NONE       OUTPUT=BOTH    
 IEMINT=       0   IEFINT=       0                     IEDINT=       0
                                                       MORB  =       0
          EXTRAPOLATION IN EFFECT
          SOSCF IN EFFECT
 ORBITAL PRINTING OPTION: NPREO=     1 32767     2     1

     -------------------------------
     INTEGRAL TRANSFORMATION OPTIONS
     -------------------------------
     NWORD  =            0
     CUTOFF = 1.0E-10     MPTRAN =       0
     DIRTRF =       T     AOINTS =DUP     

          ----------------------
          INTEGRAL INPUT OPTIONS
          ----------------------
 NOPK  =       1 NORDER=       0 SCHWRZ=       T

 ..... DONE SETTING UP THE RUN .....
 CPU     0: STEP CPU TIME=     0.04 TOTAL CPU TIME=          0.0 (      0.0 MIN)
 TOTAL WALL CLOCK TIME=          0.1 SECONDS, CPU UTILIZATION IS    57.14%
 CPU     0: STEP CPU TIME=     0.00 TOTAL CPU TIME=          0.0 (      0.0 MIN)
 TOTAL WALL CLOCK TIME=          0.1 SECONDS, CPU UTILIZATION IS    57.14%

                    ----------------------
                    AO INTEGRAL TECHNOLOGY
                    ----------------------
     S,P,L SHELL ROTATED AXIS INTEGRALS, REPROGRAMMED BY
        KAZUYA ISHIMURA (IMS) AND JOSE SIERRA (SYNSTAR).
     S,P,D,L SHELL ROTATED AXIS INTEGRALS PROGRAMMED BY
        KAZUYA ISHIMURA (INSTITUTE FOR MOLECULAR SCIENCE).
     S,P,D,F,G SHELL TO TOTAL QUARTET ANGULAR MOMENTUM SUM 5,
        ERIC PROGRAM BY GRAHAM FLETCHER (ELORET AND NASA ADVANCED
        SUPERCOMPUTING DIVISION, AMES RESEARCH CENTER).
     S,P,D,F,G,L SHELL GENERAL RYS QUADRATURE PROGRAMMED BY
        MICHEL DUPUIS (PACIFIC NORTHWEST NATIONAL LABORATORY).
 Setting modorb=1 flag...
 Setting modorb=1 flag...

          -----------------------
          MP2 CONTROL INFORMATION
          -----------------------
          NACORE =        8  NBCORE =        8
          LMOMP2 =        F  AOINTS = DUP     
          METHOD =        2  NWORD  =               0
          MP2PRP =        F  OSPT   = NONE    
          CUTOFF = 1.00E-12  CPHFBS = BASISAO 
          CODE   = IMS     

          NUMBER OF CORE -A-  ORBITALS =     8
          NUMBER OF CORE -B-  ORBITALS =     8
          NUMBER OF OCC. -A-  ORBITALS =    18
          NUMBER OF OCC. -B-  ORBITALS =    18
          NUMBER OF MOLECULAR ORBITALS =    66
          NUMBER OF   BASIS  FUNCTIONS =    66

 CPU     0: STEP CPU TIME=     0.02 TOTAL CPU TIME=          0.1 (      0.0 MIN)
 TOTAL WALL CLOCK TIME=          0.1 SECONDS, CPU UTILIZATION IS    54.55%
 CPU     0: STEP CPU TIME=     0.00 TOTAL CPU TIME=          0.1 (      0.0 MIN)
 TOTAL WALL CLOCK TIME=          0.1 SECONDS, CPU UTILIZATION IS    54.55%

     INPUT FOR CAVITY DEFINITION 
     ---------------------------
   ATOM               COORDINATES                RADIUS       EPS
      1      7.1570      0.0450     11.6240      0.0100     78.3900
      2      6.6670     -0.0730     10.7890      1.5900     78.3900
      3      5.3570      0.4760     10.9930      1.7700     78.3900
      4      5.4520      1.5750     11.1350      0.0100     78.3900
      5      4.9210      0.0480     11.9230      0.0100     78.3900
      6      4.4010      0.2040      9.8290      1.7700     78.3900
      7      3.3940      0.6330     10.0320      0.0100     78.3900
      8      4.9070      0.8290      8.6130      1.5900     78.3900
      9      4.6420     -0.0220      7.5100      1.7700     78.3900
     10      4.0560      0.5790      6.7770      0.0100     78.3900
     11      5.8830     -0.4740      6.8770      1.6800     78.3900
     12      7.3530     -1.2240      5.4240      1.7700     78.3900
     13      8.0720     -0.8960      6.5680      1.6800     78.3900
     14      7.1570     -0.4480      7.3980      1.7700     78.3900
     15      7.3470     -0.0840      8.4110      0.0100     78.3900
     16      6.7730     -1.9420      3.2410      1.6800     78.3900
     17      5.5050     -1.6830      3.5780      1.7700     78.3900
     18      4.7620     -1.8840      2.7970      0.0100     78.3900
     19      5.0180     -1.1890      4.7210      1.6800     78.3900
     20      6.0040     -0.9770      5.6070      1.7700     78.3900
     21      7.7460     -1.7220      4.1610      1.7700     78.3900
     22      9.0250     -1.9820      3.8300      1.6800     78.3900
     23      9.7790     -1.8130      4.4740      0.0100     78.3900
     24      9.2550     -2.3780      2.9380      0.0100     78.3900
     25      3.7910     -1.1700      8.0100      1.7700     78.3900
     26      3.9660     -2.1140      7.4550      0.0100     78.3900
     27      2.4270     -0.8160      7.9250      1.5900     78.3900
     28      1.9260     -1.5490      8.3040      0.0100     78.3900
     29      4.2390     -1.2780      9.4620      1.7700     78.3900
     30      5.2520     -1.7390      9.5210      0.0100     78.3900
     31      3.2880     -1.9000     10.3550      1.5900     78.3900
     32      3.3760     -3.4450     10.6370      2.1000     78.3900
     33      4.7850     -3.8020     10.9130      1.5900     78.3900
     34      2.3820     -3.7880     11.6790      1.5900     78.3900
     35      2.9480     -4.0870      9.2650      1.5900     78.3900
     36      1.5780     -3.9860      8.8060      1.7700     78.3900
     37      1.2310     -2.9280      8.7730      0.0100     78.3900
     38      0.9000     -4.5290      9.5030      0.0100     78.3900
     39      1.4010     -4.6020      7.4110      1.7700     78.3900
     40      0.3470     -4.5210      7.0690      0.0100     78.3900
     41      2.2280     -3.9000      6.4380      1.5900     78.3900
     42      2.7550     -4.8440      5.5120      1.7700     78.3900
     43      2.4040     -4.4920      4.5120      0.0100     78.3900
     44      4.2460     -4.8850      5.5130      1.6800     78.3900
     45      4.9460     -4.5020      6.6340      1.7700     78.3900
     46      4.3460     -4.1730      7.4810      0.0100     78.3900
     47      6.2840     -4.4940      6.6560      1.7700     78.3900
     48      6.8510     -4.1540      7.5210      0.0100     78.3900
     49      4.9370     -5.3430      4.3950      1.7700     78.3900
     50      4.2980     -5.7370      3.4070      1.5900     78.3900
     51      6.2910     -5.3470      4.4000      1.6800     78.3900
     52      6.9670     -4.9120      5.4780      1.7700     78.3900
     53      8.2990     -4.8800      5.4420      1.6800     78.3900
     54      8.7780     -5.1910      4.6180      0.0100     78.3900
     55      8.8430     -4.5800      6.2240      0.0100     78.3900
     56      2.1150     -6.1900      5.8090      1.7700     78.3900
     57      2.7850     -7.0480      5.5890      0.0100     78.3900
     58      0.9110     -6.3180      5.0740      1.5900     78.3900
     59      0.4820     -7.1390      5.3620      0.0100     78.3900
     60      1.8370     -6.0680      7.3040      1.7700     78.3900
     61      2.7870     -6.1550      7.8780      0.0100     78.3900
     62      0.7910     -6.9260      7.8180      1.5900     78.3900
     63      1.1510     -8.4190      8.1730      2.1000     78.3900
     64      2.5530     -8.4730      8.6460      1.5900     78.3900
     65      0.1130     -8.9540      9.0810      1.5900     78.3900
     66      1.0430     -9.2070      6.8170      1.5900     78.3900
     67      1.6510    -10.5280      6.7050      1.7700     78.3900
     68      0.9750    -11.3080      7.1290      0.0100     78.3900
     69      2.6200    -10.5820      7.2610      0.0100     78.3900
     70      1.9650    -10.8870      5.2390      1.7700     78.3900
     71      1.0440    -11.1670      4.6880      0.0100     78.3900
     72      2.5140     -9.7140      4.5680      1.5900     78.3900
     73      3.6420    -10.0740      3.8000      1.7700     78.3900
     74      3.4650     -9.6390      2.7880      0.0100     78.3900
     75      4.9110     -9.5220      4.3520      1.6800     78.3900
     76      4.9550     -8.9960      5.6300      1.7700     78.3900
     77      4.0230     -9.0220      6.2030      0.0100     78.3900
     78      6.0830     -8.4720      6.1270      1.7700     78.3900
     79      6.1380     -8.0460      7.1270      0.0100     78.3900
     80      6.0600     -9.5150      3.5660      1.7700     78.3900
     81      6.0170     -9.9820      2.4180      1.5900     78.3900
     82      7.2070     -9.0040      4.0600      1.6800     78.3900
     83      7.2390     -8.4810      5.2960      1.7700     78.3900
     84      8.3810     -7.9780      5.7470      1.6800     78.3900
     85      9.2110     -8.0590      5.1880      0.0100     78.3900
     86      8.4650     -7.5580      6.6510      0.0100     78.3900
     87      3.6420    -11.5840      3.7000      1.7700     78.3900
     88      4.6620    -12.0070      3.5750      0.0100     78.3900
     89      2.8180    -11.9920      2.6220      1.5900     78.3900
     90      2.6830    -12.9430      2.7150      0.0100     78.3900
     91      3.0380    -11.9790      5.0430      1.7700     78.3900
     92      3.7880    -11.8420      5.8560      0.0100     78.3900
     93      2.4270    -13.2880      5.0650      1.5900     78.3900
     94      3.2650    -14.5510      5.5010      2.1000     78.3900
     95      3.7730    -14.3050      6.8650      1.5900     78.3900
     96      2.4220    -15.7530      5.3170      1.5900     78.3900
     97      4.4890    -14.6000      4.5160      1.5900     78.3900
     98      4.3540    -15.0470      3.1490      1.7700     78.3900
     99      3.6740    -14.3780      2.5790      0.0100     78.3900
    100      3.9320    -16.0770      3.1100      0.0100     78.3900
    101      5.7080    -15.0640      2.4260      1.7700     78.3900
    102      5.5930    -15.3720      1.3660      0.0100     78.3900
    103      6.2940    -13.7270      2.4200      1.5900     78.3900
    104      7.6940    -13.8210      2.6250      1.7700     78.3900
    105      8.1550    -13.3020      1.7530      0.0100     78.3900
    106      8.1290    -13.1580      3.8930      1.6800     78.3900
    107      7.2230    -12.8510      4.8810      1.7700     78.3900
    108      6.1980    -13.1540      4.6820      0.0100     78.3900
    109      9.4440    -12.7750      4.0140      1.7700     78.3900
    110     10.2580    -12.9450      3.1150      1.5900     78.3900
    111      9.7730    -12.1570      5.1920      1.6800     78.3900
    112     10.7430    -11.9050      5.3230      0.0100     78.3900
    113      8.9160    -11.8000      6.2080      1.7700     78.3900
    114      9.3440    -11.2000      7.1910      1.5900     78.3900
    115      7.5550    -12.1900      5.9990      1.7700     78.3900
    116      6.8190    -11.9490      6.7630      0.0100     78.3900
    117      8.0540    -15.3010      2.5740      1.7700     78.3900
    118      8.8880    -15.5540      3.2550      0.0100     78.3900
    119      8.3700    -15.6890      1.2430      1.5900     78.3900
    120      9.0540    -15.1030      0.8880      0.0100     78.3900
    121      6.7720    -15.9570      3.0670      1.7700     78.3900
    122      6.6720    -15.8330      4.1690      0.0100     78.3900
    123      6.5950    -17.3200      2.6350      1.5900     78.3900
    124      6.8350    -18.5270      3.6040      2.1000     78.3900
    125      5.8800    -18.4370      4.7330      1.5900     78.3900
    126      6.8030    -19.7790      2.8170      1.5900     78.3900
    127      8.2850    -18.3250      4.1770      1.5900     78.3900
    128      9.4600    -18.4720      3.3610      1.7700     78.3900
    129      9.3590    -17.8520      2.4450      0.0100     78.3900
    130      9.5810    -19.5350      3.0540      0.0100     78.3900
    131     10.7410    -18.0430      4.1060      1.7700     78.3900
    132     11.6460    -18.2210      3.4870      0.0100     78.3900
    133     10.7010    -16.6170      4.3940      1.5900     78.3900
    134     11.2390    -16.3620      5.6790      1.7700     78.3900
    135     12.0710    -15.6350      5.5190      0.0100     78.3900
    136     10.2120    -15.7670      6.5900      1.6800     78.3900
    137      8.8680    -15.9940      6.3870      1.7700     78.3900
    138      8.6250    -16.6020      5.5220      0.0100     78.3900
    139     10.6340    -14.9730      7.6320      1.7700     78.3900
    140     11.8240    -14.7480      7.8490      1.5900     78.3900
    141      9.6330    -14.4400      8.4030      1.6800     78.3900
    142      9.9280    -13.8570      9.1670      0.0100     78.3900
    143      8.2740    -14.6090      8.2440      1.7700     78.3900
    144      7.4880    -14.0380      8.9960      1.5900     78.3900
    145      7.9080    -15.4530      7.1490      1.7700     78.3900
    146      6.8520    -15.6160      6.9440      0.0100     78.3900
    147     11.8210    -17.6770      6.1900      1.7700     78.3900
    148     11.7210    -17.7790      7.2920      0.0100     78.3900
    149     13.1840    -17.7720      5.8210      1.5900     78.3900
    150     13.4860    -18.6670      6.0420      0.0100     78.3900
    151     10.9610    -18.7100      5.4580      1.7700     78.3900
    152      9.9540    -18.7630      5.9340      0.0100     78.3900
    153     11.5720    -20.0080      5.2570      1.5900     78.3900
    154     11.2290    -21.1700      6.2620      2.1000     78.3900
    155     12.3020    -21.2510      7.2750      1.5900     78.3900
    156      9.8570    -20.9840      6.7850      1.5900     78.3900
    157     11.2580    -22.4890      5.3970      1.5900     78.3900
    158     10.3950    -22.6690      4.2580      1.7700     78.3900
    159     10.1010    -21.7030      3.7850      0.0100     78.3900
    160      9.4660    -23.1930      4.5840      0.0100     78.3900
    161     11.0850    -23.5340      3.2060      1.7700     78.3900
    162     11.3900    -24.5170      3.6300      0.0100     78.3900
    163     10.1240    -23.7950      2.1490      1.5900     78.3900
    164     10.7680    -23.7090      0.8830      1.7700     78.3900
    165     10.5590    -24.6830      0.3760      0.0100     78.3900
    166     10.2350    -22.6040      0.0370      1.6800     78.3900
    167      9.4580    -21.6140      0.6000      1.7700     78.3900
    168      9.2580    -21.6980      1.6700      0.0100     78.3900
    169      8.9400    -20.6290     -0.1410      1.7700     78.3900
    170      8.2960    -19.8620      0.2880      0.0100     78.3900
    171     10.5280    -22.5600     -1.3270      1.7700     78.3900
    172     11.2450    -23.4430     -1.8240      1.5900     78.3900
    173     10.0150    -21.5670     -2.0890      1.6800     78.3900
    174      9.2170    -20.6360     -1.5380      1.7700     78.3900
    175      8.6640    -19.7130     -2.3190      1.6800     78.3900
    176      8.0840    -18.9880     -1.9520      0.0100     78.3900
    177      8.8850    -19.7040     -3.2930      0.0100     78.3900
    178     12.2570    -23.5910      1.1310      1.7700     78.3900
    179     12.7690    -22.9620      0.3690      0.0100     78.3900
    180     12.8540    -24.8760      1.1640      1.5900     78.3900
    181     13.7870    -24.7020      1.3570      0.0100     78.3900
    182     12.3030    -22.9030      2.5020      1.7700     78.3900
    183     12.0950    -21.8170      2.3980      0.0100     78.3900
    184     13.4730    -23.1150      3.3060      1.5900     78.3900
    185     14.9720    -23.0040      2.8800      2.1000     78.3900
    186     15.7150    -24.0610      3.5950      1.5900     78.3900
    187     15.0950    -23.1190      1.4140      1.5900     78.3900
    188     15.4960    -21.6270      3.4580      1.5900     78.3900
    189     15.3970    -20.3000      2.9260      1.7700     78.3900
    190     16.0640    -19.6360      3.5210      0.0100     78.3900
    191     14.3640    -19.9080      3.0550      0.0100     78.3900
    192     15.8450    -20.2200      1.4660      1.7700     78.3900
    193     16.7050    -20.9010      1.2870      0.0100     78.3900
    194     14.7380    -20.6690      0.6530      1.5900     78.3900
    195     14.6430    -19.9260     -0.5200      1.7700     78.3900
    196     14.6460    -20.6790     -1.3400      0.0100     78.3900
    197     13.3840    -19.1510     -0.5770      1.6800     78.3900
    198     12.6600    -18.9260      0.5700      1.7700     78.3900
    199     13.0790    -19.3120      1.5020      0.0100     78.3900
    200     11.5030    -18.2680      0.5340      1.7700     78.3900
    201     10.9390    -18.0560      1.4280      0.0100     78.3900
    202     12.8950    -18.7190     -1.8050      1.7700     78.3900
    203     13.5360    -18.9940     -2.8310      1.5900     78.3900
    204     11.7260    -18.0300     -1.8570      1.6800     78.3900
    205     11.0300    -17.8110     -0.7250      1.7700     78.3900
    206      9.8630    -17.1760     -0.7780      1.6800     78.3900
    207      9.3180    -16.9630      0.0370      0.0100     78.3900
    208      9.5390    -16.8350     -1.6640      0.0100     78.3900
    209     15.8980    -19.0910     -0.6090      1.7700     78.3900
    210     15.7230    -18.1480     -1.1470      0.0100     78.3900
    211     16.9280    -19.8260     -1.2530      1.5900     78.3900
    212     17.1090    -20.6180     -0.7230      0.0100     78.3900
    213     16.2100    -18.8560      0.8670      1.7700     78.3900
    214     15.4940    -18.1210      1.3000      0.0100     78.3900
    215     17.5940    -18.5400      1.1180      1.5900     78.3900
    216     17.9890    -17.1300      1.6880      2.1000     78.3900
    217     17.1690    -16.8960      2.8920      1.5900     78.3900
    218     19.4590    -17.0800      1.8600      1.5900     78.3900
    219     17.5380    -16.0850      0.5950      1.5900     78.3900
    220     18.2150    -15.9820     -0.6790      1.7700     78.3900
    221     18.4990    -16.9880     -1.0740      0.0100     78.3900
    222     19.1470    -15.3840     -0.5650      0.0100     78.3900
    223     17.3430    -15.3000     -1.7510      1.7700     78.3900
    224     17.8580    -15.3310     -2.7350      0.0100     78.3900
    225     16.0890    -16.0300     -1.9000      1.5900     78.3900
    226     15.0160    -15.1250     -2.0890      1.7700     78.3900
    227     14.4990    -15.4540     -3.0190      0.0100     78.3900
    228     14.0290    -15.1210     -0.9630      1.6800     78.3900
    229     14.3310    -15.7320      0.2320      1.7700     78.3900
    230     15.3110    -16.2000      0.2920      0.0100     78.3900
    231     13.4540    -15.7730      1.2400      1.7700     78.3900
    232     13.6600    -16.2830      2.1800      0.0100     78.3900
    233     12.7910    -14.4960     -1.1240      1.7700     78.3900
    234     12.5200    -13.9630     -2.2100      1.5900     78.3900
    235     11.9100    -14.4920     -0.0980      1.6800     78.3900
    236     12.2030    -15.1330      1.0410      1.7700     78.3900
    237     11.2860    -15.1940      1.9880      1.6800     78.3900
    238     10.6640    -14.4120      2.0410      0.0100     78.3900
    239     11.4010    -15.7140      2.8380      0.0100     78.3900
    240     15.6280    -13.7650     -2.3160      1.7700     78.3900
    241     14.9400    -12.9850     -1.9500      0.0100     78.3900
    242     15.8890    -13.5420     -3.6900      1.5900     78.3900
    243     16.4430    -12.7480     -3.7550      0.0100     78.3900
    244     16.9160    -13.8410     -1.4990      1.7700     78.3900
    245     16.6850    -13.7500     -0.4120      0.0100     78.3900
    246     17.9300    -12.9140     -1.9570      1.5900     78.3900
    247     18.7170    -11.9810     -0.9630      2.1000     78.3900
    248     19.4270    -12.8040      0.0390      1.5900     78.3900
    249     19.5750    -11.0600     -1.7450      1.5900     78.3900
    250     17.6540    -11.1010     -0.1970      1.5900     78.3900
    251     16.9220    -10.0380     -0.8560      1.7700     78.3900
    252     17.4820     -9.5940     -1.7100      0.0100     78.3900
    253     16.7650     -9.2100     -0.1270      0.0100     78.3900
    254     15.5460    -10.4870     -1.3580      1.7700     78.3900
    255     15.6670    -11.1320     -2.2470      0.0100     78.3900
    256     14.8730    -11.2670     -0.3280      1.5900     78.3900
    257     13.4900    -10.9870     -0.3580      1.7700     78.3900
    258     12.9500    -11.9540     -0.4600      0.0100     78.3900
    259     13.0830    -10.3370      0.8840      1.6800     78.3900
    260     11.8040    -10.1620      1.3350      1.7700     78.3900
    261      8.3870    -10.6030      0.9740      1.6800     78.3900
    262      8.3130    -11.0610      0.0890      0.0100     78.3900
    263      7.5490    -10.3950      1.4850      0.0100     78.3900
    264     10.6780    -10.5460      0.7050      1.6800     78.3900
    265      9.5890    -10.2850      1.4200      1.7700     78.3900
    266      9.6260     -9.6810      2.6490      1.6800     78.3900
    267      8.7530     -9.5190      3.1250      0.0100     78.3900
    268     10.7710     -9.2600      3.3120      1.7700     78.3900
    269     10.7260     -8.7220      4.4220      1.5900     78.3900
    270     11.9370     -9.5380      2.5610      1.7700     78.3900
    271     13.2710     -9.3090      2.8680      1.6800     78.3900
    272     13.9200     -9.8000      1.8420      1.7700     78.3900
    273     15.0070     -9.8170      1.7260      0.0100     78.3900
    274     13.2240    -10.1320     -1.5760      1.7700     78.3900
    275     12.3760     -9.4360     -1.4250      0.0100     78.3900
    276     12.9600    -10.9440     -2.6990      1.5900     78.3900
    277     12.8060    -10.3480     -3.4390      0.0100     78.3900
    278     14.5470     -9.3890     -1.7370      1.7700     78.3900
    279     14.6510     -8.5870     -0.9690      0.0100     78.3900
    280     14.8170     -8.9320     -3.0850      1.5900     78.3900
    281     14.3340     -7.4940     -3.5130      2.1000     78.3900
    282     14.7260     -6.5680     -2.4340      1.5900     78.3900
    283     14.8340     -7.2140     -4.8800      1.5900     78.3900
    284     12.7650     -7.5880     -3.5370      1.5900     78.3900
    285     12.0560     -8.2650     -4.5960      1.7700     78.3900
    286     12.3930     -9.3240     -4.6980      0.0100     78.3900
    287     12.2390     -7.7670     -5.5760      0.0100     78.3900
    288     10.5440     -8.2620     -4.3390      1.7700     78.3900
    289     10.0090     -8.8220     -5.1390      0.0100     78.3900
    290     10.2550     -8.9180     -3.0710      1.5900     78.3900
    291      9.1820     -8.2430     -2.4290      1.7700     78.3900
    292      8.3970     -9.0080     -2.2230      0.0100     78.3900
    293      9.6060     -7.6350     -1.1550      1.6800     78.3900
    294      8.7840     -7.2300     -0.1370      1.7700     78.3900
    295      5.6050     -6.8160      1.1710      1.6800     78.3900
    296      5.0220     -7.1760      0.4470      0.0100     78.3900
    297      5.1880     -6.4510      2.0080      0.0100     78.3900
    298      7.4430     -7.2960     -0.1340      1.6800     78.3900
    299      6.9130     -6.8500      1.0010      1.7700     78.3900
    300      7.6650     -6.3780      2.0430      1.6800     78.3900
    301      7.1820     -6.0640      2.8710      0.0100     78.3900
    302      9.0500     -6.3050      2.0760      1.7700     78.3900
    303      9.6420     -5.8760      3.0700      1.5900     78.3900
    304      9.6220     -6.7620      0.8570      1.7700     78.3900
    305     10.9510     -6.8430      0.4600      1.6800     78.3900
    306     10.8920     -7.3610     -0.7440      1.7700     78.3900
    307     11.7470     -7.5670     -1.3880      0.0100     78.3900
    308      8.6460     -7.2170     -3.4040      1.7700     78.3900
    309      8.2270     -6.3290     -2.8940      0.0100     78.3900
    310      7.6500     -7.8030     -4.2180      1.5900     78.3900
    311      7.3810     -7.1380     -4.8640      0.0100     78.3900
    312      9.8970     -6.8760     -4.2110      1.7700     78.3900
    313     10.5960     -6.2600     -3.5970      0.0100     78.3900
    314      9.6490     -6.3250     -5.5300      1.5900     78.3900
    315      9.6720     -4.7580     -5.7050      2.1000     78.3900
    316     10.8230     -4.2010     -4.9620      1.5900     78.3900
    317      9.6180     -4.4390     -7.1480      1.5900     78.3900
    318      8.3350     -4.2950     -5.0190      1.5900     78.3900
    319      7.0510     -4.6700     -5.5700      1.7700     78.3900
    320      6.9560     -5.7730     -5.6770      0.0100     78.3900
    321      6.9120     -4.2260     -6.5810      0.0100     78.3900
    322      5.8970     -4.1740     -4.6890      1.7700     78.3900
    323      4.9160     -4.3940     -5.1610      0.0100     78.3900
    324      5.9220     -4.8550     -3.3990      1.5900     78.3900
    325      5.5750     -3.9270     -2.3760      1.7700     78.3900
    326      4.7030     -4.3790     -1.8470      0.0100     78.3900
    327      6.6940     -3.7130     -1.4130      1.6800     78.3900
    328      7.9950     -3.9870     -1.7710      1.7700     78.3900
    329      8.1290     -4.3610     -2.7820      0.0100     78.3900
    330      6.4020     -3.2240     -0.1600      1.7700     78.3900
    331      5.2590     -2.9330      0.1890      1.5900     78.3900
    332      7.4800     -3.0840      0.6730      1.6800     78.3900
    333      7.2720     -2.6960      1.5870      0.0100     78.3900
    334      8.8040     -3.3420      0.3830      1.7700     78.3900
    335      9.6690     -3.1430      1.2320      1.5900     78.3900
    336      9.0320     -3.8450     -0.9370      1.7700     78.3900
    337     10.0450     -4.1030     -1.2370      0.0100     78.3900
    338      5.1310     -2.6400     -3.0580      1.7700     78.3900
    339      5.3860     -1.7420     -2.4560      0.0100     78.3900
    340      3.7330     -2.6820     -3.3040      1.5900     78.3900
    341      3.4890     -1.9300     -3.8700      0.0100     78.3900
    342      5.9440     -2.6820     -4.3430      1.7700     78.3900
    343      7.0010     -2.3990     -4.1380      0.0100     78.3900
    344      5.4050     -1.8930     -5.4180      1.5900     78.3900
    345      5.4340     -0.9470     -5.1830      0.0100     78.3900

     ----------------------------
     INPUT FOR TESSERA DEFINITION
     ----------------------------
     NTSALL  =        60     MTHALL  =         4
     MTHAUT  =         0     AUTFRE  =    2.0000
     NTSFRZ  =        60     KEEPSM  =         0
     AREAKP  =   10.0000     BONDRY  =    1.0000
     AREATL  =    0.0100

     SPHERE     INITS       METHOD
          1        60       FIXPVA
          2        60       FIXPVA
          3        60       FIXPVA
          4        60       FIXPVA
          5        60       FIXPVA
          6        60       FIXPVA
          7        60       FIXPVA
          8        60       FIXPVA
          9        60       FIXPVA
         10        60       FIXPVA
         11        60       FIXPVA
         12        60       FIXPVA
         13        60       FIXPVA
         14        60       FIXPVA
         15        60       FIXPVA
         16        60       FIXPVA
         17        60       FIXPVA
         18        60       FIXPVA
         19        60       FIXPVA
         20        60       FIXPVA
         21        60       FIXPVA
         22        60       FIXPVA
         23        60       FIXPVA
         24        60       FIXPVA
         25        60       FIXPVA
         26        60       FIXPVA
         27        60       FIXPVA
         28        60       FIXPVA
         29        60       FIXPVA
         30        60       FIXPVA
         31        60       FIXPVA
         32        60       FIXPVA
         33        60       FIXPVA
         34        60       FIXPVA
         35        60       FIXPVA
         36        60       FIXPVA
         37        60       FIXPVA
         38        60       FIXPVA
         39        60       FIXPVA
         40        60       FIXPVA
         41        60       FIXPVA
         42        60       FIXPVA
         43        60       FIXPVA
         44        60       FIXPVA
         45        60       FIXPVA
         46        60       FIXPVA
         47        60       FIXPVA
         48        60       FIXPVA
         49        60       FIXPVA
         50        60       FIXPVA
         51        60       FIXPVA
         52        60       FIXPVA
         53        60       FIXPVA
         54        60       FIXPVA
         55        60       FIXPVA
         56        60       FIXPVA
         57        60       FIXPVA
         58        60       FIXPVA
         59        60       FIXPVA
         60        60       FIXPVA
         61        60       FIXPVA
         62        60       FIXPVA
         63        60       FIXPVA
         64        60       FIXPVA
         65        60       FIXPVA
         66        60       FIXPVA
         67        60       FIXPVA
         68        60       FIXPVA
         69        60       FIXPVA
         70        60       FIXPVA
         71        60       FIXPVA
         72        60       FIXPVA
         73        60       FIXPVA
         74        60       FIXPVA
         75        60       FIXPVA
         76        60       FIXPVA
         77        60       FIXPVA
         78        60       FIXPVA
         79        60       FIXPVA
         80        60       FIXPVA
         81        60       FIXPVA
         82        60       FIXPVA
         83        60       FIXPVA
         84        60       FIXPVA
         85        60       FIXPVA
         86        60       FIXPVA
         87        60       FIXPVA
         88        60       FIXPVA
         89        60       FIXPVA
         90        60       FIXPVA
         91        60       FIXPVA
         92        60       FIXPVA
         93        60       FIXPVA
         94        60       FIXPVA
         95        60       FIXPVA
         96        60       FIXPVA
         97        60       FIXPVA
         98        60       FIXPVA
         99        60       FIXPVA
        100        60       FIXPVA
        101        60       FIXPVA
        102        60       FIXPVA
        103        60       FIXPVA
        104        60       FIXPVA
        105        60       FIXPVA
        106        60       FIXPVA
        107        60       FIXPVA
        108        60       FIXPVA
        109        60       FIXPVA
        110        60       FIXPVA
        111        60       FIXPVA
        112        60       FIXPVA
        113        60       FIXPVA
        114        60       FIXPVA
        115        60       FIXPVA
        116        60       FIXPVA
        117        60       FIXPVA
        118        60       FIXPVA
        119        60       FIXPVA
        120        60       FIXPVA
        121        60       FIXPVA
        122        60       FIXPVA
        123        60       FIXPVA
        124        60       FIXPVA
        125        60       FIXPVA
        126        60       FIXPVA
        127        60       FIXPVA
        128        60       FIXPVA
        129        60       FIXPVA
        130        60       FIXPVA
        131        60       FIXPVA
        132        60       FIXPVA
        133        60       FIXPVA
        134        60       FIXPVA
        135        60       FIXPVA
        136        60       FIXPVA
        137        60       FIXPVA
        138        60       FIXPVA
        139        60       FIXPVA
        140        60       FIXPVA
        141        60       FIXPVA
        142        60       FIXPVA
        143        60       FIXPVA
        144        60       FIXPVA
        145        60       FIXPVA
        146        60       FIXPVA
        147        60       FIXPVA
        148        60       FIXPVA
        149        60       FIXPVA
        150        60       FIXPVA
        151        60       FIXPVA
        152        60       FIXPVA
        153        60       FIXPVA
        154        60       FIXPVA
        155        60       FIXPVA
        156        60       FIXPVA
        157        60       FIXPVA
        158        60       FIXPVA
        159        60       FIXPVA
        160        60       FIXPVA
        161        60       FIXPVA
        162        60       FIXPVA
        163        60       FIXPVA
        164        60       FIXPVA
        165        60       FIXPVA
        166        60       FIXPVA
        167        60       FIXPVA
        168        60       FIXPVA
        169        60       FIXPVA
        170        60       FIXPVA
        171        60       FIXPVA
        172        60       FIXPVA
        173        60       FIXPVA
        174        60       FIXPVA
        175        60       FIXPVA
        176        60       FIXPVA
        177        60       FIXPVA
        178        60       FIXPVA
        179        60       FIXPVA
        180        60       FIXPVA
        181        60       FIXPVA
        182        60       FIXPVA
        183        60       FIXPVA
        184        60       FIXPVA
        185        60       FIXPVA
        186        60       FIXPVA
        187        60       FIXPVA
        188        60       FIXPVA
        189        60       FIXPVA
        190        60       FIXPVA
        191        60       FIXPVA
        192        60       FIXPVA
        193        60       FIXPVA
        194        60       FIXPVA
        195        60       FIXPVA
        196        60       FIXPVA
        197        60       FIXPVA
        198        60       FIXPVA
        199        60       FIXPVA
        200        60       FIXPVA
        201        60       FIXPVA
        202        60       FIXPVA
        203        60       FIXPVA
        204        60       FIXPVA
        205        60       FIXPVA
        206        60       FIXPVA
        207        60       FIXPVA
        208        60       FIXPVA
        209        60       FIXPVA
        210        60       FIXPVA
        211        60       FIXPVA
        212        60       FIXPVA
        213        60       FIXPVA
        214        60       FIXPVA
        215        60       FIXPVA
        216        60       FIXPVA
        217        60       FIXPVA
        218        60       FIXPVA
        219        60       FIXPVA
        220        60       FIXPVA
        221        60       FIXPVA
        222        60       FIXPVA
        223        60       FIXPVA
        224        60       FIXPVA
        225        60       FIXPVA
        226        60       FIXPVA
        227        60       FIXPVA
        228        60       FIXPVA
        229        60       FIXPVA
        230        60       FIXPVA
        231        60       FIXPVA
        232        60       FIXPVA
        233        60       FIXPVA
        234        60       FIXPVA
        235        60       FIXPVA
        236        60       FIXPVA
        237        60       FIXPVA
        238        60       FIXPVA
        239        60       FIXPVA
        240        60       FIXPVA
        241        60       FIXPVA
        242        60       FIXPVA
        243        60       FIXPVA
        244        60       FIXPVA
        245        60       FIXPVA
        246        60       FIXPVA
        247        60       FIXPVA
        248        60       FIXPVA
        249        60       FIXPVA
        250        60       FIXPVA
        251        60       FIXPVA
        252        60       FIXPVA
        253        60       FIXPVA
        254        60       FIXPVA
        255        60       FIXPVA
        256        60       FIXPVA
        257        60       FIXPVA
        258        60       FIXPVA
        259        60       FIXPVA
        260        60       FIXPVA
        261        60       FIXPVA
        262        60       FIXPVA
        263        60       FIXPVA
        264        60       FIXPVA
        265        60       FIXPVA
        266        60       FIXPVA
        267        60       FIXPVA
        268        60       FIXPVA
        269        60       FIXPVA
        270        60       FIXPVA
        271        60       FIXPVA
        272        60       FIXPVA
        273        60       FIXPVA
        274        60       FIXPVA
        275        60       FIXPVA
        276        60       FIXPVA
        277        60       FIXPVA
        278        60       FIXPVA
        279        60       FIXPVA
        280        60       FIXPVA
        281        60       FIXPVA
        282        60       FIXPVA
        283        60       FIXPVA
        284        60       FIXPVA
        285        60       FIXPVA
        286        60       FIXPVA
        287        60       FIXPVA
        288        60       FIXPVA
        289        60       FIXPVA
        290        60       FIXPVA
        291        60       FIXPVA
        292        60       FIXPVA
        293        60       FIXPVA
        294        60       FIXPVA
        295        60       FIXPVA
        296        60       FIXPVA
        297        60       FIXPVA
        298        60       FIXPVA
        299        60       FIXPVA
        300        60       FIXPVA
        301        60       FIXPVA
        302        60       FIXPVA
        303        60       FIXPVA
        304        60       FIXPVA
        305        60       FIXPVA
        306        60       FIXPVA
        307        60       FIXPVA
        308        60       FIXPVA
        309        60       FIXPVA
        310        60       FIXPVA
        311        60       FIXPVA
        312        60       FIXPVA
        313        60       FIXPVA
        314        60       FIXPVA
        315        60       FIXPVA
        316        60       FIXPVA
        317        60       FIXPVA
        318        60       FIXPVA
        319        60       FIXPVA
        320        60       FIXPVA
        321        60       FIXPVA
        322        60       FIXPVA
        323        60       FIXPVA
        324        60       FIXPVA
        325        60       FIXPVA
        326        60       FIXPVA
        327        60       FIXPVA
        328        60       FIXPVA
        329        60       FIXPVA
        330        60       FIXPVA
        331        60       FIXPVA
        332        60       FIXPVA
        333        60       FIXPVA
        334        60       FIXPVA
        335        60       FIXPVA
        336        60       FIXPVA
        337        60       FIXPVA
        338        60       FIXPVA
        339        60       FIXPVA
        340        60       FIXPVA
        341        60       FIXPVA
        342        60       FIXPVA
        343        60       FIXPVA
        344        60       FIXPVA
        345        60       FIXPVA

     ------------------------------
      FIXPVA TESSELLATION FOR PCM
         PEIFENG SU AND HUI LI
     UNIVERSITY OF NEBRASKA-LINCOLN
     ------------------------------


 PCM DIMENSIONS: MXSP=   345, MXTS=     13800, MEMORY=        141798

     INPUT FOR CAVITY DEFINITION 
     ---------------------------
   ATOM               COORDINATES                RADIUS       EPS
      1      7.1570      0.0450     11.6240      0.0100     78.3900
      2      6.6670     -0.0730     10.7890      1.5900     78.3900
      3      5.3570      0.4760     10.9930      1.7700     78.3900
      4      5.4520      1.5750     11.1350      0.0100     78.3900
      5      4.9210      0.0480     11.9230      0.0100     78.3900
      6      4.4010      0.2040      9.8290      1.7700     78.3900
      7      3.3940      0.6330     10.0320      0.0100     78.3900
      8      4.9070      0.8290      8.6130      1.5900     78.3900
      9      4.6420     -0.0220      7.5100      1.7700     78.3900
     10      4.0560      0.5790      6.7770      0.0100     78.3900
     11      5.8830     -0.4740      6.8770      1.6800     78.3900
     12      7.3530     -1.2240      5.4240      1.7700     78.3900
     13      8.0720     -0.8960      6.5680      1.6800     78.3900
     14      7.1570     -0.4480      7.3980      1.7700     78.3900
     15      7.3470     -0.0840      8.4110      0.0100     78.3900
     16      6.7730     -1.9420      3.2410      1.6800     78.3900
     17      5.5050     -1.6830      3.5780      1.7700     78.3900
     18      4.7620     -1.8840      2.7970      0.0100     78.3900
     19      5.0180     -1.1890      4.7210      1.6800     78.3900
     20      6.0040     -0.9770      5.6070      1.7700     78.3900
     21      7.7460     -1.7220      4.1610      1.7700     78.3900
     22      9.0250     -1.9820      3.8300      1.6800     78.3900
     23      9.7790     -1.8130      4.4740      0.0100     78.3900
     24      9.2550     -2.3780      2.9380      0.0100     78.3900
     25      3.7910     -1.1700      8.0100      1.7700     78.3900
     26      3.9660     -2.1140      7.4550      0.0100     78.3900
     27      2.4270     -0.8160      7.9250      1.5900     78.3900
     28      1.9260     -1.5490      8.3040      0.0100     78.3900
     29      4.2390     -1.2780      9.4620      1.7700     78.3900
     30      5.2520     -1.7390      9.5210      0.0100     78.3900
     31      3.2880     -1.9000     10.3550      1.5900     78.3900
     32      3.3760     -3.4450     10.6370      2.1000     78.3900
     33      4.7850     -3.8020     10.9130      1.5900     78.3900
     34      2.3820     -3.7880     11.6790      1.5900     78.3900
     35      2.9480     -4.0870      9.2650      1.5900     78.3900
     36      1.5780     -3.9860      8.8060      1.7700     78.3900
     37      1.2310     -2.9280      8.7730      0.0100     78.3900
     38      0.9000     -4.5290      9.5030      0.0100     78.3900
     39      1.4010     -4.6020      7.4110      1.7700     78.3900
     40      0.3470     -4.5210      7.0690      0.0100     78.3900
     41      2.2280     -3.9000      6.4380      1.5900     78.3900
     42      2.7550     -4.8440      5.5120      1.7700     78.3900
     43      2.4040     -4.4920      4.5120      0.0100     78.3900
     44      4.2460     -4.8850      5.5130      1.6800     78.3900
     45      4.9460     -4.5020      6.6340      1.7700     78.3900
     46      4.3460     -4.1730      7.4810      0.0100     78.3900
     47      6.2840     -4.4940      6.6560      1.7700     78.3900
     48      6.8510     -4.1540      7.5210      0.0100     78.3900
     49      4.9370     -5.3430      4.3950      1.7700     78.3900
     50      4.2980     -5.7370      3.4070      1.5900     78.3900
     51      6.2910     -5.3470      4.4000      1.6800     78.3900
     52      6.9670     -4.9120      5.4780      1.7700     78.3900
     53      8.2990     -4.8800      5.4420      1.6800     78.3900
     54      8.7780     -5.1910      4.6180      0.0100     78.3900
     55      8.8430     -4.5800      6.2240      0.0100     78.3900
     56      2.1150     -6.1900      5.8090      1.7700     78.3900
     57      2.7850     -7.0480      5.5890      0.0100     78.3900
     58      0.9110     -6.3180      5.0740      1.5900     78.3900
     59      0.4820     -7.1390      5.3620      0.0100     78.3900
     60      1.8370     -6.0680      7.3040      1.7700     78.3900
     61      2.7870     -6.1550      7.8780      0.0100     78.3900
     62      0.7910     -6.9260      7.8180      1.5900     78.3900
     63      1.1510     -8.4190      8.1730      2.1000     78.3900
     64      2.5530     -8.4730      8.6460      1.5900     78.3900
     65      0.1130     -8.9540      9.0810      1.5900     78.3900
     66      1.0430     -9.2070      6.8170      1.5900     78.3900
     67      1.6510    -10.5280      6.7050      1.7700     78.3900
     68      0.9750    -11.3080      7.1290      0.0100     78.3900
     69      2.6200    -10.5820      7.2610      0.0100     78.3900
     70      1.9650    -10.8870      5.2390      1.7700     78.3900
     71      1.0440    -11.1670      4.6880      0.0100     78.3900
     72      2.5140     -9.7140      4.5680      1.5900     78.3900
     73      3.6420    -10.0740      3.8000      1.7700     78.3900
     74      3.4650     -9.6390      2.7880      0.0100     78.3900
     75      4.9110     -9.5220      4.3520      1.6800     78.3900
     76      4.9550     -8.9960      5.6300      1.7700     78.3900
     77      4.0230     -9.0220      6.2030      0.0100     78.3900
     78      6.0830     -8.4720      6.1270      1.7700     78.3900
     79      6.1380     -8.0460      7.1270      0.0100     78.3900
     80      6.0600     -9.5150      3.5660      1.7700     78.3900
     81      6.0170     -9.9820      2.4180      1.5900     78.3900
     82      7.2070     -9.0040      4.0600      1.6800     78.3900
     83      7.2390     -8.4810      5.2960      1.7700     78.3900
     84      8.3810     -7.9780      5.7470      1.6800     78.3900
     85      9.2110     -8.0590      5.1880      0.0100     78.3900
     86      8.4650     -7.5580      6.6510      0.0100     78.3900
     87      3.6420    -11.5840      3.7000      1.7700     78.3900
     88      4.6620    -12.0070      3.5750      0.0100     78.3900
     89      2.8180    -11.9920      2.6220      1.5900     78.3900
     90      2.6830    -12.9430      2.7150      0.0100     78.3900
     91      3.0380    -11.9790      5.0430      1.7700     78.3900
     92      3.7880    -11.8420      5.8560      0.0100     78.3900
     93      2.4270    -13.2880      5.0650      1.5900     78.3900
     94      3.2650    -14.5510      5.5010      2.1000     78.3900
     95      3.7730    -14.3050      6.8650      1.5900     78.3900
     96      2.4220    -15.7530      5.3170      1.5900     78.3900
     97      4.4890    -14.6000      4.5160      1.5900     78.3900
     98      4.3540    -15.0470      3.1490      1.7700     78.3900
     99      3.6740    -14.3780      2.5790      0.0100     78.3900
    100      3.9320    -16.0770      3.1100      0.0100     78.3900
    101      5.7080    -15.0640      2.4260      1.7700     78.3900
    102      5.5930    -15.3720      1.3660      0.0100     78.3900
    103      6.2940    -13.7270      2.4200      1.5900     78.3900
    104      7.6940    -13.8210      2.6250      1.7700     78.3900
    105      8.1550    -13.3020      1.7530      0.0100     78.3900
    106      8.1290    -13.1580      3.8930      1.6800     78.3900
    107      7.2230    -12.8510      4.8810      1.7700     78.3900
    108      6.1980    -13.1540      4.6820      0.0100     78.3900
    109      9.4440    -12.7750      4.0140      1.7700     78.3900
    110     10.2580    -12.9450      3.1150      1.5900     78.3900
    111      9.7730    -12.1570      5.1920      1.6800     78.3900
    112     10.7430    -11.9050      5.3230      0.0100     78.3900
    113      8.9160    -11.8000      6.2080      1.7700     78.3900
    114      9.3440    -11.2000      7.1910      1.5900     78.3900
    115      7.5550    -12.1900      5.9990      1.7700     78.3900
    116      6.8190    -11.9490      6.7630      0.0100     78.3900
    117      8.0540    -15.3010      2.5740      1.7700     78.3900
    118      8.8880    -15.5540      3.2550      0.0100     78.3900
    119      8.3700    -15.6890      1.2430      1.5900     78.3900
    120      9.0540    -15.1030      0.8880      0.0100     78.3900
    121      6.7720    -15.9570      3.0670      1.7700     78.3900
    122      6.6720    -15.8330      4.1690      0.0100     78.3900
    123      6.5950    -17.3200      2.6350      1.5900     78.3900
    124      6.8350    -18.5270      3.6040      2.1000     78.3900
    125      5.8800    -18.4370      4.7330      1.5900     78.3900
    126      6.8030    -19.7790      2.8170      1.5900     78.3900
    127      8.2850    -18.3250      4.1770      1.5900     78.3900
    128      9.4600    -18.4720      3.3610      1.7700     78.3900
    129      9.3590    -17.8520      2.4450      0.0100     78.3900
    130      9.5810    -19.5350      3.0540      0.0100     78.3900
    131     10.7410    -18.0430      4.1060      1.7700     78.3900
    132     11.6460    -18.2210      3.4870      0.0100     78.3900
    133     10.7010    -16.6170      4.3940      1.5900     78.3900
    134     11.2390    -16.3620      5.6790      1.7700     78.3900
    135     12.0710    -15.6350      5.5190      0.0100     78.3900
    136     10.2120    -15.7670      6.5900      1.6800     78.3900
    137      8.8680    -15.9940      6.3870      1.7700     78.3900
    138      8.6250    -16.6020      5.5220      0.0100     78.3900
    139     10.6340    -14.9730      7.6320      1.7700     78.3900
    140     11.8240    -14.7480      7.8490      1.5900     78.3900
    141      9.6330    -14.4400      8.4030      1.6800     78.3900
    142      9.9280    -13.8570      9.1670      0.0100     78.3900
    143      8.2740    -14.6090      8.2440      1.7700     78.3900
    144      7.4880    -14.0380      8.9960      1.5900     78.3900
    145      7.9080    -15.4530      7.1490      1.7700     78.3900
    146      6.8520    -15.6160      6.9440      0.0100     78.3900
    147     11.8210    -17.6770      6.1900      1.7700     78.3900
    148     11.7210    -17.7790      7.2920      0.0100     78.3900
    149     13.1840    -17.7720      5.8210      1.5900     78.3900
    150     13.4860    -18.6670      6.0420      0.0100     78.3900
    151     10.9610    -18.7100      5.4580      1.7700     78.3900
    152      9.9540    -18.7630      5.9340      0.0100     78.3900
    153     11.5720    -20.0080      5.2570      1.5900     78.3900
    154     11.2290    -21.1700      6.2620      2.1000     78.3900
    155     12.3020    -21.2510      7.2750      1.5900     78.3900
    156      9.8570    -20.9840      6.7850      1.5900     78.3900
    157     11.2580    -22.4890      5.3970      1.5900     78.3900
    158     10.3950    -22.6690      4.2580      1.7700     78.3900
    159     10.1010    -21.7030      3.7850      0.0100     78.3900
    160      9.4660    -23.1930      4.5840      0.0100     78.3900
    161     11.0850    -23.5340      3.2060      1.7700     78.3900
    162     11.3900    -24.5170      3.6300      0.0100     78.3900
    163     10.1240    -23.7950      2.1490      1.5900     78.3900
    164     10.7680    -23.7090      0.8830      1.7700     78.3900
    165     10.5590    -24.6830      0.3760      0.0100     78.3900
    166     10.2350    -22.6040      0.0370      1.6800     78.3900
    167      9.4580    -21.6140      0.6000      1.7700     78.3900
    168      9.2580    -21.6980      1.6700      0.0100     78.3900
    169      8.9400    -20.6290     -0.1410      1.7700     78.3900
    170      8.2960    -19.8620      0.2880      0.0100     78.3900
    171     10.5280    -22.5600     -1.3270      1.7700     78.3900
    172     11.2450    -23.4430     -1.8240      1.5900     78.3900
    173     10.0150    -21.5670     -2.0890      1.6800     78.3900
    174      9.2170    -20.6360     -1.5380      1.7700     78.3900
    175      8.6640    -19.7130     -2.3190      1.6800     78.3900
    176      8.0840    -18.9880     -1.9520      0.0100     78.3900
    177      8.8850    -19.7040     -3.2930      0.0100     78.3900
    178     12.2570    -23.5910      1.1310      1.7700     78.3900
    179     12.7690    -22.9620      0.3690      0.0100     78.3900
    180     12.8540    -24.8760      1.1640      1.5900     78.3900
    181     13.7870    -24.7020      1.3570      0.0100     78.3900
    182     12.3030    -22.9030      2.5020      1.7700     78.3900
    183     12.0950    -21.8170      2.3980      0.0100     78.3900
    184     13.4730    -23.1150      3.3060      1.5900     78.3900
    185     14.9720    -23.0040      2.8800      2.1000     78.3900
    186     15.7150    -24.0610      3.5950      1.5900     78.3900
    187     15.0950    -23.1190      1.4140      1.5900     78.3900
    188     15.4960    -21.6270      3.4580      1.5900     78.3900
    189     15.3970    -20.3000      2.9260      1.7700     78.3900
    190     16.0640    -19.6360      3.5210      0.0100     78.3900
    191     14.3640    -19.9080      3.0550      0.0100     78.3900
    192     15.8450    -20.2200      1.4660      1.7700     78.3900
    193     16.7050    -20.9010      1.2870      0.0100     78.3900
    194     14.7380    -20.6690      0.6530      1.5900     78.3900
    195     14.6430    -19.9260     -0.5200      1.7700     78.3900
    196     14.6460    -20.6790     -1.3400      0.0100     78.3900
    197     13.3840    -19.1510     -0.5770      1.6800     78.3900
    198     12.6600    -18.9260      0.5700      1.7700     78.3900
    199     13.0790    -19.3120      1.5020      0.0100     78.3900
    200     11.5030    -18.2680      0.5340      1.7700     78.3900
    201     10.9390    -18.0560      1.4280      0.0100     78.3900
    202     12.8950    -18.7190     -1.8050      1.7700     78.3900
    203     13.5360    -18.9940     -2.8310      1.5900     78.3900
    204     11.7260    -18.0300     -1.8570      1.6800     78.3900
    205     11.0300    -17.8110     -0.7250      1.7700     78.3900
    206      9.8630    -17.1760     -0.7780      1.6800     78.3900
    207      9.3180    -16.9630      0.0370      0.0100     78.3900
    208      9.5390    -16.8350     -1.6640      0.0100     78.3900
    209     15.8980    -19.0910     -0.6090      1.7700     78.3900
    210     15.7230    -18.1480     -1.1470      0.0100     78.3900
    211     16.9280    -19.8260     -1.2530      1.5900     78.3900
    212     17.1090    -20.6180     -0.7230      0.0100     78.3900
    213     16.2100    -18.8560      0.8670      1.7700     78.3900
    214     15.4940    -18.1210      1.3000      0.0100     78.3900
    215     17.5940    -18.5400      1.1180      1.5900     78.3900
    216     17.9890    -17.1300      1.6880      2.1000     78.3900
    217     17.1690    -16.8960      2.8920      1.5900     78.3900
    218     19.4590    -17.0800      1.8600      1.5900     78.3900
    219     17.5380    -16.0850      0.5950      1.5900     78.3900
    220     18.2150    -15.9820     -0.6790      1.7700     78.3900
    221     18.4990    -16.9880     -1.0740      0.0100     78.3900
    222     19.1470    -15.3840     -0.5650      0.0100     78.3900
    223     17.3430    -15.3000     -1.7510      1.7700     78.3900
    224     17.8580    -15.3310     -2.7350      0.0100     78.3900
    225     16.0890    -16.0300     -1.9000      1.5900     78.3900
    226     15.0160    -15.1250     -2.0890      1.7700     78.3900
    227     14.4990    -15.4540     -3.0190      0.0100     78.3900
    228     14.0290    -15.1210     -0.9630      1.6800     78.3900
    229     14.3310    -15.7320      0.2320      1.7700     78.3900
    230     15.3110    -16.2000      0.2920      0.0100     78.3900
    231     13.4540    -15.7730      1.2400      1.7700     78.3900
    232     13.6600    -16.2830      2.1800      0.0100     78.3900
    233     12.7910    -14.4960     -1.1240      1.7700     78.3900
    234     12.5200    -13.9630     -2.2100      1.5900     78.3900
    235     11.9100    -14.4920     -0.0980      1.6800     78.3900
    236     12.2030    -15.1330      1.0410      1.7700     78.3900
    237     11.2860    -15.1940      1.9880      1.6800     78.3900
    238     10.6640    -14.4120      2.0410      0.0100     78.3900
    239     11.4010    -15.7140      2.8380      0.0100     78.3900
    240     15.6280    -13.7650     -2.3160      1.7700     78.3900
    241     14.9400    -12.9850     -1.9500      0.0100     78.3900
    242     15.8890    -13.5420     -3.6900      1.5900     78.3900
    243     16.4430    -12.7480     -3.7550      0.0100     78.3900
    244     16.9160    -13.8410     -1.4990      1.7700     78.3900
    245     16.6850    -13.7500     -0.4120      0.0100     78.3900
    246     17.9300    -12.9140     -1.9570      1.5900     78.3900
    247     18.7170    -11.9810     -0.9630      2.1000     78.3900
    248     19.4270    -12.8040      0.0390      1.5900     78.3900
    249     19.5750    -11.0600     -1.7450      1.5900     78.3900
    250     17.6540    -11.1010     -0.1970      1.5900     78.3900
    251     16.9220    -10.0380     -0.8560      1.7700     78.3900
    252     17.4820     -9.5940     -1.7100      0.0100     78.3900
    253     16.7650     -9.2100     -0.1270      0.0100     78.3900
    254     15.5460    -10.4870     -1.3580      1.7700     78.3900
    255     15.6670    -11.1320     -2.2470      0.0100     78.3900
    256     14.8730    -11.2670     -0.3280      1.5900     78.3900
    257     13.4900    -10.9870     -0.3580      1.7700     78.3900
    258     12.9500    -11.9540     -0.4600      0.0100     78.3900
    259     13.0830    -10.3370      0.8840      1.6800     78.3900
    260     11.8040    -10.1620      1.3350      1.7700     78.3900
    261      8.3870    -10.6030      0.9740      1.6800     78.3900
    262      8.3130    -11.0610      0.0890      0.0100     78.3900
    263      7.5490    -10.3950      1.4850      0.0100     78.3900
    264     10.6780    -10.5460      0.7050      1.6800     78.3900
    265      9.5890    -10.2850      1.4200      1.7700     78.3900
    266      9.6260     -9.6810      2.6490      1.6800     78.3900
    267      8.7530     -9.5190      3.1250      0.0100     78.3900
    268     10.7710     -9.2600      3.3120      1.7700     78.3900
    269     10.7260     -8.7220      4.4220      1.5900     78.3900
    270     11.9370     -9.5380      2.5610      1.7700     78.3900
    271     13.2710     -9.3090      2.8680      1.6800     78.3900
    272     13.9200     -9.8000      1.8420      1.7700     78.3900
    273     15.0070     -9.8170      1.7260      0.0100     78.3900
    274     13.2240    -10.1320     -1.5760      1.7700     78.3900
    275     12.3760     -9.4360     -1.4250      0.0100     78.3900
    276     12.9600    -10.9440     -2.6990      1.5900     78.3900
    277     12.8060    -10.3480     -3.4390      0.0100     78.3900
    278     14.5470     -9.3890     -1.7370      1.7700     78.3900
    279     14.6510     -8.5870     -0.9690      0.0100     78.3900
    280     14.8170     -8.9320     -3.0850      1.5900     78.3900
    281     14.3340     -7.4940     -3.5130      2.1000     78.3900
    282     14.7260     -6.5680     -2.4340      1.5900     78.3900
    283     14.8340     -7.2140     -4.8800      1.5900     78.3900
    284     12.7650     -7.5880     -3.5370      1.5900     78.3900
    285     12.0560     -8.2650     -4.5960      1.7700     78.3900
    286     12.3930     -9.3240     -4.6980      0.0100     78.3900
    287     12.2390     -7.7670     -5.5760      0.0100     78.3900
    288     10.5440     -8.2620     -4.3390      1.7700     78.3900
    289     10.0090     -8.8220     -5.1390      0.0100     78.3900
    290     10.2550     -8.9180     -3.0710      1.5900     78.3900
    291      9.1820     -8.2430     -2.4290      1.7700     78.3900
    292      8.3970     -9.0080     -2.2230      0.0100     78.3900
    293      9.6060     -7.6350     -1.1550      1.6800     78.3900
    294      8.7840     -7.2300     -0.1370      1.7700     78.3900
    295      5.6050     -6.8160      1.1710      1.6800     78.3900
    296      5.0220     -7.1760      0.4470      0.0100     78.3900
    297      5.1880     -6.4510      2.0080      0.0100     78.3900
    298      7.4430     -7.2960     -0.1340      1.6800     78.3900
    299      6.9130     -6.8500      1.0010      1.7700     78.3900
    300      7.6650     -6.3780      2.0430      1.6800     78.3900
    301      7.1820     -6.0640      2.8710      0.0100     78.3900
    302      9.0500     -6.3050      2.0760      1.7700     78.3900
    303      9.6420     -5.8760      3.0700      1.5900     78.3900
    304      9.6220     -6.7620      0.8570      1.7700     78.3900
    305     10.9510     -6.8430      0.4600      1.6800     78.3900
    306     10.8920     -7.3610     -0.7440      1.7700     78.3900
    307     11.7470     -7.5670     -1.3880      0.0100     78.3900
    308      8.6460     -7.2170     -3.4040      1.7700     78.3900
    309      8.2270     -6.3290     -2.8940      0.0100     78.3900
    310      7.6500     -7.8030     -4.2180      1.5900     78.3900
    311      7.3810     -7.1380     -4.8640      0.0100     78.3900
    312      9.8970     -6.8760     -4.2110      1.7700     78.3900
    313     10.5960     -6.2600     -3.5970      0.0100     78.3900
    314      9.6490     -6.3250     -5.5300      1.5900     78.3900
    315      9.6720     -4.7580     -5.7050      2.1000     78.3900
    316     10.8230     -4.2010     -4.9620      1.5900     78.3900
    317      9.6180     -4.4390     -7.1480      1.5900     78.3900
    318      8.3350     -4.2950     -5.0190      1.5900     78.3900
    319      7.0510     -4.6700     -5.5700      1.7700     78.3900
    320      6.9560     -5.7730     -5.6770      0.0100     78.3900
    321      6.9120     -4.2260     -6.5810      0.0100     78.3900
    322      5.8970     -4.1740     -4.6890      1.7700     78.3900
    323      4.9160     -4.3940     -5.1610      0.0100     78.3900
    324      5.9220     -4.8550     -3.3990      1.5900     78.3900
    325      5.5750     -3.9270     -2.3760      1.7700     78.3900
    326      4.7030     -4.3790     -1.8470      0.0100     78.3900
    327      6.6940     -3.7130     -1.4130      1.6800     78.3900
    328      7.9950     -3.9870     -1.7710      1.7700     78.3900
    329      8.1290     -4.3610     -2.7820      0.0100     78.3900
    330      6.4020     -3.2240     -0.1600      1.7700     78.3900
    331      5.2590     -2.9330      0.1890      1.5900     78.3900
    332      7.4800     -3.0840      0.6730      1.6800     78.3900
    333      7.2720     -2.6960      1.5870      0.0100     78.3900
    334      8.8040     -3.3420      0.3830      1.7700     78.3900
    335      9.6690     -3.1430      1.2320      1.5900     78.3900
[...]
   2  1  0    -1331.0065268755     0.0000008159   0.000003481   0.000001009      394829787   12479830
   3  2  0    -1331.0065269673    -0.0000000918   0.000001929   0.000000296      364019545   12744924
   4  3  0    -1331.0065269141     0.0000000531   0.000000491   0.000000107      323072387   13080265
   5  4  0    -1331.0065269109     0.0000000032   0.000000186   0.000000046      285973210   13394935
   6  5  0    -1331.0065269126    -0.0000000018   0.000000000   0.000000010      249470840   13680591

          -----------------
          DENSITY CONVERGED
          -----------------
     TIME TO FORM FOCK OPERATORS=       6.6 SECONDS (       1.1 SEC/ITER)
     FOCK TIME ON FIRST ITERATION=       2.4, LAST ITERATION=       1.0
     TIME TO SOLVE SCF EQUATIONS=       0.2 SECONDS (       0.0 SEC/ITER)

 FINAL RHF ENERGY IS    -1331.0065269126 AFTER   6 ITERATIONS
 ...... END OF RHF CALCULATION ......
 CPU     0: STEP CPU TIME=    36.01 TOTAL CPU TIME=       4276.7 (     71.3 MIN)
 TOTAL WALL CLOCK TIME=       9129.2 SECONDS, CPU UTILIZATION IS    46.85%
 DONE PCM POT.
 CPU     0: STEP CPU TIME=     0.40 TOTAL CPU TIME=       4277.1 (     71.3 MIN)
 TOTAL WALL CLOCK TIME=       9130.1 SECONDS, CPU UTILIZATION IS    46.85%

 Iter= 10 iFrag=      4 EFMO= -1380.549342778, DD= 0.000018124, DE=-0.000043445


 RHF      monomer     11 corr= NONE       , L1=   262, L0=   246 ID=     11


 AO spaces for    11     0     0 n-mer: L1=   262, L0=   246

 DIRECT SCF CALCULATION, SCHWRZ=T   FDIFF=T,  DIRTHR=  0.00E+00 NITDIR=10

                                                                                   NONZERO     BLOCKS
 ITER EX DEM     TOTAL ENERGY        E CHANGE  DENSITY CHANGE     ORB. GRAD      INTEGRALS    SKIPPED
   1  0  0     -778.3708629287  -778.3708629287   0.000015566   0.000000000      321696064    3460507
          ---------------START SECOND ORDER SCF---------------
   2  1  0     -778.3708621266     0.0000008021   0.000004227   0.000001004      210173738    5045533
   3  2  0     -778.3708622271    -0.0000001005   0.000000796   0.000000193      197621338    5199792
   4  3  0     -778.3708621917     0.0000000354   0.000000205   0.000000046      178163730    5409567
   5  4  0     -778.3708621758     0.0000000159   0.000000078   0.000000032      157537763    5615071
   6  5  0     -778.3708621782    -0.0000000024   0.000000000   0.000000005      142779234    5764319

          -----------------
          DENSITY CONVERGED
          -----------------
     TIME TO FORM FOCK OPERATORS=       3.8 SECONDS (       0.6 SEC/ITER)
     FOCK TIME ON FIRST ITERATION=       1.3, LAST ITERATION=       0.5
     TIME TO SOLVE SCF EQUATIONS=       0.1 SECONDS (       0.0 SEC/ITER)

 FINAL RHF ENERGY IS     -778.3708621782 AFTER   6 ITERATIONS
 ...... END OF RHF CALCULATION ......
 CPU     0: STEP CPU TIME=    16.66 TOTAL CPU TIME=       4293.8 (     71.6 MIN)
 TOTAL WALL CLOCK TIME=       9166.2 SECONDS, CPU UTILIZATION IS    46.84%
 DONE PCM POT.
 CPU     0: STEP CPU TIME=     0.24 TOTAL CPU TIME=       4294.0 (     71.6 MIN)
 TOTAL WALL CLOCK TIME=       9166.8 SECONDS, CPU UTILIZATION IS    46.84%

 Iter= 10 iFrag=     11 EFMO=  -815.655993575, DD= 0.000012472, DE= 0.000018339

 CPU     0: STEP CPU TIME=     0.00 TOTAL CPU TIME=       4294.0 (     71.6 MIN)
 TOTAL WALL CLOCK TIME=       9166.8 SECONDS, CPU UTILIZATION IS    46.84%

  Monomer SCF synchronisation on iteration  10.1 took     0.0 s.
 CPU     0: STEP CPU TIME=     0.00 TOTAL CPU TIME=       4294.0 (     71.6 MIN)
 TOTAL WALL CLOCK TIME=       9166.8 SECONDS, CPU UTILIZATION IS    46.84%
 dmexch needs              4011916  words of memory.
 CPU     0: STEP CPU TIME=     0.01 TOTAL CPU TIME=       4294.1 (     71.6 MIN)
 TOTAL WALL CLOCK TIME=       9167.5 SECONDS, CPU UTILIZATION IS    46.84%

 Data exchange of   1328782 words took     0.7 s.

 Calculating apparent surface charges...
     Using       53177 words of memory.
 ASC ITERATION=   1 CONVERGED TO  0.112129E-05
 ASC ITERATION=   2 CONVERGED TO  0.922896E-05
 ASC ITERATION=   3 CONVERGED TO  0.138316E-04
 ASC ITERATION=   4 CONVERGED TO  0.252708E-05
 ASC ITERATION=   5 CONVERGED TO  0.114769E-05
 ASC ITERATION=   6 CONVERGED TO  0.515488E-06
 ASC ITERATION=   7 CONVERGED TO  0.223344E-06
 ASC ITERATION=   8 CONVERGED TO  0.239053E-06
 ASC ITERATION=   9 CONVERGED TO  0.130735E-06
 ASC ITERATION=  10 CONVERGED TO  0.579752E-07
 ASC ITERATION=  11 CONVERGED TO  0.255879E-07
 ASC ITERATION=  12 CONVERGED TO  0.182048E-07
 ASC ITERATION=  13 CONVERGED TO  0.111279E-07
 ASC ITERATION=  14 CONVERGED TO  0.447276E-08
 ASC ITERATION=  15 CONVERGED TO  0.268889E-08
 ASC ITERATION=  16 CONVERGED TO  0.145381E-08
 ASC ITERATION=  17 CONVERGED TO  0.871054E-09
 ASC ITERATION=  18 CONVERGED TO  0.576646E-09
 ASC ITERATION=  19 CONVERGED TO  0.351456E-09
 ASC ITERATION=  20 CONVERGED TO  0.150270E-09
 ASC ITERATION=  21 CONVERGED TO  0.926285E-10

 THE ASC EQUATIONS FOR PHASE=1 CONVERGED IN  21 ITERATIONS.

 PCM ASC=      9.8110735114 normalised to=      9.8724327083
 Nuclear factor=   1.0028536522, electronic factor=   1.0028729078

 CPU     0: STEP CPU TIME=     0.12 TOTAL CPU TIME=       4294.2 (     71.6 MIN)
 TOTAL WALL CLOCK TIME=       9167.7 SECONDS, CPU UTILIZATION IS    46.84%


 ------------------------------------------------------------------------------
 FMO iter 10.1,      0 fragment(s) converged, maxD 0.000025951 maxE 0.000059653
 ------------------------------------------------------------------------------

 RHF      monomer      1 corr= NONE       , L1=   388, L0=   364 ID=      1


 AO spaces for     1     0     0 n-mer: L1=   388, L0=   364

 DIRECT SCF CALCULATION, SCHWRZ=T   FDIFF=T,  DIRTHR=  0.00E+00 NITDIR=10

                                                                                   NONZERO     BLOCKS
 ITER EX DEM     TOTAL ENERGY        E CHANGE  DENSITY CHANGE     ORB. GRAD      INTEGRALS    SKIPPED
   1  0  0    -1473.6801867768 -1473.6801867768   0.000003466   0.000000000      950034979   18716550
          ---------------START SECOND ORDER SCF---------------
   2  1  0    -1473.6801866647     0.0000001121   0.000000795   0.000000167      490935758   23632841
   3  2  0    -1473.6801866782    -0.0000000135   0.000000345   0.000000072      441587296   24034714
   4  3  0    -1473.6801866690     0.0000000092   0.000000070   0.000000022      392318988   24444833
   5  4  0    -1473.6801866693    -0.0000000003   0.000000017   0.000000011      346265004   24809154

          -----------------
          DENSITY CONVERGED
          -----------------
     TIME TO FORM FOCK OPERATORS=       8.7 SECONDS (       1.7 SEC/ITER)
     FOCK TIME ON FIRST ITERATION=       3.3, LAST ITERATION=       1.2
     TIME TO SOLVE SCF EQUATIONS=       0.2 SECONDS (       0.0 SEC/ITER)

 FINAL RHF ENERGY IS    -1473.6801866693 AFTER   5 ITERATIONS
 ...... END OF RHF CALCULATION ......
 CPU     0: STEP CPU TIME=    22.02 TOTAL CPU TIME=       4316.2 (     71.9 MIN)
 TOTAL WALL CLOCK TIME=       9216.3 SECONDS, CPU UTILIZATION IS    46.83%
 DONE PCM POT.
 CPU     0: STEP CPU TIME=     0.42 TOTAL CPU TIME=       4316.6 (     71.9 MIN)
 TOTAL WALL CLOCK TIME=       9217.6 SECONDS, CPU UTILIZATION IS    46.83%

 Iter= 11 iFrag=      1 EFMO= -1522.810533095, DD= 0.000004268, DE=-0.000011382


 RHF      monomer      9 corr= NONE       , L1=   386, L0=   362 ID=      2


 AO spaces for     9     0     0 n-mer: L1=   386, L0=   362

 DIRECT SCF CALCULATION, SCHWRZ=T   FDIFF=T,  DIRTHR=  0.00E+00 NITDIR=10

                                                                                   NONZERO     BLOCKS
 ITER EX DEM     TOTAL ENERGY        E CHANGE  DENSITY CHANGE     ORB. GRAD      INTEGRALS    SKIPPED
   1  0  0    -1444.5388041367 -1444.5388041367   0.000008729   0.000000000      918850947   17489335
          ---------------START SECOND ORDER SCF---------------
   2  1  0    -1444.5388037832     0.0000003535   0.000002258   0.000000577      509738692   21788833
   3  2  0    -1444.5388037942    -0.0000000111   0.000000351   0.000000145      460970563   22195841
   4  3  0    -1444.5388037766     0.0000000177   0.000000185   0.000000024      407471837   22618439
   5  4  0    -1444.5388037703     0.0000000063   0.000000060   0.000000020      359480463   22989747

          -----------------
          DENSITY CONVERGED
          -----------------
     TIME TO FORM FOCK OPERATORS=       8.1 SECONDS (       1.6 SEC/ITER)
     FOCK TIME ON FIRST ITERATION=       2.8, LAST ITERATION=       1.2
     TIME TO SOLVE SCF EQUATIONS=       0.2 SECONDS (       0.0 SEC/ITER)

 FINAL RHF ENERGY IS    -1444.5388037703 AFTER   5 ITERATIONS
 ...... END OF RHF CALCULATION ......
 CPU     0: STEP CPU TIME=    39.60 TOTAL CPU TIME=       4356.2 (     72.6 MIN)
 TOTAL WALL CLOCK TIME=       9303.2 SECONDS, CPU UTILIZATION IS    46.82%
 DONE PCM POT.
 CPU     0: STEP CPU TIME=     0.46 TOTAL CPU TIME=       4356.7 (     72.6 MIN)
 TOTAL WALL CLOCK TIME=       9304.4 SECONDS, CPU UTILIZATION IS    46.82%

 Iter= 11 iFrag=      9 EFMO= -1507.495669206, DD= 0.000006912, DE=-0.000001412


 RHF      monomer     10 corr= NONE       , L1=   386, L0=   362 ID=      3


 AO spaces for    10     0     0 n-mer: L1=   386, L0=   362

 DIRECT SCF CALCULATION, SCHWRZ=T   FDIFF=T,  DIRTHR=  0.00E+00 NITDIR=10

                                                                                   NONZERO     BLOCKS
 ITER EX DEM     TOTAL ENERGY        E CHANGE  DENSITY CHANGE     ORB. GRAD      INTEGRALS    SKIPPED
   1  0  0    -1453.3307939095 -1453.3307939095   0.000011373   0.000000000      898915913   17617600
          ---------------START SECOND ORDER SCF---------------
   2  1  0    -1453.3307929566     0.0000009529   0.000003055   0.000001048      514766706   21784180
   3  2  0    -1453.3307930963    -0.0000001397   0.000000529   0.000000213      474687901   22113681
   4  3  0    -1453.3307930240     0.0000000723   0.000000223   0.000000035      421603124   22534501
   5  4  0    -1453.3307930134     0.0000000106   0.000000071   0.000000026      365365254   22966157
   6  5  0    -1453.3307930127     0.0000000006   0.000000000   0.000000006      327505522   23249851

          -----------------
          DENSITY CONVERGED
          -----------------
     TIME TO FORM FOCK OPERATORS=       8.8 SECONDS (       1.5 SEC/ITER)
     FOCK TIME ON FIRST ITERATION=       3.2, LAST ITERATION=       1.2
     TIME TO SOLVE SCF EQUATIONS=       0.2 SECONDS (       0.0 SEC/ITER)

 FINAL RHF ENERGY IS    -1453.3307930127 AFTER   6 ITERATIONS
 ...... END OF RHF CALCULATION ......
 CPU     0: STEP CPU TIME=    36.16 TOTAL CPU TIME=       4392.8 (     73.2 MIN)
 TOTAL WALL CLOCK TIME=       9385.2 SECONDS, CPU UTILIZATION IS    46.81%
 DONE PCM POT.
 CPU     0: STEP CPU TIME=     0.43 TOTAL CPU TIME=       4393.3 (     73.2 MIN)
 TOTAL WALL CLOCK TIME=       9386.5 SECONDS, CPU UTILIZATION IS    46.80%

 Iter= 11 iFrag=     10 EFMO= -1507.474340829, DD= 0.000008939, DE= 0.000001951


 RHF      monomer      3 corr= NONE       , L1=   341, L0=   320 ID=      4


 AO spaces for     3     0     0 n-mer: L1=   341, L0=   320

 DIRECT SCF CALCULATION, SCHWRZ=T   FDIFF=T,  DIRTHR=  0.00E+00 NITDIR=10

                                                                                   NONZERO     BLOCKS
 ITER EX DEM     TOTAL ENERGY        E CHANGE  DENSITY CHANGE     ORB. GRAD      INTEGRALS    SKIPPED
   1  0  0    -1316.8326871839 -1316.8326871839   0.000008747   0.000000000      671735522   10444425
          ---------------START SECOND ORDER SCF---------------
   2  1  0    -1316.8326870384     0.0000001456   0.000002085   0.000000522      376413871   13748452
   3  2  0    -1316.8326870366     0.0000000018   0.000000392   0.000000164      340465384   14069489
   4  3  0    -1316.8326870248     0.0000000118   0.000000180   0.000000029      296625502   14446874

          -----------------
          DENSITY CONVERGED
          -----------------
     TIME TO FORM FOCK OPERATORS=       5.9 SECONDS (       1.5 SEC/ITER)
     FOCK TIME ON FIRST ITERATION=       2.7, LAST ITERATION=       1.0
     TIME TO SOLVE SCF EQUATIONS=       0.1 SECONDS (       0.0 SEC/ITER)

 FINAL RHF ENERGY IS    -1316.8326870248 AFTER   4 ITERATIONS
 ...... END OF RHF CALCULATION ......
 CPU     0: STEP CPU TIME=    26.32 TOTAL CPU TIME=       4419.6 (     73.7 MIN)
 TOTAL WALL CLOCK TIME=       9443.4 SECONDS, CPU UTILIZATION IS    46.80%
 DONE PCM POT.
 CPU     0: STEP CPU TIME=     0.38 TOTAL CPU TIME=       4420.0 (     73.7 MIN)
 TOTAL WALL CLOCK TIME=       9444.5 SECONDS, CPU UTILIZATION IS    46.80%

 Iter= 11 iFrag=      3 EFMO= -1360.700933310, DD= 0.000007292, DE= 0.000000084


 RHF      monomer      6 corr= NONE       , L1=   341, L0=   320 ID=      5


 AO spaces for     6     0     0 n-mer: L1=   341, L0=   320

 DIRECT SCF CALCULATION, SCHWRZ=T   FDIFF=T,  DIRTHR=  0.00E+00 NITDIR=10

                                                                                   NONZERO     BLOCKS
 ITER EX DEM     TOTAL ENERGY        E CHANGE  DENSITY CHANGE     ORB. GRAD      INTEGRALS    SKIPPED
   1  0  0    -1314.6569809136 -1314.6569809136   0.000010325   0.000000000      645280373   10659962
          ---------------START SECOND ORDER SCF---------------
   2  1  0    -1314.6569806558     0.0000002578   0.000002606   0.000000448      360308830   13869311
   3  2  0    -1314.6569806904    -0.0000000346   0.000000433   0.000000095      327116125   14165060
   4  3  0    -1314.6569806763     0.0000000141   0.000000133   0.000000030      288126443   14509752
   5  4  0    -1314.6569806744     0.0000000019   0.000000056   0.000000014      256894166   14761554

          -----------------
          DENSITY CONVERGED
          -----------------
     TIME TO FORM FOCK OPERATORS=       7.1 SECONDS (       1.4 SEC/ITER)
     FOCK TIME ON FIRST ITERATION=       3.3, LAST ITERATION=       0.8
     TIME TO SOLVE SCF EQUATIONS=       0.1 SECONDS (       0.0 SEC/ITER)

 FINAL RHF ENERGY IS    -1314.6569806744 AFTER   5 ITERATIONS
 ...... END OF RHF CALCULATION ......
 CPU     0: STEP CPU TIME=    22.39 TOTAL CPU TIME=       4442.4 (     74.0 MIN)
 TOTAL WALL CLOCK TIME=       9491.5 SECONDS, CPU UTILIZATION IS    46.80%
 DONE PCM POT.
 CPU     0: STEP CPU TIME=     0.37 TOTAL CPU TIME=       4442.7 (     74.0 MIN)
 TOTAL WALL CLOCK TIME=       9492.5 SECONDS, CPU UTILIZATION IS    46.80%

 Iter= 11 iFrag=      6 EFMO= -1360.711267825, DD= 0.000008208, DE= 0.000001228


 RHF      monomer      7 corr= NONE       , L1=   341, L0=   320 ID=      6


 AO spaces for     7     0     0 n-mer: L1=   341, L0=   320

 DIRECT SCF CALCULATION, SCHWRZ=T   FDIFF=T,  DIRTHR=  0.00E+00 NITDIR=10

                                                                                   NONZERO     BLOCKS
 ITER EX DEM     TOTAL ENERGY        E CHANGE  DENSITY CHANGE     ORB. GRAD      INTEGRALS    SKIPPED
   1  0  0    -1309.8893253826 -1309.8893253826   0.000007696   0.000000000      661633187   10495685
          ---------------START SECOND ORDER SCF---------------
   2  1  0    -1309.8893252956     0.0000000871   0.000001953   0.000000463      374056532   13724819
   3  2  0    -1309.8893252877     0.0000000078   0.000000368   0.000000138      340265080   14029148
   4  3  0    -1309.8893252904    -0.0000000027   0.000000194   0.000000032      296642083   14416014

          -----------------
          DENSITY CONVERGED
          -----------------
     TIME TO FORM FOCK OPERATORS=       5.2 SECONDS (       1.3 SEC/ITER)
     FOCK TIME ON FIRST ITERATION=       2.0, LAST ITERATION=       0.9
     TIME TO SOLVE SCF EQUATIONS=       0.1 SECONDS (       0.0 SEC/ITER)

 FINAL RHF ENERGY IS    -1309.8893252904 AFTER   4 ITERATIONS
 ...... END OF RHF CALCULATION ......
 CPU     0: STEP CPU TIME=    24.79 TOTAL CPU TIME=       4467.5 (     74.5 MIN)
 TOTAL WALL CLOCK TIME=       9547.4 SECONDS, CPU UTILIZATION IS    46.79%
 DONE PCM POT.
 CPU     0: STEP CPU TIME=     0.33 TOTAL CPU TIME=       4467.8 (     74.5 MIN)
 TOTAL WALL CLOCK TIME=       9548.4 SECONDS, CPU UTILIZATION IS    46.79%

 Iter= 11 iFrag=      7 EFMO= -1360.738461258, DD= 0.000006185, DE=-0.000002820


 RHF      monomer      2 corr= NONE       , L1=   341, L0=   320 ID=      7


 AO spaces for     2     0     0 n-mer: L1=   341, L0=   320

 DIRECT SCF CALCULATION, SCHWRZ=T   FDIFF=T,  DIRTHR=  0.00E+00 NITDIR=10

                                                                                   NONZERO     BLOCKS
 ITER EX DEM     TOTAL ENERGY        E CHANGE  DENSITY CHANGE     ORB. GRAD      INTEGRALS    SKIPPED
   1  0  0    -1322.6072804402 -1322.6072804402   0.000012308   0.000000000      642156475   10668587
          ---------------START SECOND ORDER SCF---------------
   2  1  0    -1322.6072802396     0.0000002005   0.000003006   0.000000728      365044685   13859482
   3  2  0    -1322.6072802868    -0.0000000472   0.000000600   0.000000162      337294677   14102563
   4  3  0    -1322.6072802735     0.0000000134   0.000000161   0.000000027      298443146   14439000
   5  4  0    -1322.6072802732     0.0000000002   0.000000054   0.000000012      260822296   14746094

          -----------------
          DENSITY CONVERGED
          -----------------
     TIME TO FORM FOCK OPERATORS=       6.5 SECONDS (       1.3 SEC/ITER)
     FOCK TIME ON FIRST ITERATION=       2.3, LAST ITERATION=       0.8
     TIME TO SOLVE SCF EQUATIONS=       0.1 SECONDS (       0.0 SEC/ITER)

 FINAL RHF ENERGY IS    -1322.6072802732 AFTER   5 ITERATIONS
 ...... END OF RHF CALCULATION ......
 CPU     0: STEP CPU TIME=    28.63 TOTAL CPU TIME=       4496.5 (     74.9 MIN)
 TOTAL WALL CLOCK TIME=       9614.2 SECONDS, CPU UTILIZATION IS    46.77%
 DONE PCM POT.
 CPU     0: STEP CPU TIME=     0.36 TOTAL CPU TIME=       4496.8 (     74.9 MIN)
 TOTAL WALL CLOCK TIME=       9615.1 SECONDS, CPU UTILIZATION IS    46.77%

 Iter= 11 iFrag=      2 EFMO= -1360.704173178, DD= 0.000009979, DE= 0.000004131


 RHF      monomer      8 corr= NONE       , L1=   341, L0=   320 ID=      8


 AO spaces for     8     0     0 n-mer: L1=   341, L0=   320

 DIRECT SCF CALCULATION, SCHWRZ=T   FDIFF=T,  DIRTHR=  0.00E+00 NITDIR=10

                                                                                   NONZERO     BLOCKS
 ITER EX DEM     TOTAL ENERGY        E CHANGE  DENSITY CHANGE     ORB. GRAD      INTEGRALS    SKIPPED
   1  0  0    -1306.3111777520 -1306.3111777520   0.000011767   0.000000000      644872345   10681454
          ---------------START SECOND ORDER SCF---------------
   2  1  0    -1306.3111774243     0.0000003277   0.000002930   0.000000428      367385403   13817789
   3  2  0    -1306.3111774814    -0.0000000571   0.000000533   0.000000158      338070622   14079685
   4  3  0    -1306.3111774614     0.0000000200   0.000000183   0.000000031      296732758   14432461
   5  4  0    -1306.3111774586     0.0000000028   0.000000063   0.000000015      262311179   14723326

          -----------------
          DENSITY CONVERGED
          -----------------
     TIME TO FORM FOCK OPERATORS=       6.7 SECONDS (       1.3 SEC/ITER)
     FOCK TIME ON FIRST ITERATION=       2.4, LAST ITERATION=       0.9
     TIME TO SOLVE SCF EQUATIONS=       0.2 SECONDS (       0.0 SEC/ITER)

 FINAL RHF ENERGY IS    -1306.3111774586 AFTER   5 ITERATIONS
 ...... END OF RHF CALCULATION ......
 CPU     0: STEP CPU TIME=    30.61 TOTAL CPU TIME=       4527.4 (     75.5 MIN)
 TOTAL WALL CLOCK TIME=       9680.9 SECONDS, CPU UTILIZATION IS    46.77%
 DONE PCM POT.
 CPU     0: STEP CPU TIME=     0.33 TOTAL CPU TIME=       4527.8 (     75.5 MIN)
 TOTAL WALL CLOCK TIME=       9681.8 SECONDS, CPU UTILIZATION IS    46.77%

 Iter= 11 iFrag=      8 EFMO= -1360.721043441, DD= 0.000009463, DE= 0.000001228


 RHF      monomer      5 corr= NONE       , L1=   339, L0=   318 ID=      9

