‘2LBK_5_fmo_input.inp’ -> ‘/scratch/hazwong/821031/./2LBK_5_fmo_input.inp’
‘rungms’ -> ‘/scratch/hazwong/821031/./rungms’
‘gms-files.csh’ -> ‘/scratch/hazwong/821031/./gms-files.csh’
----- GAMESS execution script 'rungms' -----
This job is running on host gollum047.lsa.umich.edu
under operating system Linux at Fri Dec 6 02:29:40 EST 2019
Available scratch disk space (Kbyte units) at beginning of the job is
Filesystem     1K-blocks   Used Available Use% Mounted on
/dev/sda4      426933580 364476 426569104   1% /scratch
GAMESS temporary binary files will be written to /scratch/hazwong/821031/2LBK_5/usrc
GAMESS supplementary output files will be written to /scratch/hazwong/821031/2LBK_5/src
Copying input file 2LBK_5_fmo_input.inp to your run's scratch directory...
cp 2LBK_5_fmo_input.inp /scratch/hazwong/821031/2LBK_5/usrc/2LBK_5_fmo_input.F05
unset echo
This is a GDDI run, keeping various output files on local disks
setenv OUTPUT /scratch/hazwong/821031/2LBK_5/usrc/2LBK_5_fmo_input.F06
setenv PUNCH /scratch/hazwong/821031/2LBK_5/usrc/2LBK_5_fmo_input.F07
unset echo
 
Assuming a single but multicore node.
 
/export/apps/CentOS7/gamess/src/build//ddikick.x /export/apps/CentOS7/gamess/src/build//gamess.R3.x 2LBK_5_fmo_input -ddi 1 16 gollum047.lsa.umich.edu:cpus=16 -scr /scratch/hazwong/821031/2LBK_5/usrc

 Distributed Data Interface kickoff program.
 Initiating 16 compute processes on 1 nodes to run the following command:
 /export/apps/CentOS7/gamess/src/build//gamess.R3.x 2LBK_5_fmo_input 

          ******************************************************
          *         GAMESS VERSION = 30 SEP 2018 (R3)         *
          *             FROM IOWA STATE UNIVERSITY             *
          * M.W.SCHMIDT, K.K.BALDRIDGE, J.A.BOATZ, S.T.ELBERT, *
          *   M.S.GORDON, J.H.JENSEN, S.KOSEKI, N.MATSUNAGA,   *
          *          K.A.NGUYEN, S.J.SU, T.L.WINDUS,           *
          *       TOGETHER WITH M.DUPUIS, J.A.MONTGOMERY       *
          *         J.COMPUT.CHEM.  14, 1347-1363(1993)        *
          **************** 64 BIT LINUX VERSION ****************

  SINCE 1993, STUDENTS AND POSTDOCS WORKING AT IOWA STATE UNIVERSITY
  AND ALSO IN THEIR VARIOUS JOBS AFTER LEAVING ISU HAVE MADE IMPORTANT
  CONTRIBUTIONS TO THE CODE:
     IVANA ADAMOVIC, CHRISTINE AIKENS, YURI ALEXEEV, POOJA ARORA,
     ANDREY ASADCHEV, ROB BELL, PRADIPTA BANDYOPADHYAY, JONATHAN BENTZ,
     BRETT BODE, KURT BRORSEN, CALEB CARLIN, GALINA CHABAN, WEI CHEN,
     CHEOL HO CHOI, PAUL DAY, ALBERT DEFUSCO, NUWAN DESILVA, TIM DUDLEY,
     DMITRI FEDOROV, ALEX FINDLATER, GRAHAM FLETCHER, MARK FREITAG,
     KURT GLAESEMANN, ANASTASIA GUNINA,
     DAN KEMP, GRANT MERRILL, NORIYUKI MINEZAWA, JONATHAN MULLIN,
     TAKESHI NAGATA, SEAN NEDD, HEATHER NETZLOFF, BOSILJKA NJEGIC, RYAN OLSON,
     MIKE PAK, BUU PHAM,
     SPENCER PRUITT, LUKE ROSKOP, JIM SHOEMAKER, LYUDMILA SLIPCHENKO,
     TONY SMITH, SAROM SOK LEANG, JIE SONG, TETSUYA TAKETSUGU, SIMON WEBB,
     PENG XU, SOOHAENG YOO, FEDERICO ZAHARIEV

  ADDITIONAL CODE HAS BEEN PROVIDED BY COLLABORATORS IN OTHER GROUPS:
     IOWA STATE UNIVERSITY:
          JOE IVANIC, AARON WEST, LAIMUTIS BYTAUTAS, KLAUS RUEDENBERG
     UNIVERSITY OF TOKYO: KIMIHIKO HIRAO, TAKAHITO NAKAJIMA,
          TAKAO TSUNEDA, MUNEAKI KAMIYA, SUSUMU YANAGISAWA,
          KIYOSHI YAGI, MAHITO CHIBA, SEIKEN TOKURA, NAOAKI KAWAKAMI
     UNIVERSITY OF AARHUS: FRANK JENSEN
     UNIVERSITY OF IOWA: VISVALDAS KAIRYS, HUI LI
     NATIONAL INST. OF STANDARDS AND TECHNOLOGY: WALT STEVENS, DAVID GARMER
     UNIVERSITY OF PISA: BENEDETTA MENNUCCI, JACOPO TOMASI
     UNIVERSITY OF MEMPHIS: HENRY KURTZ, PRAKASHAN KORAMBATH
     UNIVERSITY OF ALBERTA: TOBY ZENG, MARIUSZ KLOBUKOWSKI
     UNIVERSITY OF NEW ENGLAND: MARK SPACKMAN
     MIE UNIVERSITY: HIROAKI UMEDA
     NAT. INST. OF ADVANCED INDUSTRIAL SCIENCE AND TECHNOLOGY: KAZUO KITAURA
     MICHIGAN STATE UNIVERSITY:
          KAROL KOWALSKI, MARTA WLOCH, JEFFREY GOUR, JESSE LUTZ,
          WEI LI, JUN SHEN, J. EMILIANO DEUSTUA, PIOTR PIECUCH
     UNIVERSITY OF MINNESOTA:
          YINAN SHU
     UNIVERSITY OF SILESIA: MONIKA MUSIAL, STANISLAW KUCHARSKI
     FACULTES UNIVERSITAIRES NOTRE-DAME DE LA PAIX:
          OLIVIER QUINET, BENOIT CHAMPAGNE
     UNIVERSITY OF CALIFORNIA - SANTA BARBARA: BERNARD KIRTMAN
     INSTITUTE FOR MOLECULAR SCIENCE:
          KAZUYA ISHIMURA, MICHIO KATOUDA, AND SHIGERU NAGASE
     UNIVERSITY OF NOTRE DAME: ANNA POMOGAEVA, DAN CHIPMAN
     KYUSHU UNIVERSITY:
          HARUYUKI NAKANO,
          FENG LONG GU, JACEK KORCHOWIEC, MARCIN MAKOWSKI, AND YURIKO AOKI,
          HIROTOSHI MORI AND EISAKU MIYOSHI
     PENNSYLVANIA STATE UNIVERSITY:
          TZVETELIN IORDANOV, CHET SWALINA, JONATHAN SKONE,
          SHARON HAMMES-SCHIFFER
     WASEDA UNIVERSITY:
          MASATO KOBAYASHI, TOMOKO AKAMA, TSUGUKI TOUMA,
          TAKESHI YOSHIKAWA, YASUHIRO IKABATA, JUNJI SEINO,
          YUYA NAKAJIMA, HIROMI NAKAI
     NANJING UNIVERSITY: SHUHUA LI
     UNIVERSITY OF NEBRASKA:
          PEIFENG SU, DEJUN SI, NANDUN THELLAMUREGE, YALI WANG, HUI LI
     UNIVERSITY OF ZURICH: ROBERTO PEVERATI, KIM BALDRIDGE
     N. COPERNICUS UNIVERSITY AND JACKSON STATE UNIVERSITY:
          MARIA BARYSZ
     UNIVERSITY OF COPENHAGEN: Jimmy Kromann, CASPER STEINMANN
     TOKYO INSTITUTE OF TECHNOLOGY: HIROYA NAKATA
     NAGOYA UNIVERSITY: YOSHIO NISHIMOTO, STEPHAN IRLE
     MOSCOW STATE UNIVERSITY: VLADIMIR MIRONOV


 PARALLEL VERSION RUNNING ON       16 PROCESSORS IN        1 NODES.

 EXECUTION OF GAMESS BEGUN Fri Dec  6 02:29:40 2019

            ECHO OF THE FIRST FEW INPUT CARDS -
 INPUT CARD>!*** FMO 5.3 (Gamess) INPUT generated by Facio 22.1.1.32 ***                    
 INPUT CARD> $CONTRL RUNTYP=ENERGY NPRINT=-5 ISPHER=1 MAXIT=200 $END                        
 INPUT CARD> $SYSTEM MWORDS=63 MEMDDI=63 $END                                               
 INPUT CARD> $GDDI NGROUP=1 $END                                                            
 INPUT CARD> $SCF DIRSCF=.TRUE. NPUNCH=0 $END                                               
 INPUT CARD>!*** NumCPU : 2  MemPerNode : 512MB                                             
 INPUT CARD> $PCM SOLVNT=WATER IEF=-10 ICOMP=2 ICAV=1 IDISP=1 IFMO=-1 $END                  
 INPUT CARD> $PCMCAV RADII=SUAHF $END                                                       
 INPUT CARD> $TESCAV NTSALL=60 $END                                                         
 INPUT CARD> $FMOPRP                                                                        
 INPUT CARD>    NAODIR=200                                                                  
 INPUT CARD>    NGRFMO(1)=1, 1, 0, 0, 0,   0, 0, 0, 0, 0                                    
 INPUT CARD>    IPIEDA=1                                                                    
 INPUT CARD>    NPRINT=9                                                                    
 INPUT CARD> $END                                                                           
 INPUT CARD> $FMO                                                                           
 INPUT CARD>      SCFTYP(1)=RHF                                                             
 INPUT CARD>      MODGRD=10                                                                 
 INPUT CARD>      MODMUL=0                                                                  
 INPUT CARD>      MAXCAO=5                                                                  
 INPUT CARD>      MAXBND=13                                                                 
 INPUT CARD>      NLAYER=1                                                                  
 INPUT CARD>      MPLEVL(1)=2                                                               
 INPUT CARD>      NFRAG=11                                                                  
 INPUT CARD>      ICHARG(1)=-1, -1, -1, -1, -1, -1, -1, -1, -1, -1, 0                       
 INPUT CARD>      FRGNAM(1)=F1, F2, F3, F4, F5, F6, F7, F8, F9, F10, F11                    
 INPUT CARD>      indat(1)=0                                                                
 INPUT CARD>               1   -35   0                                                      
 INPUT CARD>               36   -66   0                                                     
 INPUT CARD>               67   -97   0                                                     
 INPUT CARD>               98   -127   0                                                    
 INPUT CARD>               128   -157   0                                                   
 INPUT CARD>               158   -188   0                                                   
 INPUT CARD>               189   -219   0                                                   
 INPUT CARD>               220   -250   0                                                   
 INPUT CARD>               251   -284   0                                                   
 INPUT CARD>               285   -318   0                                                   
 INPUT CARD>               319   -345   0                                                   
 INPUT CARD> $END                                                                           
 INPUT CARD>                                                                                
 INPUT CARD> $FMOBND                                                                        
 INPUT CARD>   -36   35       6-31G*    MINI                                                
 INPUT CARD>   -67   66       6-31G*    MINI                                                
 INPUT CARD>   -98   97       6-31G*    MINI                                                
 INPUT CARD>   -128   127       6-31G*    MINI                                              
 INPUT CARD>   -158   157       6-31G*    MINI                                              
 INPUT CARD>   -189   188       6-31G*    MINI                                              
 INPUT CARD>   -220   219       6-31G*    MINI                                              
 INPUT CARD>   -251   250       6-31G*    MINI                                              
 INPUT CARD>   -285   284       6-31G*    MINI                                              


 -------------------------------------------------------------
 GROUP DDI, PROGRAMMED BY: RYAN M. OLSON AND DMITRI G. FEDOROV
        FEDOROV ET AL., J. COMPUT. CHEM., 25 (2004) 872.
 -------------------------------------------------------------

 -------------------------------------------------------
 GDDI: INITIALIZATION COMPLETED FOR GROUP     1 OF     1
 WITH    16 PROCESSES BALTYP=DLB   global rank=        0
 -------------------------------------------------------

   63000000 WORDS OF MEMORY AVAILABLE


     RUN TITLE
     ---------
  FMO calculation                                                                

 THE POINT GROUP OF THE MOLECULE IS C1      
 THE ORDER OF THE PRINCIPAL AXIS IS     0

 ATOM   ATOMIC CHARGE
 H.1-1       1.0
 O.1-1       8.0
 C.1-1       6.0
 N.1-1       7.0
 P.1-1      15.0

     ATOMIC BASIS SET LIBRARY
     ----------------
 THE CONTRACTED PRIMITIVE FUNCTIONS HAVE BEEN UNNORMALIZED
 THE CONTRACTED BASIS FUNCTIONS ARE NOW NORMALIZED TO UNITY

  SHELL TYPE  PRIMITIVE        EXPONENT          CONTRACTION COEFFICIENT(S)

 H.1-1     

      1   S       1            18.7311370    0.033494604338
      1   S       2             2.8253944    0.234726953484
      1   S       3             0.6401217    0.813757326146

      2   S       4             0.1612778    1.000000000000

 O.1-1     

      3   S       5          5484.6716600    0.001831074430
      3   S       6           825.2349460    0.013950172200
      3   S       7           188.0469580    0.068445078098
      3   S       8            52.9645000    0.232714335992
      3   S       9            16.8975704    0.470192897984
      3   S      10             5.7996353    0.358520852987

      4   L      11            15.5396162   -0.110777549525    0.070874268231
      4   L      12             3.5999336   -0.148026262701    0.339752839147
      4   L      13             1.0137618    1.130767015354    0.727158577316

      5   L      14             0.2700058    1.000000000000    1.000000000000

      6   D      15             0.8000000    1.000000000000

 C.1-1     

      7   S      16          3047.5248800    0.001834737132
      7   S      17           457.3695180    0.014037322813
      7   S      18           103.9486850    0.068842622264
      7   S      19            29.2101553    0.232184443216
      7   S      20             9.2866630    0.467941348435
      7   S      21             3.1639270    0.362311985337

      8   L      22             7.8682723   -0.119332419775    0.068999066591
      8   L      23             1.8812885   -0.160854151696    0.316423960957
      8   L      24             0.5442493    1.143456437840    0.744308290898

      9   L      25             0.1687145    1.000000000000    1.000000000000

     10   D      26             0.8000000    1.000000000000

 N.1-1     

     11   S      27          4173.5114600    0.001834772160
     11   S      28           627.4579110    0.013994627002
     11   S      29           142.9020930    0.068586551812
     11   S      30            40.2343293    0.232240873040
     11   S      31            12.8202129    0.469069948082
     11   S      32             4.3904370    0.360455199063

     12   L      33            11.6263619   -0.114961181702    0.067579743878
     12   L      34             2.7162798   -0.169117478561    0.323907295893
     12   L      35             0.7722184    1.145851947027    0.740895139755

     13   L      36             0.2120315    1.000000000000    1.000000000000

     14   D      37             0.8000000    1.000000000000

 P.1-1     

     15   S      38         19413.3000000    0.001851598923
     15   S      39          2909.4200000    0.014206191735
     15   S      40           661.3640000    0.069999459277
     15   S      41           185.7590000    0.240078860331
     15   S      42            59.1943000    0.484761717984
     15   S      43            20.0310000    0.335199804993

     16   L      44           339.4780000   -0.002782170105    0.004564616191
     16   L      45            81.0101000   -0.036049901354    0.033693571881
     16   L      46            25.8780000   -0.116631004382    0.139754883368
     16   L      47             9.4522100    0.096832803638    0.339361716786
     16   L      48             3.6656600    0.614418023082    0.450920623685
     16   L      49             1.4674600    0.403798015170    0.238585800889

     17   L      50             2.1562300   -0.252924113863   -0.017765312733
     17   L      51             0.7489970    0.032851844678    0.274058196433
     17   L      52             0.2831450    1.081254761783    0.785421562957

     18   L      53             0.0998317    1.000000000000    1.000000000000

     19   D      54             0.5500000    1.000000000000

 TOTAL NUMBER OF BASIS SET SHELLS             =   19
 NUMBER OF CARTESIAN GAUSSIAN BASIS FUNCTIONS =   66

     $CONTRL OPTIONS
     ---------------
 SCFTYP=RHF          RUNTYP=ENERGY       EXETYP=RUN     
 MPLEVL=       0     CITYP =NONE         CCTYP =NONE         VBTYP =NONE    
 DFTTYP=NONE         TDDFT =NONE    
 MULT  =       1     ICHARG=       0     NZVAR =       0     COORD =UNIQUE  
 PP    =NONE         RELWFN=NONE         LOCAL =NONE         NUMGRD=       F
 ISPHER=       1     NOSYM =       0     MAXIT =     200     UNITS =ANGS    
 PLTORB=       F     MOLPLT=       F     AIMPAC=       F     FRIEND=        
 NPRINT=      -5     IREST =       0     GEOM  =INPUT   
 NORMF =       0     NORMP =       0     ITOL  =      24     ICUT  =      12
 INTTYP=BEST         GRDTYP=BEST         QMTTOL= 1.0E-06

     $SYSTEM OPTIONS
     ---------------
  REPLICATED MEMORY=    63000000 WORDS (ON EVERY NODE).
 DISTRIBUTED MEMDDI=          63 MILLION WORDS IN AGGREGATE,
 MEMDDI DISTRIBUTED OVER  16 PROCESSORS IS     3937500 WORDS/PROCESSOR.
 TOTAL MEMORY REQUESTED ON EACH PROCESSOR=    66937500 WORDS.
 TIMLIM=      525600.00 MINUTES, OR     365.0 DAYS.
 PARALL= T  BALTYP=  DLB     KDIAG=    0  COREFL= F
 MXSEQ2=     300 MXSEQ3=     150  mem10=         0

 ** LOOKING UP INTERNALLY STORED DATA FOR SOLVENT=WATER    **
 OPTICAL AND PHYSICAL CONSTANTS:
 EPS= 78.390; EPSINF=  1.776; RSOLV=  1.385 A; VMOL=  18.070 ML/MOL;
 TCE= .25700E-03 1/K; STEN= 71.810 DYN/CM;  DSTEN=  0.6500; CMF=  1.2770


     -----------------------------------
     INPUT FOR PCM SOLVATION CALCULATION 
     -----------------------------------
     IEF   =     -10
     ICOMP =       2     IFIELD=       0     ICAV  =       1
     IDISP =       1     IREP  =       0     IDP   =       0

     SOLVNT=WATER        EPS   = 78.3900     EPSINF=  1.7760
     VMOL  = 18.0700     TCE   =  0.00025700 STEN  = 71.8100
     DSTEN =  0.6500     CMF   =  1.2770     RSOLV =  1.3850

     NESFP =       0
     OMEGA = 40.0000     RET   =100.0000     FRO   =  0.7000

     TABS  =298.0000     IPRINT=       0

     --------------------------------
     INPUT FOR ITERATIVE C-PCM METHOD 
     --------------------------------
     IPCMIT  =         1     MXDIIS  =        50
     MXITR1  =       200     MXITR2  =       200
     THRES   = 0.100E-09     IMUL    =         3
     RCUT(1) =   20.0000     RCUT(2) =   50.0000

     IDIRCT  =         1
     IMGABI  =         0     RABI    =    4.0000
     IMGASC  =         0     RASC    =   20.0000
     THRSLS  = 0.500E-03     DENSLS  =    0.0100
     IEFPOL  =         1     REFPOL  =    0.0000

     INPUT FOR ISOTROPIC DIELECTRICS
     -------------------------------
     EPS=    78.39

          ----------------
          PROPERTIES INPUT
          ----------------

     MOMENTS            FIELD           POTENTIAL          DENSITY
 IEMOM =       1   IEFLD =       0   IEPOT =       0   IEDEN =       0
 WHERE =COMASS     WHERE =NUCLEI     WHERE =NUCLEI     WHERE =NUCLEI  
 OUTPUT=BOTH       OUTPUT=BOTH       OUTPUT=NONE       OUTPUT=BOTH    
 IEMINT=       0   IEFINT=       0                     IEDINT=       0
                                                       MORB  =       0
          EXTRAPOLATION IN EFFECT
          SOSCF IN EFFECT
 ORBITAL PRINTING OPTION: NPREO=     1 32767     2     1

     -------------------------------
     INTEGRAL TRANSFORMATION OPTIONS
     -------------------------------
     NWORD  =            0
     CUTOFF = 1.0E-10     MPTRAN =       0
     DIRTRF =       T     AOINTS =DUP     

          ----------------------
          INTEGRAL INPUT OPTIONS
          ----------------------
 NOPK  =       1 NORDER=       0 SCHWRZ=       T

 ..... DONE SETTING UP THE RUN .....
 CPU     0: STEP CPU TIME=     0.03 TOTAL CPU TIME=          0.0 (      0.0 MIN)
 TOTAL WALL CLOCK TIME=          0.1 SECONDS, CPU UTILIZATION IS    42.86%
 CPU     0: STEP CPU TIME=     0.00 TOTAL CPU TIME=          0.0 (      0.0 MIN)
 TOTAL WALL CLOCK TIME=          0.1 SECONDS, CPU UTILIZATION IS    42.86%

                    ----------------------
                    AO INTEGRAL TECHNOLOGY
                    ----------------------
     S,P,L SHELL ROTATED AXIS INTEGRALS, REPROGRAMMED BY
        KAZUYA ISHIMURA (IMS) AND JOSE SIERRA (SYNSTAR).
     S,P,D,L SHELL ROTATED AXIS INTEGRALS PROGRAMMED BY
        KAZUYA ISHIMURA (INSTITUTE FOR MOLECULAR SCIENCE).
     S,P,D,F,G SHELL TO TOTAL QUARTET ANGULAR MOMENTUM SUM 5,
        ERIC PROGRAM BY GRAHAM FLETCHER (ELORET AND NASA ADVANCED
        SUPERCOMPUTING DIVISION, AMES RESEARCH CENTER).
     S,P,D,F,G,L SHELL GENERAL RYS QUADRATURE PROGRAMMED BY
        MICHEL DUPUIS (PACIFIC NORTHWEST NATIONAL LABORATORY).
 Setting modorb=1 flag...
 Setting modorb=1 flag...

          -----------------------
          MP2 CONTROL INFORMATION
          -----------------------
          NACORE =        8  NBCORE =        8
          LMOMP2 =        F  AOINTS = DUP     
          METHOD =        2  NWORD  =               0
          MP2PRP =        F  OSPT   = NONE    
          CUTOFF = 1.00E-12  CPHFBS = BASISAO 
          CODE   = IMS     

          NUMBER OF CORE -A-  ORBITALS =     8
          NUMBER OF CORE -B-  ORBITALS =     8
          NUMBER OF OCC. -A-  ORBITALS =    18
          NUMBER OF OCC. -B-  ORBITALS =    18
          NUMBER OF MOLECULAR ORBITALS =    66
          NUMBER OF   BASIS  FUNCTIONS =    66

 CPU     0: STEP CPU TIME=     0.04 TOTAL CPU TIME=          0.1 (      0.0 MIN)
 TOTAL WALL CLOCK TIME=          0.1 SECONDS, CPU UTILIZATION IS    70.00%
 CPU     0: STEP CPU TIME=     0.00 TOTAL CPU TIME=          0.1 (      0.0 MIN)
 TOTAL WALL CLOCK TIME=          0.1 SECONDS, CPU UTILIZATION IS    70.00%

     INPUT FOR CAVITY DEFINITION 
     ---------------------------
   ATOM               COORDINATES                RADIUS       EPS
      1     12.4830    -11.4170     13.1310      0.0100     78.3900
      2     11.8260    -10.8930     12.6300      1.5900     78.3900
      3     10.7430    -10.6180     13.5320      1.7700     78.3900
      4     11.1390    -10.0730     14.4190      0.0100     78.3900
      5     10.3070    -11.5760     13.8870      0.0100     78.3900
      6      9.6230     -9.7790     12.9050      1.7700     78.3900
      7      8.8040     -9.5980     13.6360      0.0100     78.3900
      8     10.1400     -8.4740     12.5070      1.5900     78.3900
      9      9.5330     -8.0820     11.2880      1.7700     78.3900
     10      9.0570     -7.0910     11.4680      0.0100     78.3900
     11     10.5280     -7.9490     10.2180      1.6800     78.3900
     12     11.5690     -7.3710      8.3680      1.7700     78.3900
     13     12.4720     -8.1340      9.0980      1.6800     78.3900
     14     11.8100     -8.4490     10.1870      1.7700     78.3900
     15     12.2040     -9.0440     11.0160      0.0100     78.3900
     16     10.5660     -6.0640      6.6640      1.6800     78.3900
     17      9.4600     -6.0760      7.4150      1.7700     78.3900
     18      8.6060     -5.5290      7.0000      0.0100     78.3900
     19      9.2670     -6.6100      8.6270      1.6800     78.3900
     20     10.3670     -7.2580      9.0430      1.7700     78.3900
     21     11.6660     -6.7190      7.1190      1.7700     78.3900
     22     12.7900     -6.7060      6.3790      1.6800     78.3900
     23     13.6410     -7.1190      6.7130      0.0100     78.3900
     24     12.8050     -6.2600      5.4800      0.0100     78.3900
     25      8.4620     -9.1000     10.9630      1.7700     78.3900
     26      8.3290     -9.2440      9.8720      0.0100     78.3900
     27      7.2410     -8.6990     11.5480      1.5900     78.3900
     28      6.6180     -9.4190     11.3980      0.0100     78.3900
     29      9.0100    -10.3600     11.6240      1.7700     78.3900
     30      9.8640    -10.7580     11.0320      0.0100     78.3900
     31      8.0140    -11.3640     11.9550      1.5900     78.3900
     32      7.7680    -12.5440     10.9280      2.1000     78.3900
     33      9.0670    -13.0440     10.4370      1.5900     78.3900
     34      6.8720    -13.5240     11.5770      1.5900     78.3900
     35      6.9850    -11.8350      9.7520      1.5900     78.3900
     36      5.6920    -11.2200      9.9920      1.7700     78.3900
     37      5.7030    -10.5750     10.8960      0.0100     78.3900
     38      4.9180    -11.9960     10.1760      0.0100     78.3900
     39      5.2220    -10.3700      8.8000      1.7700     78.3900
     40      4.2420     -9.8880      9.0090      0.0100     78.3900
     41      6.1780     -9.3050      8.5400      1.5900     78.3900
     42      6.2990     -9.1150      7.1360      1.7700     78.3900
     43      6.0160     -8.0510      6.9660      0.0100     78.3900
     44      7.6840     -9.3250      6.6340      1.6800     78.3900
     45      8.5590    -10.1170      7.3420      1.7700     78.3900
     46      8.1800    -10.5670      8.2600      0.0100     78.3900
     47      9.8210    -10.2930      6.9390      1.7700     78.3900
     48     10.5350    -10.8820      7.5110      0.0100     78.3900
     49      8.0880     -8.7660      5.4210      1.7700     78.3900
     50      7.2730     -8.1090      4.7530      1.5900     78.3900
     51      9.3580     -8.9430      4.9930      1.6800     78.3900
     52     10.2240     -9.6690      5.7250      1.7700     78.3900
     53     11.4880     -9.7960      5.3180      1.6800     78.3900
     54     11.7760     -9.3750      4.4550      0.0100     78.3900
     55     12.0710    -10.4920      5.7390      0.0100     78.3900
     56      5.2820    -10.0080      6.4590      1.7700     78.3900
     57      5.6320    -10.3870      5.4760      0.0100     78.3900
     58      4.0690     -9.3020      6.2980      1.5900     78.3900
     59      3.4440     -9.9320      5.9210      0.0100     78.3900
     60      5.1250    -11.1370      7.4700      1.7700     78.3900
     61      6.0030    -11.8230      7.4200      0.0100     78.3900
     62      3.8610    -11.8370      7.4020      1.5900     78.3900
     63      3.7300    -13.0990      6.4730      2.1000     78.3900
     64      4.8760    -13.9640      6.7780      1.5900     78.3900
     65      2.3810    -13.6770      6.6730      1.5900     78.3900
     66      3.8240    -12.5290      5.0020      1.5900     78.3900
     67      2.7250    -11.7960      4.4180      1.7700     78.3900
     68      2.4510    -10.9110      5.0350      0.0100     78.3900
     69      1.8240    -12.4430      4.3480      0.0100     78.3900
     70      3.0650    -11.3070      3.0020      1.7700     78.3900
     71      2.2140    -10.7400      2.5640      0.0100     78.3900
     72      4.2080    -10.4080      3.0440      1.5900     78.3900
     73      5.0150    -10.6160      1.8930      1.7700     78.3900
     74      5.0390     -9.6310      1.3700      0.0100     78.3900
     75      6.4120    -11.0150      2.2480      1.6800     78.3900
     76      6.6550    -11.7220      3.4050      1.7700     78.3900
     77      5.7840    -11.9730      4.0110      0.0100     78.3900
     78      7.8980    -12.0630      3.7710      1.7700     78.3900
     79      8.1090    -12.6000      4.6940      0.0100     78.3900
     80      7.4730    -10.7050      1.3990      1.7700     78.3900
     81      7.2420    -10.1250      0.3280      1.5900     78.3900
     82      8.7380    -11.0340      1.7550      1.6800     78.3900
     83      8.9690    -11.7020      2.9030      1.7700     78.3900
     84     10.2170    -12.0360      3.2340      1.6800     78.3900
     85     10.9790    -11.7870      2.6300      0.0100     78.3900
     86     10.4040    -12.4860      4.1120      0.0100     78.3900
     87      4.3010    -11.6240      0.9960      1.7700     78.3900
     88      5.0070    -12.2870      0.4600      0.0100     78.3900
     89      3.4750    -10.9510      0.0590      1.5900     78.3900
     90      2.9380    -11.6150     -0.4070      0.0100     78.3900
     91      3.4790    -12.4070      2.0160      1.7700     78.3900
     92      4.1380    -13.0960      2.5860      0.0100     78.3900
     93      2.3040    -13.0520      1.4940      1.5900     78.3900
     94      2.3310    -14.5200      0.9390      2.1000     78.3900
     95      0.9580    -15.0710      1.0360      1.5900     78.3900
     96      2.9740    -14.5280     -0.3920      1.5900     78.3900
     97      3.2490    -15.3010      1.9430      1.5900     78.3900
     98      3.1580    -16.7380      2.0360      1.7700     78.3900
     99      3.1360    -17.2130      1.0240      0.0100     78.3900
    100      2.2250    -17.0250      2.5700      0.0100     78.3900
    101      4.3490    -17.3440      2.7950      1.7700     78.3900
    102      4.1770    -18.4350      2.9170      0.0100     78.3900
    103      5.5590    -17.1700      2.0210      1.5900     78.3900
    104      6.4490    -16.3010      2.6830      1.7700     78.3900
    105      7.1930    -16.9740      3.1610      0.0100     78.3900
    106      7.0910    -15.3500      1.7370      1.6800     78.3900
    107      6.3490    -14.7710      0.7390      1.7700     78.3900
    108      5.2970    -15.0650      0.7190      0.0100     78.3900
    109      8.4460    -15.1350      1.8270      1.7700     78.3900
    110      9.1490    -15.6970      2.6570      1.5900     78.3900
    111      8.9660    -14.2790      0.8930      1.6800     78.3900
    112      9.9730    -14.1870      0.9030      0.0100     78.3900
    113      8.2970    -13.6970     -0.1600      1.7700     78.3900
    114      8.9100    -13.0000     -0.9660      1.5900     78.3900
    115      6.8900    -13.9780     -0.1980      1.7700     78.3900
    116      6.2930    -13.5670     -1.0090      0.0100     78.3900
    117      5.6730    -15.6180      3.7660      1.7700     78.3900
    118      5.1360    -14.7270      3.3850      0.0100     78.3900
    119      6.5380    -15.2490      4.8060      1.5900     78.3900
    120      6.9140    -16.0690      5.1520      0.0100     78.3900
    121      4.6790    -16.7160      4.1640      1.7700     78.3900
    122      3.7700    -16.2130      4.5710      0.0100     78.3900
    123      5.2250    -17.6980      5.0880      1.5900     78.3900
    124      4.1950    -18.5990      5.8910      2.1000     78.3900
    125      2.9670    -17.8360      6.1960      1.5900     78.3900
    126      3.9940    -19.8760      5.1740      1.5900     78.3900
    127      4.9140    -18.9270      7.2520      1.5900     78.3900
    128      6.1150    -19.7320      7.3020      1.7700     78.3900
    129      6.7080    -19.6510      6.3650      0.0100     78.3900
    130      5.8400    -20.8040      7.4210      0.0100     78.3900
    131      7.0450    -19.2790      8.4490      1.7700     78.3900
    132      7.4870    -18.2940      8.1900      0.0100     78.3900
    133      6.3160    -19.1520      9.7010      1.5900     78.3900
    134      6.6270    -20.2270     10.5630      1.7700     78.3900
    135      7.2690    -19.7800     11.3590      0.0100     78.3900
    136      5.3950    -20.8380     11.1270      1.6800     78.3900
    137      4.2460    -20.9270     10.3700      1.7700     78.3900
    138      4.3130    -20.5060      9.3620      0.0100     78.3900
    139      5.4330    -21.3250     12.4140      1.7700     78.3900
    140      6.4390    -21.2700     13.1150      1.5900     78.3900
    141      4.2560    -21.8650     12.8630      1.6800     78.3900
    142      4.2720    -22.2250     13.8080      0.0100     78.3900
    143      3.0590    -21.9490     12.1880      1.7700     78.3900
    144      2.0700    -22.4330     12.7390      1.5900     78.3900
    145      3.1030    -21.4470     10.8460      1.7700     78.3900
    146      2.1980    -21.4980     10.2470      0.0100     78.3900
    147      7.4490    -21.2120      9.7620      1.7700     78.3900
    148      6.7780    -21.8930      9.1970      0.0100     78.3900
    149      8.3170    -21.9740     10.5800      1.5900     78.3900
    150      9.0670    -21.4110     10.8480      0.0100     78.3900
    151      8.1710    -20.2830      8.7740      1.7700     78.3900
    152      8.4020    -20.8510      7.8390      0.0100     78.3900
    153      9.3450    -19.5950      9.2790      1.5900     78.3900
    154     10.7270    -20.3380      9.3590      2.1000     78.3900
    155     10.8680    -20.8100     10.7590      1.5900     78.3900
    156     10.7910    -21.3620      8.2980      1.5900     78.3900
    157     11.8010    -19.2200      9.0810      1.5900     78.3900
    158     12.2070    -18.8960      7.7320      1.7700     78.3900
    159     12.4490    -19.8070      7.1450      0.0100     78.3900
    160     13.1540    -18.3070      7.7730      0.0100     78.3900
    161     11.1580    -18.0700      6.9860      1.7700     78.3900
    162     10.1930    -18.6170      6.9060      0.0100     78.3900
    163     10.8960    -16.8540      7.7370      1.5900     78.3900
    164     10.6950    -15.7870      6.8270      1.7700     78.3900
    165      9.6930    -15.3680      7.0760      0.0100     78.3900
    166     11.7040    -14.7050      6.9750      1.6800     78.3900
    167     12.8860    -14.9680      7.6260      1.7700     78.3900
    168     13.0270    -15.9850      8.0000      0.0100     78.3900
    169     13.8060    -14.0160      7.8140      1.7700     78.3900
    170     14.7410    -14.2110      8.3370      0.0100     78.3900
    171     11.4710    -13.4310      6.4540      1.7700     78.3900
    172     10.4260    -13.2150      5.8230      1.5900     78.3900
    173     12.4020    -12.4580      6.6220      1.6800     78.3900
    174     13.5360    -12.7200      7.2950      1.7700     78.3900
    175     14.4220    -11.7440      7.4820      1.6800     78.3900
    176     14.2320    -10.8340      7.1200      0.0100     78.3900
    177     15.2970    -11.9050      7.9400      0.0100     78.3900
    178     10.6400    -16.3820      5.4340      1.7700     78.3900
    179     10.9960    -15.6870      4.6450      0.0100     78.3900
    180      9.3110    -16.7820      5.1640      1.5900     78.3900
    181      9.2230    -16.7840      4.2000      0.0100     78.3900
    182     11.5480    -17.5990      5.5730      1.7700     78.3900
    183     12.6190    -17.2800      5.6070      0.0100     78.3900
    184     11.2780    -18.6450      4.6000      1.5900     78.3900
    185     12.4360    -19.3270      3.8010      2.1000     78.3900
    186     13.6060    -19.5210      4.6800      1.5900     78.3900
    187     11.8780    -20.5280      3.1430      1.5900     78.3900
    188     12.7930    -18.2590      2.7070      1.5900     78.3900
    189     13.8430    -18.5720      1.7610      1.7700     78.3900
    190     13.8030    -19.6410      1.4250      0.0100     78.3900
    191     14.8360    -18.4100      2.2400      0.0100     78.3900
    192     13.7710    -17.6630      0.5240      1.7700     78.3900
    193     14.6530    -17.8700     -0.1280      0.0100     78.3900
    194     12.5770    -17.9500     -0.2530      1.5900     78.3900
    195     11.7520    -16.8000     -0.2990      1.7700     78.3900
    196     12.0090    -16.3000     -1.2620      0.0100     78.3900
    197     10.3260    -17.1850     -0.2360      1.6800     78.3900
    198      9.8900    -17.9560      0.8150      1.7700     78.3900
    199     10.6380    -18.1970      1.5750      0.0100     78.3900
    200      8.6210    -18.3850      0.8770      1.7700     78.3900
    201      8.2490    -19.0040      1.6910      0.0100     78.3900
    202      9.4420    -16.7980     -1.2390      1.7700     78.3900
    203      9.8660    -16.1090     -2.1810      1.5900     78.3900
    204      8.1520    -17.2130     -1.1870      1.6800     78.3900
    205      7.7480    -18.0270     -0.1960      1.7700     78.3900
    206      6.5160    -18.5230     -0.2420      1.6800     78.3900
    207      5.9140    -18.1270     -0.9320      0.0100     78.3900
    208      6.0870    -18.8160      0.6110      0.0100     78.3900
    209     12.1900    -15.8990      0.8370      1.7700     78.3900
    210     11.7580    -16.2240      1.8080      0.0100     78.3900
    211     11.9050    -14.5370      0.6090      1.5900     78.3900
    212     12.6540    -14.2210      0.0800      0.0100     78.3900
    213     13.6960    -16.1480      0.8130      1.7700     78.3900
    214     14.0920    -15.9750      1.8450      0.0100     78.3900
    215     14.3920    -15.3780     -0.2150      1.5900     78.3900
    216     15.8020    -14.7790      0.1850      2.1000     78.3900
    217     15.5690    -13.6660      1.1250      1.5900     78.3900
    218     16.6840    -15.8700      0.6470      1.5900     78.3900
    219     16.3410    -14.2040     -1.1770      1.5900     78.3900
    220     17.3240    -14.9020     -1.9740      1.7700     78.3900
    221     17.2120    -16.0100     -1.9090      0.0100     78.3900
    222     18.3430    -14.6450     -1.6080      0.0100     78.3900
    223     17.2320    -14.5100     -3.4560      1.7700     78.3900
    224     18.0720    -14.9530     -4.0350      0.0100     78.3900
    225     16.0060    -15.0640     -4.0120      1.5900     78.3900
    226     15.4160    -14.1180     -4.8940      1.7700     78.3900
    227     15.2980    -14.6610     -5.8620      0.0100     78.3900
    228     14.0740    -13.6530     -4.4350      1.6800     78.3900
    229     13.6450    -13.9150     -3.1510      1.7700     78.3900
    230     14.3530    -14.4390     -2.5060      0.0100     78.3900
    231     12.4250    -13.5490     -2.7350      1.7700     78.3900
    232     12.0590    -13.7630     -1.7340      0.0100     78.3900
    233     13.2350    -12.9730     -5.3190      1.7700     78.3900
    234     13.6270    -12.7560     -6.4760      1.5900     78.3900
    235     12.0050    -12.5820     -4.9080      1.6800     78.3900
    236     11.5870    -12.8650     -3.6620      1.7700     78.3900
    237     10.3550    -12.5100     -3.3050      1.6800     78.3900
    238      9.9580    -12.7650     -2.4180      0.0100     78.3900
    239      9.7850    -12.0160     -3.9620      0.0100     78.3900
    240     16.4060    -12.9800     -5.0840      1.7700     78.3900
    241     15.9050    -12.0000     -5.2300      0.0100     78.3900
    242     17.2590    -13.2530     -6.1820      1.5900     78.3900
    243     17.9690    -12.5920     -6.1730      0.0100     78.3900
    244     17.1670    -13.0030     -3.7630      1.7700     78.3900
    245     16.5480    -12.5330     -2.9630      0.0100     78.3900
    246     18.5030    -12.4600     -3.8340      1.5900     78.3900
    247     18.7690    -10.9370     -3.5400      2.1000     78.3900
    248     18.3100    -10.6430     -2.1680      1.5900     78.3900
    249     20.1880    -10.6490     -3.8450      1.5900     78.3900
    250     17.8830    -10.1430     -4.5690      1.5900     78.3900
    251     17.4730     -8.7700     -4.3120      1.7700     78.3900
    252     18.1420     -8.0640     -4.8580      0.0100     78.3900
    253     17.5330     -8.5060     -3.2280      0.0100     78.3900
    254     16.0200     -8.4890     -4.7600      1.7700     78.3900
    255     15.9850     -8.2500     -5.8440      0.0100     78.3900
    256     15.2030     -9.6840     -4.5740      1.5900     78.3900
    257     13.9640     -9.3420     -3.9940      1.7700     78.3900
    258     13.1730     -9.8300     -4.6100      0.0100     78.3900
    259     13.8760     -9.8370     -2.6130      1.6800     78.3900
    260     12.7320     -9.9400     -1.8720      1.7700     78.3900
    261      9.2940     -9.6320     -1.5870      1.6800     78.3900
    262      9.0170     -9.2440     -2.4680      0.0100     78.3900
    263      8.5950     -9.8320     -0.8960      0.0100     78.3900
    264     11.4960     -9.6030     -2.2840      1.6800     78.3900
    265     10.5700     -9.8880     -1.3720      1.7700     78.3900
    266     10.8540    -10.4420     -0.1570      1.6800     78.3900
    267     10.0910    -10.6560      0.4670      0.0100     78.3900
    268     12.1120    -10.7860      0.2980      1.7700     78.3900
    269     12.2500    -11.2810      1.4170      1.5900     78.3900
    270     13.1180    -10.4830     -0.6620      1.7700     78.3900
    271     14.4950    -10.6880     -0.6280      1.6800     78.3900
    272     14.9000    -10.3070     -1.8170      1.7700     78.3900
    273     15.9340    -10.3380     -2.1720      0.0100     78.3900
    274     13.8290     -7.8410     -4.0880      1.7700     78.3900
    275     13.2010     -7.4210     -3.2760      0.0100     78.3900
    276     13.2860     -7.4750     -5.3450      1.5900     78.3900
    277     13.3070     -6.5110     -5.3820      0.0100     78.3900
    278     15.2820     -7.3950     -3.9570      1.7700     78.3900
    279     15.6170     -7.5020     -2.8980      0.0100     78.3900
    280     15.5600     -6.0850     -4.5100      1.5900     78.3900
    281     15.5650     -4.8280     -3.5560      2.1000     78.3900
    282     16.3150     -5.1880     -2.3330      1.5900     78.3900
    283     16.0410     -3.6530     -4.3170      1.5900     78.3900
    284     14.0510     -4.6140     -3.1810      1.5900     78.3900
    285     13.1060     -4.1210     -4.1550      1.7700     78.3900
    286     13.1580     -4.7110     -5.0960      0.0100     78.3900
    287     13.3250     -3.0570     -4.4000      0.0100     78.3900
    288     11.6650     -4.1940     -3.6290      1.7700     78.3900
    289     10.9400     -3.8590     -4.4020      0.0100     78.3900
    290     11.3260     -5.5700     -3.2850      1.5900     78.3900
    291     10.5470     -5.5740     -2.0980      1.7700     78.3900
    292      9.6240     -6.1530     -2.3180      0.0100     78.3900
    293     11.2600     -6.2240     -0.9890      1.6800     78.3900
    294     10.6960     -6.7200      0.1540      1.7700     78.3900
    295      7.9060     -7.2900      2.1300      1.6800     78.3900
    296      7.1700     -6.8800      1.5950      0.0100     78.3900
    297      7.7050     -7.6460      3.0460      0.0100     78.3900
    298      9.3900     -6.6830      0.4710      1.6800     78.3900
    299      9.1330     -7.2610      1.6420      1.7700     78.3900
    300     10.1040     -7.8430      2.4150      1.6800     78.3900
    301      9.8280     -8.2690      3.2870      0.0100     78.3900
    302     11.4590     -7.9080      2.1100      1.7700     78.3900
    303     12.2770     -8.4620      2.8500      1.5900     78.3900
    304     11.7390     -7.2620      0.8780      1.7700     78.3900
    305     12.9430     -7.0820      0.2170      1.6800     78.3900
    306     12.6110     -6.4560     -0.8840      1.7700     78.3900
    307     13.3060     -6.1500     -1.6640      0.0100     78.3900
    308     10.1890     -4.1380     -1.7850      1.7700     78.3900
    309     10.0640     -3.9600     -0.7000      0.0100     78.3900
    310      9.0000     -3.7810     -2.4580      1.5900     78.3900
    311      8.8460     -2.8450     -2.2800      0.0100     78.3900
    312     11.3980     -3.3970     -2.3450      1.7700     78.3900
    313     12.2780     -3.5670     -1.6860      0.0100     78.3900
    314     11.1830     -2.0020     -2.6660      1.5900     78.3900
    315     11.5870     -0.8980     -1.6150      2.1000     78.3900
    316     12.9090     -1.2130     -1.0310      1.5900     78.3900
    317     11.4360      0.4420     -2.2200      1.5900     78.3900
    318     10.4980     -1.0740     -0.4950      1.5900     78.3900
    319      9.1100     -0.7550     -0.7540      1.7700     78.3900
    320      8.7190     -1.3090     -1.6380      0.0100     78.3900
    321      8.9970      0.3330     -0.9670      0.0100     78.3900
    322      8.2240     -1.0830      0.4590      1.7700     78.3900
    323      7.1690     -0.7860      0.2790      0.0100     78.3900
    324      8.2310     -2.5210      0.7140      1.5900     78.3900
    325      8.2400     -2.7510      2.1210      1.7700     78.3900
    326      7.3530     -3.3960      2.3340      0.0100     78.3900
    327      9.4880     -3.4440      2.5620      1.6800     78.3900
    328     10.6240     -3.4260      1.7830      1.7700     78.3900
    329     10.5460     -2.8590      0.8600      0.0100     78.3900
    330      9.4810     -4.1030      3.7710      1.7700     78.3900
    331      8.4980     -4.1280      4.5040      1.5900     78.3900
    332     10.6560     -4.7310      4.0960      1.6800     78.3900
    333     10.6540     -5.2210      4.9840      0.0100     78.3900
    334     11.8180     -4.7720      3.3560      1.7700     78.3900
    335     12.7990     -5.3760      3.7820      1.5900     78.3900
    336     11.7480     -4.0730      2.1110      1.7700     78.3900
    337     12.6220     -4.0680      1.4640      0.0100     78.3900
    338      8.0550     -1.4020      2.8030      1.7700     78.3900
    339      8.6040     -1.3540      3.7690      0.0100     78.3900
    340      6.6750     -1.1400      3.0150      1.5900     78.3900
    341      6.5670     -0.2290      3.3390      0.0100     78.3900
    342      8.6820     -0.4590      1.7840      1.7700     78.3900
    343      9.7870     -0.5260      1.8340      0.0100     78.3900
    344      8.2540      0.9100      1.8950      1.5900     78.3900
    345      8.5730      1.2810      2.7350      0.0100     78.3900

     ----------------------------
     INPUT FOR TESSERA DEFINITION
     ----------------------------
     NTSALL  =        60     MTHALL  =         4
     MTHAUT  =         0     AUTFRE  =    2.0000
     NTSFRZ  =        60     KEEPSM  =         0
     AREAKP  =   10.0000     BONDRY  =    1.0000
     AREATL  =    0.0100

     SPHERE     INITS       METHOD
          1        60       FIXPVA
          2        60       FIXPVA
          3        60       FIXPVA
          4        60       FIXPVA
          5        60       FIXPVA
          6        60       FIXPVA
          7        60       FIXPVA
          8        60       FIXPVA
          9        60       FIXPVA
         10        60       FIXPVA
         11        60       FIXPVA
         12        60       FIXPVA
         13        60       FIXPVA
         14        60       FIXPVA
         15        60       FIXPVA
         16        60       FIXPVA
         17        60       FIXPVA
         18        60       FIXPVA
         19        60       FIXPVA
         20        60       FIXPVA
         21        60       FIXPVA
         22        60       FIXPVA
         23        60       FIXPVA
         24        60       FIXPVA
         25        60       FIXPVA
         26        60       FIXPVA
         27        60       FIXPVA
         28        60       FIXPVA
         29        60       FIXPVA
         30        60       FIXPVA
         31        60       FIXPVA
         32        60       FIXPVA
         33        60       FIXPVA
         34        60       FIXPVA
         35        60       FIXPVA
         36        60       FIXPVA
         37        60       FIXPVA
         38        60       FIXPVA
         39        60       FIXPVA
         40        60       FIXPVA
         41        60       FIXPVA
         42        60       FIXPVA
         43        60       FIXPVA
         44        60       FIXPVA
         45        60       FIXPVA
         46        60       FIXPVA
         47        60       FIXPVA
         48        60       FIXPVA
         49        60       FIXPVA
         50        60       FIXPVA
         51        60       FIXPVA
         52        60       FIXPVA
         53        60       FIXPVA
         54        60       FIXPVA
         55        60       FIXPVA
         56        60       FIXPVA
         57        60       FIXPVA
         58        60       FIXPVA
         59        60       FIXPVA
         60        60       FIXPVA
         61        60       FIXPVA
         62        60       FIXPVA
         63        60       FIXPVA
         64        60       FIXPVA
         65        60       FIXPVA
         66        60       FIXPVA
         67        60       FIXPVA
         68        60       FIXPVA
         69        60       FIXPVA
         70        60       FIXPVA
         71        60       FIXPVA
         72        60       FIXPVA
         73        60       FIXPVA
         74        60       FIXPVA
         75        60       FIXPVA
         76        60       FIXPVA
         77        60       FIXPVA
         78        60       FIXPVA
         79        60       FIXPVA
         80        60       FIXPVA
         81        60       FIXPVA
         82        60       FIXPVA
         83        60       FIXPVA
         84        60       FIXPVA
         85        60       FIXPVA
         86        60       FIXPVA
         87        60       FIXPVA
         88        60       FIXPVA
         89        60       FIXPVA
         90        60       FIXPVA
         91        60       FIXPVA
         92        60       FIXPVA
         93        60       FIXPVA
         94        60       FIXPVA
         95        60       FIXPVA
         96        60       FIXPVA
         97        60       FIXPVA
         98        60       FIXPVA
         99        60       FIXPVA
        100        60       FIXPVA
        101        60       FIXPVA
        102        60       FIXPVA
        103        60       FIXPVA
        104        60       FIXPVA
        105        60       FIXPVA
        106        60       FIXPVA
        107        60       FIXPVA
        108        60       FIXPVA
        109        60       FIXPVA
        110        60       FIXPVA
        111        60       FIXPVA
        112        60       FIXPVA
        113        60       FIXPVA
        114        60       FIXPVA
        115        60       FIXPVA
        116        60       FIXPVA
        117        60       FIXPVA
        118        60       FIXPVA
        119        60       FIXPVA
        120        60       FIXPVA
        121        60       FIXPVA
        122        60       FIXPVA
        123        60       FIXPVA
        124        60       FIXPVA
        125        60       FIXPVA
        126        60       FIXPVA
        127        60       FIXPVA
        128        60       FIXPVA
        129        60       FIXPVA
        130        60       FIXPVA
        131        60       FIXPVA
        132        60       FIXPVA
        133        60       FIXPVA
        134        60       FIXPVA
        135        60       FIXPVA
        136        60       FIXPVA
        137        60       FIXPVA
        138        60       FIXPVA
        139        60       FIXPVA
        140        60       FIXPVA
        141        60       FIXPVA
        142        60       FIXPVA
        143        60       FIXPVA
        144        60       FIXPVA
        145        60       FIXPVA
        146        60       FIXPVA
        147        60       FIXPVA
        148        60       FIXPVA
        149        60       FIXPVA
        150        60       FIXPVA
        151        60       FIXPVA
        152        60       FIXPVA
        153        60       FIXPVA
        154        60       FIXPVA
        155        60       FIXPVA
        156        60       FIXPVA
        157        60       FIXPVA
        158        60       FIXPVA
        159        60       FIXPVA
        160        60       FIXPVA
        161        60       FIXPVA
        162        60       FIXPVA
        163        60       FIXPVA
        164        60       FIXPVA
        165        60       FIXPVA
        166        60       FIXPVA
        167        60       FIXPVA
        168        60       FIXPVA
        169        60       FIXPVA
        170        60       FIXPVA
        171        60       FIXPVA
        172        60       FIXPVA
        173        60       FIXPVA
        174        60       FIXPVA
        175        60       FIXPVA
        176        60       FIXPVA
        177        60       FIXPVA
        178        60       FIXPVA
        179        60       FIXPVA
        180        60       FIXPVA
        181        60       FIXPVA
        182        60       FIXPVA
        183        60       FIXPVA
        184        60       FIXPVA
        185        60       FIXPVA
        186        60       FIXPVA
        187        60       FIXPVA
        188        60       FIXPVA
        189        60       FIXPVA
        190        60       FIXPVA
        191        60       FIXPVA
        192        60       FIXPVA
        193        60       FIXPVA
        194        60       FIXPVA
        195        60       FIXPVA
        196        60       FIXPVA
        197        60       FIXPVA
        198        60       FIXPVA
        199        60       FIXPVA
        200        60       FIXPVA
        201        60       FIXPVA
        202        60       FIXPVA
        203        60       FIXPVA
        204        60       FIXPVA
        205        60       FIXPVA
        206        60       FIXPVA
        207        60       FIXPVA
        208        60       FIXPVA
        209        60       FIXPVA
        210        60       FIXPVA
        211        60       FIXPVA
        212        60       FIXPVA
        213        60       FIXPVA
        214        60       FIXPVA
        215        60       FIXPVA
        216        60       FIXPVA
        217        60       FIXPVA
        218        60       FIXPVA
        219        60       FIXPVA
        220        60       FIXPVA
        221        60       FIXPVA
        222        60       FIXPVA
        223        60       FIXPVA
        224        60       FIXPVA
        225        60       FIXPVA
        226        60       FIXPVA
        227        60       FIXPVA
        228        60       FIXPVA
        229        60       FIXPVA
        230        60       FIXPVA
        231        60       FIXPVA
        232        60       FIXPVA
        233        60       FIXPVA
        234        60       FIXPVA
        235        60       FIXPVA
        236        60       FIXPVA
        237        60       FIXPVA
        238        60       FIXPVA
        239        60       FIXPVA
        240        60       FIXPVA
        241        60       FIXPVA
        242        60       FIXPVA
        243        60       FIXPVA
        244        60       FIXPVA
        245        60       FIXPVA
        246        60       FIXPVA
        247        60       FIXPVA
        248        60       FIXPVA
        249        60       FIXPVA
        250        60       FIXPVA
        251        60       FIXPVA
        252        60       FIXPVA
        253        60       FIXPVA
        254        60       FIXPVA
        255        60       FIXPVA
        256        60       FIXPVA
        257        60       FIXPVA
        258        60       FIXPVA
        259        60       FIXPVA
        260        60       FIXPVA
        261        60       FIXPVA
        262        60       FIXPVA
        263        60       FIXPVA
        264        60       FIXPVA
        265        60       FIXPVA
        266        60       FIXPVA
        267        60       FIXPVA
        268        60       FIXPVA
        269        60       FIXPVA
        270        60       FIXPVA
        271        60       FIXPVA
        272        60       FIXPVA
        273        60       FIXPVA
        274        60       FIXPVA
        275        60       FIXPVA
        276        60       FIXPVA
        277        60       FIXPVA
        278        60       FIXPVA
        279        60       FIXPVA
        280        60       FIXPVA
        281        60       FIXPVA
        282        60       FIXPVA
        283        60       FIXPVA
        284        60       FIXPVA
        285        60       FIXPVA
        286        60       FIXPVA
        287        60       FIXPVA
        288        60       FIXPVA
        289        60       FIXPVA
        290        60       FIXPVA
        291        60       FIXPVA
        292        60       FIXPVA
        293        60       FIXPVA
        294        60       FIXPVA
        295        60       FIXPVA
        296        60       FIXPVA
        297        60       FIXPVA
        298        60       FIXPVA
        299        60       FIXPVA
        300        60       FIXPVA
        301        60       FIXPVA
        302        60       FIXPVA
        303        60       FIXPVA
        304        60       FIXPVA
        305        60       FIXPVA
        306        60       FIXPVA
        307        60       FIXPVA
        308        60       FIXPVA
        309        60       FIXPVA
        310        60       FIXPVA
        311        60       FIXPVA
        312        60       FIXPVA
        313        60       FIXPVA
        314        60       FIXPVA
        315        60       FIXPVA
        316        60       FIXPVA
        317        60       FIXPVA
        318        60       FIXPVA
        319        60       FIXPVA
        320        60       FIXPVA
        321        60       FIXPVA
        322        60       FIXPVA
        323        60       FIXPVA
        324        60       FIXPVA
        325        60       FIXPVA
        326        60       FIXPVA
        327        60       FIXPVA
        328        60       FIXPVA
        329        60       FIXPVA
        330        60       FIXPVA
        331        60       FIXPVA
        332        60       FIXPVA
        333        60       FIXPVA
        334        60       FIXPVA
        335        60       FIXPVA
        336        60       FIXPVA
        337        60       FIXPVA
        338        60       FIXPVA
        339        60       FIXPVA
        340        60       FIXPVA
        341        60       FIXPVA
        342        60       FIXPVA
        343        60       FIXPVA
        344        60       FIXPVA
        345        60       FIXPVA

     ------------------------------
      FIXPVA TESSELLATION FOR PCM
         PEIFENG SU AND HUI LI
     UNIVERSITY OF NEBRASKA-LINCOLN
     ------------------------------


 PCM DIMENSIONS: MXSP=   345, MXTS=     13800, MEMORY=        141798

     INPUT FOR CAVITY DEFINITION 
     ---------------------------
   ATOM               COORDINATES                RADIUS       EPS
      1     12.4830    -11.4170     13.1310      0.0100     78.3900
      2     11.8260    -10.8930     12.6300      1.5900     78.3900
      3     10.7430    -10.6180     13.5320      1.7700     78.3900
      4     11.1390    -10.0730     14.4190      0.0100     78.3900
      5     10.3070    -11.5760     13.8870      0.0100     78.3900
      6      9.6230     -9.7790     12.9050      1.7700     78.3900
      7      8.8040     -9.5980     13.6360      0.0100     78.3900
      8     10.1400     -8.4740     12.5070      1.5900     78.3900
      9      9.5330     -8.0820     11.2880      1.7700     78.3900
     10      9.0570     -7.0910     11.4680      0.0100     78.3900
     11     10.5280     -7.9490     10.2180      1.6800     78.3900
     12     11.5690     -7.3710      8.3680      1.7700     78.3900
     13     12.4720     -8.1340      9.0980      1.6800     78.3900
     14     11.8100     -8.4490     10.1870      1.7700     78.3900
     15     12.2040     -9.0440     11.0160      0.0100     78.3900
     16     10.5660     -6.0640      6.6640      1.6800     78.3900
     17      9.4600     -6.0760      7.4150      1.7700     78.3900
     18      8.6060     -5.5290      7.0000      0.0100     78.3900
     19      9.2670     -6.6100      8.6270      1.6800     78.3900
     20     10.3670     -7.2580      9.0430      1.7700     78.3900
     21     11.6660     -6.7190      7.1190      1.7700     78.3900
     22     12.7900     -6.7060      6.3790      1.6800     78.3900
     23     13.6410     -7.1190      6.7130      0.0100     78.3900
     24     12.8050     -6.2600      5.4800      0.0100     78.3900
     25      8.4620     -9.1000     10.9630      1.7700     78.3900
     26      8.3290     -9.2440      9.8720      0.0100     78.3900
     27      7.2410     -8.6990     11.5480      1.5900     78.3900
     28      6.6180     -9.4190     11.3980      0.0100     78.3900
     29      9.0100    -10.3600     11.6240      1.7700     78.3900
     30      9.8640    -10.7580     11.0320      0.0100     78.3900
     31      8.0140    -11.3640     11.9550      1.5900     78.3900
     32      7.7680    -12.5440     10.9280      2.1000     78.3900
     33      9.0670    -13.0440     10.4370      1.5900     78.3900
     34      6.8720    -13.5240     11.5770      1.5900     78.3900
     35      6.9850    -11.8350      9.7520      1.5900     78.3900
     36      5.6920    -11.2200      9.9920      1.7700     78.3900
     37      5.7030    -10.5750     10.8960      0.0100     78.3900
     38      4.9180    -11.9960     10.1760      0.0100     78.3900
     39      5.2220    -10.3700      8.8000      1.7700     78.3900
     40      4.2420     -9.8880      9.0090      0.0100     78.3900
     41      6.1780     -9.3050      8.5400      1.5900     78.3900
     42      6.2990     -9.1150      7.1360      1.7700     78.3900
     43      6.0160     -8.0510      6.9660      0.0100     78.3900
     44      7.6840     -9.3250      6.6340      1.6800     78.3900
     45      8.5590    -10.1170      7.3420      1.7700     78.3900
     46      8.1800    -10.5670      8.2600      0.0100     78.3900
     47      9.8210    -10.2930      6.9390      1.7700     78.3900
     48     10.5350    -10.8820      7.5110      0.0100     78.3900
     49      8.0880     -8.7660      5.4210      1.7700     78.3900
     50      7.2730     -8.1090      4.7530      1.5900     78.3900
     51      9.3580     -8.9430      4.9930      1.6800     78.3900
     52     10.2240     -9.6690      5.7250      1.7700     78.3900
     53     11.4880     -9.7960      5.3180      1.6800     78.3900
     54     11.7760     -9.3750      4.4550      0.0100     78.3900
     55     12.0710    -10.4920      5.7390      0.0100     78.3900
     56      5.2820    -10.0080      6.4590      1.7700     78.3900
     57      5.6320    -10.3870      5.4760      0.0100     78.3900
     58      4.0690     -9.3020      6.2980      1.5900     78.3900
     59      3.4440     -9.9320      5.9210      0.0100     78.3900
     60      5.1250    -11.1370      7.4700      1.7700     78.3900
     61      6.0030    -11.8230      7.4200      0.0100     78.3900
     62      3.8610    -11.8370      7.4020      1.5900     78.3900
     63      3.7300    -13.0990      6.4730      2.1000     78.3900
     64      4.8760    -13.9640      6.7780      1.5900     78.3900
     65      2.3810    -13.6770      6.6730      1.5900     78.3900
     66      3.8240    -12.5290      5.0020      1.5900     78.3900
     67      2.7250    -11.7960      4.4180      1.7700     78.3900
     68      2.4510    -10.9110      5.0350      0.0100     78.3900
     69      1.8240    -12.4430      4.3480      0.0100     78.3900
     70      3.0650    -11.3070      3.0020      1.7700     78.3900
     71      2.2140    -10.7400      2.5640      0.0100     78.3900
     72      4.2080    -10.4080      3.0440      1.5900     78.3900
     73      5.0150    -10.6160      1.8930      1.7700     78.3900
     74      5.0390     -9.6310      1.3700      0.0100     78.3900
     75      6.4120    -11.0150      2.2480      1.6800     78.3900
     76      6.6550    -11.7220      3.4050      1.7700     78.3900
     77      5.7840    -11.9730      4.0110      0.0100     78.3900
     78      7.8980    -12.0630      3.7710      1.7700     78.3900
     79      8.1090    -12.6000      4.6940      0.0100     78.3900
     80      7.4730    -10.7050      1.3990      1.7700     78.3900
     81      7.2420    -10.1250      0.3280      1.5900     78.3900
     82      8.7380    -11.0340      1.7550      1.6800     78.3900
     83      8.9690    -11.7020      2.9030      1.7700     78.3900
     84     10.2170    -12.0360      3.2340      1.6800     78.3900
     85     10.9790    -11.7870      2.6300      0.0100     78.3900
     86     10.4040    -12.4860      4.1120      0.0100     78.3900
     87      4.3010    -11.6240      0.9960      1.7700     78.3900
     88      5.0070    -12.2870      0.4600      0.0100     78.3900
     89      3.4750    -10.9510      0.0590      1.5900     78.3900
     90      2.9380    -11.6150     -0.4070      0.0100     78.3900
     91      3.4790    -12.4070      2.0160      1.7700     78.3900
     92      4.1380    -13.0960      2.5860      0.0100     78.3900
     93      2.3040    -13.0520      1.4940      1.5900     78.3900
     94      2.3310    -14.5200      0.9390      2.1000     78.3900
     95      0.9580    -15.0710      1.0360      1.5900     78.3900
     96      2.9740    -14.5280     -0.3920      1.5900     78.3900
     97      3.2490    -15.3010      1.9430      1.5900     78.3900
     98      3.1580    -16.7380      2.0360      1.7700     78.3900
     99      3.1360    -17.2130      1.0240      0.0100     78.3900
    100      2.2250    -17.0250      2.5700      0.0100     78.3900
    101      4.3490    -17.3440      2.7950      1.7700     78.3900
    102      4.1770    -18.4350      2.9170      0.0100     78.3900
    103      5.5590    -17.1700      2.0210      1.5900     78.3900
    104      6.4490    -16.3010      2.6830      1.7700     78.3900
    105      7.1930    -16.9740      3.1610      0.0100     78.3900
    106      7.0910    -15.3500      1.7370      1.6800     78.3900
    107      6.3490    -14.7710      0.7390      1.7700     78.3900
    108      5.2970    -15.0650      0.7190      0.0100     78.3900
    109      8.4460    -15.1350      1.8270      1.7700     78.3900
    110      9.1490    -15.6970      2.6570      1.5900     78.3900
    111      8.9660    -14.2790      0.8930      1.6800     78.3900
    112      9.9730    -14.1870      0.9030      0.0100     78.3900
    113      8.2970    -13.6970     -0.1600      1.7700     78.3900
    114      8.9100    -13.0000     -0.9660      1.5900     78.3900
    115      6.8900    -13.9780     -0.1980      1.7700     78.3900
    116      6.2930    -13.5670     -1.0090      0.0100     78.3900
    117      5.6730    -15.6180      3.7660      1.7700     78.3900
    118      5.1360    -14.7270      3.3850      0.0100     78.3900
    119      6.5380    -15.2490      4.8060      1.5900     78.3900
    120      6.9140    -16.0690      5.1520      0.0100     78.3900
    121      4.6790    -16.7160      4.1640      1.7700     78.3900
    122      3.7700    -16.2130      4.5710      0.0100     78.3900
    123      5.2250    -17.6980      5.0880      1.5900     78.3900
    124      4.1950    -18.5990      5.8910      2.1000     78.3900
    125      2.9670    -17.8360      6.1960      1.5900     78.3900
    126      3.9940    -19.8760      5.1740      1.5900     78.3900
    127      4.9140    -18.9270      7.2520      1.5900     78.3900
    128      6.1150    -19.7320      7.3020      1.7700     78.3900
    129      6.7080    -19.6510      6.3650      0.0100     78.3900
    130      5.8400    -20.8040      7.4210      0.0100     78.3900
    131      7.0450    -19.2790      8.4490      1.7700     78.3900
    132      7.4870    -18.2940      8.1900      0.0100     78.3900
    133      6.3160    -19.1520      9.7010      1.5900     78.3900
    134      6.6270    -20.2270     10.5630      1.7700     78.3900
    135      7.2690    -19.7800     11.3590      0.0100     78.3900
    136      5.3950    -20.8380     11.1270      1.6800     78.3900
    137      4.2460    -20.9270     10.3700      1.7700     78.3900
    138      4.3130    -20.5060      9.3620      0.0100     78.3900
    139      5.4330    -21.3250     12.4140      1.7700     78.3900
    140      6.4390    -21.2700     13.1150      1.5900     78.3900
    141      4.2560    -21.8650     12.8630      1.6800     78.3900
    142      4.2720    -22.2250     13.8080      0.0100     78.3900
    143      3.0590    -21.9490     12.1880      1.7700     78.3900
    144      2.0700    -22.4330     12.7390      1.5900     78.3900
    145      3.1030    -21.4470     10.8460      1.7700     78.3900
    146      2.1980    -21.4980     10.2470      0.0100     78.3900
    147      7.4490    -21.2120      9.7620      1.7700     78.3900
    148      6.7780    -21.8930      9.1970      0.0100     78.3900
    149      8.3170    -21.9740     10.5800      1.5900     78.3900
    150      9.0670    -21.4110     10.8480      0.0100     78.3900
    151      8.1710    -20.2830      8.7740      1.7700     78.3900
    152      8.4020    -20.8510      7.8390      0.0100     78.3900
    153      9.3450    -19.5950      9.2790      1.5900     78.3900
    154     10.7270    -20.3380      9.3590      2.1000     78.3900
    155     10.8680    -20.8100     10.7590      1.5900     78.3900
    156     10.7910    -21.3620      8.2980      1.5900     78.3900
    157     11.8010    -19.2200      9.0810      1.5900     78.3900
    158     12.2070    -18.8960      7.7320      1.7700     78.3900
    159     12.4490    -19.8070      7.1450      0.0100     78.3900
    160     13.1540    -18.3070      7.7730      0.0100     78.3900
    161     11.1580    -18.0700      6.9860      1.7700     78.3900
    162     10.1930    -18.6170      6.9060      0.0100     78.3900
    163     10.8960    -16.8540      7.7370      1.5900     78.3900
    164     10.6950    -15.7870      6.8270      1.7700     78.3900
    165      9.6930    -15.3680      7.0760      0.0100     78.3900
    166     11.7040    -14.7050      6.9750      1.6800     78.3900
    167     12.8860    -14.9680      7.6260      1.7700     78.3900
    168     13.0270    -15.9850      8.0000      0.0100     78.3900
    169     13.8060    -14.0160      7.8140      1.7700     78.3900
    170     14.7410    -14.2110      8.3370      0.0100     78.3900
    171     11.4710    -13.4310      6.4540      1.7700     78.3900
    172     10.4260    -13.2150      5.8230      1.5900     78.3900
    173     12.4020    -12.4580      6.6220      1.6800     78.3900
    174     13.5360    -12.7200      7.2950      1.7700     78.3900
    175     14.4220    -11.7440      7.4820      1.6800     78.3900
    176     14.2320    -10.8340      7.1200      0.0100     78.3900
    177     15.2970    -11.9050      7.9400      0.0100     78.3900
    178     10.6400    -16.3820      5.4340      1.7700     78.3900
    179     10.9960    -15.6870      4.6450      0.0100     78.3900
    180      9.3110    -16.7820      5.1640      1.5900     78.3900
    181      9.2230    -16.7840      4.2000      0.0100     78.3900
    182     11.5480    -17.5990      5.5730      1.7700     78.3900
    183     12.6190    -17.2800      5.6070      0.0100     78.3900
    184     11.2780    -18.6450      4.6000      1.5900     78.3900
    185     12.4360    -19.3270      3.8010      2.1000     78.3900
    186     13.6060    -19.5210      4.6800      1.5900     78.3900
    187     11.8780    -20.5280      3.1430      1.5900     78.3900
    188     12.7930    -18.2590      2.7070      1.5900     78.3900
    189     13.8430    -18.5720      1.7610      1.7700     78.3900
    190     13.8030    -19.6410      1.4250      0.0100     78.3900
    191     14.8360    -18.4100      2.2400      0.0100     78.3900
    192     13.7710    -17.6630      0.5240      1.7700     78.3900
    193     14.6530    -17.8700     -0.1280      0.0100     78.3900
    194     12.5770    -17.9500     -0.2530      1.5900     78.3900
    195     11.7520    -16.8000     -0.2990      1.7700     78.3900
    196     12.0090    -16.3000     -1.2620      0.0100     78.3900
    197     10.3260    -17.1850     -0.2360      1.6800     78.3900
    198      9.8900    -17.9560      0.8150      1.7700     78.3900
    199     10.6380    -18.1970      1.5750      0.0100     78.3900
    200      8.6210    -18.3850      0.8770      1.7700     78.3900
    201      8.2490    -19.0040      1.6910      0.0100     78.3900
    202      9.4420    -16.7980     -1.2390      1.7700     78.3900
    203      9.8660    -16.1090     -2.1810      1.5900     78.3900
    204      8.1520    -17.2130     -1.1870      1.6800     78.3900
    205      7.7480    -18.0270     -0.1960      1.7700     78.3900
    206      6.5160    -18.5230     -0.2420      1.6800     78.3900
    207      5.9140    -18.1270     -0.9320      0.0100     78.3900
    208      6.0870    -18.8160      0.6110      0.0100     78.3900
    209     12.1900    -15.8990      0.8370      1.7700     78.3900
    210     11.7580    -16.2240      1.8080      0.0100     78.3900
    211     11.9050    -14.5370      0.6090      1.5900     78.3900
    212     12.6540    -14.2210      0.0800      0.0100     78.3900
    213     13.6960    -16.1480      0.8130      1.7700     78.3900
    214     14.0920    -15.9750      1.8450      0.0100     78.3900
    215     14.3920    -15.3780     -0.2150      1.5900     78.3900
    216     15.8020    -14.7790      0.1850      2.1000     78.3900
    217     15.5690    -13.6660      1.1250      1.5900     78.3900
    218     16.6840    -15.8700      0.6470      1.5900     78.3900
    219     16.3410    -14.2040     -1.1770      1.5900     78.3900
    220     17.3240    -14.9020     -1.9740      1.7700     78.3900
    221     17.2120    -16.0100     -1.9090      0.0100     78.3900
    222     18.3430    -14.6450     -1.6080      0.0100     78.3900
    223     17.2320    -14.5100     -3.4560      1.7700     78.3900
    224     18.0720    -14.9530     -4.0350      0.0100     78.3900
    225     16.0060    -15.0640     -4.0120      1.5900     78.3900
    226     15.4160    -14.1180     -4.8940      1.7700     78.3900
    227     15.2980    -14.6610     -5.8620      0.0100     78.3900
    228     14.0740    -13.6530     -4.4350      1.6800     78.3900
    229     13.6450    -13.9150     -3.1510      1.7700     78.3900
    230     14.3530    -14.4390     -2.5060      0.0100     78.3900
    231     12.4250    -13.5490     -2.7350      1.7700     78.3900
    232     12.0590    -13.7630     -1.7340      0.0100     78.3900
    233     13.2350    -12.9730     -5.3190      1.7700     78.3900
    234     13.6270    -12.7560     -6.4760      1.5900     78.3900
    235     12.0050    -12.5820     -4.9080      1.6800     78.3900
    236     11.5870    -12.8650     -3.6620      1.7700     78.3900
    237     10.3550    -12.5100     -3.3050      1.6800     78.3900
    238      9.9580    -12.7650     -2.4180      0.0100     78.3900
    239      9.7850    -12.0160     -3.9620      0.0100     78.3900
    240     16.4060    -12.9800     -5.0840      1.7700     78.3900
    241     15.9050    -12.0000     -5.2300      0.0100     78.3900
    242     17.2590    -13.2530     -6.1820      1.5900     78.3900
    243     17.9690    -12.5920     -6.1730      0.0100     78.3900
    244     17.1670    -13.0030     -3.7630      1.7700     78.3900
    245     16.5480    -12.5330     -2.9630      0.0100     78.3900
    246     18.5030    -12.4600     -3.8340      1.5900     78.3900
    247     18.7690    -10.9370     -3.5400      2.1000     78.3900
    248     18.3100    -10.6430     -2.1680      1.5900     78.3900
    249     20.1880    -10.6490     -3.8450      1.5900     78.3900
    250     17.8830    -10.1430     -4.5690      1.5900     78.3900
    251     17.4730     -8.7700     -4.3120      1.7700     78.3900
    252     18.1420     -8.0640     -4.8580      0.0100     78.3900
    253     17.5330     -8.5060     -3.2280      0.0100     78.3900
    254     16.0200     -8.4890     -4.7600      1.7700     78.3900
    255     15.9850     -8.2500     -5.8440      0.0100     78.3900
    256     15.2030     -9.6840     -4.5740      1.5900     78.3900
    257     13.9640     -9.3420     -3.9940      1.7700     78.3900
    258     13.1730     -9.8300     -4.6100      0.0100     78.3900
    259     13.8760     -9.8370     -2.6130      1.6800     78.3900
    260     12.7320     -9.9400     -1.8720      1.7700     78.3900
    261      9.2940     -9.6320     -1.5870      1.6800     78.3900
    262      9.0170     -9.2440     -2.4680      0.0100     78.3900
    263      8.5950     -9.8320     -0.8960      0.0100     78.3900
    264     11.4960     -9.6030     -2.2840      1.6800     78.3900
    265     10.5700     -9.8880     -1.3720      1.7700     78.3900
    266     10.8540    -10.4420     -0.1570      1.6800     78.3900
    267     10.0910    -10.6560      0.4670      0.0100     78.3900
    268     12.1120    -10.7860      0.2980      1.7700     78.3900
    269     12.2500    -11.2810      1.4170      1.5900     78.3900
    270     13.1180    -10.4830     -0.6620      1.7700     78.3900
    271     14.4950    -10.6880     -0.6280      1.6800     78.3900
    272     14.9000    -10.3070     -1.8170      1.7700     78.3900
    273     15.9340    -10.3380     -2.1720      0.0100     78.3900
    274     13.8290     -7.8410     -4.0880      1.7700     78.3900
    275     13.2010     -7.4210     -3.2760      0.0100     78.3900
    276     13.2860     -7.4750     -5.3450      1.5900     78.3900
    277     13.3070     -6.5110     -5.3820      0.0100     78.3900
    278     15.2820     -7.3950     -3.9570      1.7700     78.3900
    279     15.6170     -7.5020     -2.8980      0.0100     78.3900
    280     15.5600     -6.0850     -4.5100      1.5900     78.3900
    281     15.5650     -4.8280     -3.5560      2.1000     78.3900
    282     16.3150     -5.1880     -2.3330      1.5900     78.3900
    283     16.0410     -3.6530     -4.3170      1.5900     78.3900
    284     14.0510     -4.6140     -3.1810      1.5900     78.3900
    285     13.1060     -4.1210     -4.1550      1.7700     78.3900
    286     13.1580     -4.7110     -5.0960      0.0100     78.3900
    287     13.3250     -3.0570     -4.4000      0.0100     78.3900
    288     11.6650     -4.1940     -3.6290      1.7700     78.3900
    289     10.9400     -3.8590     -4.4020      0.0100     78.3900
    290     11.3260     -5.5700     -3.2850      1.5900     78.3900
    291     10.5470     -5.5740     -2.0980      1.7700     78.3900
    292      9.6240     -6.1530     -2.3180      0.0100     78.3900
    293     11.2600     -6.2240     -0.9890      1.6800     78.3900
    294     10.6960     -6.7200      0.1540      1.7700     78.3900
    295      7.9060     -7.2900      2.1300      1.6800     78.3900
    296      7.1700     -6.8800      1.5950      0.0100     78.3900
    297      7.7050     -7.6460      3.0460      0.0100     78.3900
    298      9.3900     -6.6830      0.4710      1.6800     78.3900
    299      9.1330     -7.2610      1.6420      1.7700     78.3900
    300     10.1040     -7.8430      2.4150      1.6800     78.3900
    301      9.8280     -8.2690      3.2870      0.0100     78.3900
    302     11.4590     -7.9080      2.1100      1.7700     78.3900
    303     12.2770     -8.4620      2.8500      1.5900     78.3900
    304     11.7390     -7.2620      0.8780      1.7700     78.3900
    305     12.9430     -7.0820      0.2170      1.6800     78.3900
    306     12.6110     -6.4560     -0.8840      1.7700     78.3900
    307     13.3060     -6.1500     -1.6640      0.0100     78.3900
    308     10.1890     -4.1380     -1.7850      1.7700     78.3900
    309     10.0640     -3.9600     -0.7000      0.0100     78.3900
    310      9.0000     -3.7810     -2.4580      1.5900     78.3900
    311      8.8460     -2.8450     -2.2800      0.0100     78.3900
    312     11.3980     -3.3970     -2.3450      1.7700     78.3900
    313     12.2780     -3.5670     -1.6860      0.0100     78.3900
    314     11.1830     -2.0020     -2.6660      1.5900     78.3900
    315     11.5870     -0.8980     -1.6150      2.1000     78.3900
    316     12.9090     -1.2130     -1.0310      1.5900     78.3900
    317     11.4360      0.4420     -2.2200      1.5900     78.3900
    318     10.4980     -1.0740     -0.4950      1.5900     78.3900
    319      9.1100     -0.7550     -0.7540      1.7700     78.3900
    320      8.7190     -1.3090     -1.6380      0.0100     78.3900
    321      8.9970      0.3330     -0.9670      0.0100     78.3900
    322      8.2240     -1.0830      0.4590      1.7700     78.3900
    323      7.1690     -0.7860      0.2790      0.0100     78.3900
    324      8.2310     -2.5210      0.7140      1.5900     78.3900
    325      8.2400     -2.7510      2.1210      1.7700     78.3900
    326      7.3530     -3.3960      2.3340      0.0100     78.3900
    327      9.4880     -3.4440      2.5620      1.6800     78.3900
    328     10.6240     -3.4260      1.7830      1.7700     78.3900
    329     10.5460     -2.8590      0.8600      0.0100     78.3900
    330      9.4810     -4.1030      3.7710      1.7700     78.3900
    331      8.4980     -4.1280      4.5040      1.5900     78.3900
    332     10.6560     -4.7310      4.0960      1.6800     78.3900
    333     10.6540     -5.2210      4.9840      0.0100     78.3900
    334     11.8180     -4.7720      3.3560      1.7700     78.3900
    335     12.7990     -5.3760      3.7820      1.5900     78.3900
[...]
  10  9  0    -2633.1876146622     0.0000001090   0.000002029   0.000000784     1783419195  231346309
  11 10  0    -2633.1876146067     0.0000000555   0.000000761   0.000000403     1630533441  232617134
  12 11  0    -2633.1876146061     0.0000000006   0.000000348   0.000000167     1422654357  234460073
  13 12  0    -2633.1876146079    -0.0000000019   0.000000115   0.000000050     1337150954  235130500

          -----------------
          DENSITY CONVERGED
          -----------------
     TIME TO FORM FOCK OPERATORS=     109.2 SECONDS (       8.4 SEC/ITER)
     FOCK TIME ON FIRST ITERATION=      14.4, LAST ITERATION=       4.8
     TIME TO SOLVE SCF EQUATIONS=       1.2 SECONDS (       0.1 SEC/ITER)

 FINAL RHF ENERGY IS    -2633.1876146079 AFTER  13 ITERATIONS
 ...... END OF RHF CALCULATION ......
 CPU     0: STEP CPU TIME=   146.21 TOTAL CPU TIME=      13333.2 (    222.2 MIN)
 TOTAL WALL CLOCK TIME=      31838.7 SECONDS, CPU UTILIZATION IS    41.88%

 --------------------------   -----------------------------
 RHF-MP2 ENERGY CALCULATION   PROGRAM WRITTEN BY K.ISHIMURA
 --------------------------   -----------------------------
 NUMBER OF OCCUPIED ORBITALS            =  158
 NUMBER OF CORRELATED OCCUPIED ORBITALS =  110
 NUMBER OF VIRTUAL ORBITALS             =  463
 NUMBER OF BASIS FUNCTIONS              =  667
 NUMBER OF BASIS SHELLS                 =  210
 AO-TRANSFORMED INTEGRAL THRESHOLD      = 1.00E-12
 HALF-TRANSFORMED INTEGRAL THRESHOLD    = 4.27E-14

 NUMBER OF REDUNDANT MOS IN FMO         =    5
 TOTAL DISK REQUIRED (ALL PROCESSORS)=          15082 MBYTES
                  DISK SPACE PER CORE=            942 MBYTES, USING P=   16
 MEMORY REQUIRED FOR TRANSFORMATION OF 1ST THREE INDICES=    28347151
 MEMORY REQUIRED FOR    4TH INDEX TRANSF. AND MP2 ENERGY=    57410287
 BEGINNING MP2 INTEGRAL TRANSFORMATION...
 BEGINNING    1ST SHELL LOOP...
 BEGINNING   26TH SHELL LOOP...
 BEGINNING   51ST SHELL LOOP...
 BEGINNING   76TH SHELL LOOP...
 BEGINNING  101ST SHELL LOOP...
 BEGINNING  126TH SHELL LOOP...
 BEGINNING  151ST SHELL LOOP...
 BEGINNING  176TH SHELL LOOP...
 BEGINNING  201ST SHELL LOOP...

 RESULTS OF MOLLER-PLESSET 2ND ORDER CORRECTION ARE
               E(0)=     -2633.1876146079
               E(1)=         0.0
               E(2)=        -5.8411471281
             E(MP2)=     -2639.0287617360
 SPIN-COMPONENT-SCALED MP2 RESULTS ARE
              E(2S)=        -4.2315102533
              E(2T)=        -1.6096368748
             E(2ST)=        -5.6143579289 = 6/5 * E(2S) + 1/3 * E(2T)
            SCS-MP2=     -2638.8019725368

          ---------------------
          ELECTROSTATIC MOMENTS
          ---------------------

 POINT   1           X           Y           Z (BOHR)    CHARGE
                18.743747  -22.558516    5.665187       -2.00 (A.U.)
         DX          DY          DZ         /D/  (DEBYE)
   -76.718185    6.432782   60.795117   98.097435

 Atomic populations
     I    Z      Q
     1   6.0   5.9908757
     2   1.0   0.7999090
     3   1.0   0.8022418
     4   6.0   5.8442701
     5   1.0   0.7897323
     6   8.0   8.7433218
     7   6.0   5.5653165
     8   1.0   0.7661225
     9   7.0   7.8340722
    10   6.0   5.8237776
    11   1.0   0.6741585
    12   6.0   6.3872549
    13   1.0   0.7522215
    14   6.0   5.0012240
    15   8.0   8.7618663
    16   7.0   7.7886226
    17   6.0   5.3065066
    18   7.0   7.9383129
    19   1.0   0.5388864
    20   1.0   0.5715318
    21   6.0   5.8757183
    22   1.0   0.7539929
    23   8.0   8.8506919
    24   1.0   0.4932049
    25   6.0   5.8684407
    26   1.0   0.7580534
    27   8.0   8.7833333
    28  15.0  13.4140053
    29   8.0   8.9195819
    30   8.0   8.8886112
    31   8.0   8.9698676
    32   5.0   5.4274623
    33   1.0   0.7650126
    34   1.0   0.7829917
    35   6.0   5.9112307
    36   1.0   0.7442342
    37   8.0   8.7270844
    38   6.0   5.5850518
    39   1.0   0.7427160
    40   7.0   7.8070263
    41   6.0   5.7909467
    42   1.0   0.6883672
    43   6.0   6.4102905
    44   1.0   0.7430141
    45   6.0   5.0205916
    46   8.0   8.7257205
    47   7.0   7.7632926
    48   6.0   5.3381602
    49   7.0   7.9240708
    50   1.0   0.5679159
    51   1.0   0.5618206
    52   6.0   5.8722280
    53   1.0   0.7474053
    54   8.0   8.8489509
    55   1.0   0.4697688
    56   6.0   5.8970826
    57   1.0   0.7558361
    58   8.0   8.8253313
    59  15.0  13.3521489
    60   8.0   8.8666810
    61   8.0   8.9176441
    62   8.0   8.7591666
    63   1.0   0.4050294
 Redoing 1e ESP:                    -1

  iFrag=      8 jFrag=      7 EFMOc= -2741.636127061

  iFrag=      8 jFrag=      7 EFMOu= -2735.794979933 Tr=-0.002085330

 I,J=       6       3 Ees_I(J)=  -14.017 Ees_J(I)=   -6.115 Ees_IJ=  -20.132

 energy of the separated dimer    6    3, L1=  682 is     -2720.831823776

 CPU     0: STEP CPU TIME=   234.63 TOTAL CPU TIME=      13567.8 (    226.1 MIN)
 TOTAL WALL CLOCK TIME=      32313.9 SECONDS, CPU UTILIZATION IS    41.99%

 RHF      dimer      6      3 corr= MP2        , LL1=   682 ID=            15

          -----------------------
          MP2 CONTROL INFORMATION
          -----------------------
          NACORE =       48  NBCORE =       48
          LMOMP2 =        F  AOINTS = DUP     
          METHOD =        2  NWORD  =               0
          MP2PRP =        F  OSPT   = NONE    
          CUTOFF = 1.00E-12  CPHFBS = BASISAO 
          CODE   = IMS     

          NUMBER OF CORE -A-  ORBITALS =    48
          NUMBER OF CORE -B-  ORBITALS =    48
          NUMBER OF OCC. -A-  ORBITALS =   158
          NUMBER OF OCC. -B-  ORBITALS =   158
          NUMBER OF MOLECULAR ORBITALS =   682
          NUMBER OF   BASIS  FUNCTIONS =   682


 AO spaces for     6     3     0 n-mer: L1=   682, L0=   640

 DIRECT SCF CALCULATION, SCHWRZ=T   FDIFF=T,  DIRTHR=  0.00E+00 NITDIR=10

                                                                                   NONZERO     BLOCKS
 ITER EX DEM     TOTAL ENERGY        E CHANGE  DENSITY CHANGE     ORB. GRAD      INTEGRALS    SKIPPED
   1  0  0    -2630.2396265792 -2630.2396265792   0.063237429   0.000000000     2851709386  236199033
          ---------------START SECOND ORDER SCF---------------
   2  1  0    -2630.2443668834    -0.0047403041   0.015216977   0.001206347     2525579763  242568660
   3  2  0    -2630.2444364851    -0.0000696017   0.008548680   0.000374197     2368790673  244409449
   4  3  0    -2630.2444641517    -0.0000276666   0.001294656   0.000344254     2290519785  245175580
   5  4  0    -2630.2444570774     0.0000070743   0.000338863   0.000062739     2109287319  247038305
   6  5  0    -2630.2444533919     0.0000036855   0.000116788   0.000021934     1999452118  248098766
   7  6  0    -2630.2444590950    -0.0000057031   0.000041838   0.000009082     1921850734  248830412
   8  7  0    -2630.2444584756     0.0000006195   0.000020505   0.000004112     1717906529  250704064
   9  8  0    -2630.2444586113    -0.0000001357   0.000005417   0.000001429     1624995613  251527081
  10  9  0    -2630.2444587043    -0.0000000929   0.000001126   0.000000694     1447371224  253148955
  11 10  0    -2630.2444587001     0.0000000042   0.000000423   0.000000203     1297877338  254499646
  12 11  0    -2630.2444586889     0.0000000112   0.000000138   0.000000074     1181804801  255513178
  13 12  0    -2630.2444586874     0.0000000015   0.000000080   0.000000019     1060374044  256581122

          -----------------
          DENSITY CONVERGED
          -----------------
     TIME TO FORM FOCK OPERATORS=      85.8 SECONDS (       6.6 SEC/ITER)
     FOCK TIME ON FIRST ITERATION=      10.4, LAST ITERATION=       4.1
     TIME TO SOLVE SCF EQUATIONS=       1.3 SECONDS (       0.1 SEC/ITER)

 FINAL RHF ENERGY IS    -2630.2444586874 AFTER  13 ITERATIONS
 ...... END OF RHF CALCULATION ......
 CPU     0: STEP CPU TIME=   165.83 TOTAL CPU TIME=      13733.7 (    228.9 MIN)
 TOTAL WALL CLOCK TIME=      32640.8 SECONDS, CPU UTILIZATION IS    42.08%

 --------------------------   -----------------------------
 RHF-MP2 ENERGY CALCULATION   PROGRAM WRITTEN BY K.ISHIMURA
 --------------------------   -----------------------------
 NUMBER OF OCCUPIED ORBITALS            =  158
 NUMBER OF CORRELATED OCCUPIED ORBITALS =  110
 NUMBER OF VIRTUAL ORBITALS             =  472
 NUMBER OF BASIS FUNCTIONS              =  682
 NUMBER OF BASIS SHELLS                 =  214
 AO-TRANSFORMED INTEGRAL THRESHOLD      = 1.00E-12
 HALF-TRANSFORMED INTEGRAL THRESHOLD    = 3.89E-14

 NUMBER OF REDUNDANT MOS IN FMO         =   10
 TOTAL DISK REQUIRED (ALL PROCESSORS)=          15721 MBYTES
                  DISK SPACE PER CORE=            982 MBYTES, USING P=   16
 MEMORY REQUIRED FOR TRANSFORMATION OF 1ST THREE INDICES=    28956568
 MEMORY REQUIRED FOR    4TH INDEX TRANSF. AND MP2 ENERGY=    57338602
 BEGINNING MP2 INTEGRAL TRANSFORMATION...
 BEGINNING    1ST SHELL LOOP...
 BEGINNING   26TH SHELL LOOP...
 BEGINNING   51ST SHELL LOOP...
 BEGINNING   76TH SHELL LOOP...
 BEGINNING  101ST SHELL LOOP...
 BEGINNING  126TH SHELL LOOP...
 BEGINNING  151ST SHELL LOOP...
 BEGINNING  176TH SHELL LOOP...
 BEGINNING  201ST SHELL LOOP...

 RESULTS OF MOLLER-PLESSET 2ND ORDER CORRECTION ARE
               E(0)=     -2630.2444586874
               E(1)=         0.0
               E(2)=        -5.7854274353
             E(MP2)=     -2636.0298861227
 SPIN-COMPONENT-SCALED MP2 RESULTS ARE
              E(2S)=        -4.1976442619
              E(2T)=        -1.5877831734
             E(2ST)=        -5.5664341721 = 6/5 * E(2S) + 1/3 * E(2T)
            SCS-MP2=     -2635.8108928595

          ---------------------
          ELECTROSTATIC MOMENTS
          ---------------------

 POINT   1           X           Y           Z (BOHR)    CHARGE
                18.743747  -22.558516    5.665187       -2.00 (A.U.)
         DX          DY          DZ         /D/  (DEBYE)
    39.101255   35.310683   20.870663   56.668660

 Atomic populations
     I    Z      Q
     1   5.0   5.4038923
     2   1.0   0.7488873
     3   1.0   0.7784644
     4   6.0   5.9171449
     5   1.0   0.7880128
     6   8.0   8.7281102
     7   6.0   5.5722350
     8   1.0   0.7535699
     9   7.0   7.8274525
    10   6.0   5.8008369
    11   1.0   0.6978130
    12   6.0   6.4080039
    13   1.0   0.7228884
    14   6.0   4.9640456
    15   8.0   8.7336120
    16   7.0   7.8238035
    17   6.0   5.2850425
    18   7.0   7.9635057
    19   1.0   0.5613564
    20   1.0   0.5398836
    21   6.0   5.8778541
    22   1.0   0.7617149
    23   8.0   8.8247694
    24   1.0   0.4959893
    25   6.0   5.8305897
    26   1.0   0.7708990
    27   8.0   8.7696149
    28  15.0  13.4177562
    29   8.0   8.9209184
    30   8.0   8.8913800
    31   8.0   8.9721403
    32   5.0   5.3641417
    33   1.0   0.8586205
    34   1.0   0.7537785
    35   6.0   5.9090653
    36   1.0   0.7475492
    37   8.0   8.7224864
    38   6.0   5.5865497
    39   1.0   0.7456158
    40   7.0   7.8186710
    41   6.0   5.8456157
    42   1.0   0.6863275
    43   6.0   6.3995333
    44   1.0   0.7137639
    45   6.0   4.9437479
    46   8.0   8.7974739
    47   7.0   7.8609780
    48   6.0   5.2832537
    49   7.0   7.9900558
    50   1.0   0.5446158
    51   1.0   0.4958615
    52   6.0   5.8505245
    53   1.0   0.7977864
    54   8.0   8.8397234
    55   1.0   0.4933495
    56   6.0   5.8305232
    57   1.0   0.7971729
    58   8.0   8.7698637
    59  15.0  13.4310560
    60   8.0   8.8983000
    61   8.0   8.8957927
    62   8.0   8.9805855
    63   1.0   0.4038599
    64   1.0   0.3915701
 Redoing 1e ESP:                    -1

  iFrag=      6 jFrag=      3 EFMOc= -2726.608430955

  iFrag=      6 jFrag=      3 EFMOu= -2720.823003519 Tr= 0.000404095

 I,J=       3       2 Ees_I(J)=  -14.689 Ees_J(I)=  -20.043 Ees_IJ=  -34.732

 energy of the separated dimer    3    2, L1=  682 is     -2735.428469069

 CPU     0: STEP CPU TIME=   211.23 TOTAL CPU TIME=      13944.9 (    232.4 MIN)
 TOTAL WALL CLOCK TIME=      33038.9 SECONDS, CPU UTILIZATION IS    42.21%

 RHF      dimer      3      2 corr= MP2        , LL1=   682 ID=            16

          -----------------------
          MP2 CONTROL INFORMATION
          -----------------------
          NACORE =       48  NBCORE =       48
          LMOMP2 =        F  AOINTS = DUP     
          METHOD =        2  NWORD  =               0
          MP2PRP =        F  OSPT   = NONE    
          CUTOFF = 1.00E-12  CPHFBS = BASISAO 
          CODE   = IMS     

          NUMBER OF CORE -A-  ORBITALS =    48
          NUMBER OF CORE -B-  ORBITALS =    48
          NUMBER OF OCC. -A-  ORBITALS =   158
          NUMBER OF OCC. -B-  ORBITALS =   158
          NUMBER OF MOLECULAR ORBITALS =   667
          NUMBER OF   BASIS  FUNCTIONS =   667


 AO spaces for     3     2     0 n-mer: L1=   667, L0=   626

 DIRECT SCF CALCULATION, SCHWRZ=T   FDIFF=T,  DIRTHR=  0.00E+00 NITDIR=10

                                                                                   NONZERO     BLOCKS
 ITER EX DEM     TOTAL ENERGY        E CHANGE  DENSITY CHANGE     ORB. GRAD      INTEGRALS    SKIPPED
   1  0  0    -2637.9627540640 -2637.9627540640   0.144118806   0.000000000     4437851913  202017491
          ---------------START SECOND ORDER SCF---------------
   2  1  0    -2638.4999875671    -0.5372335031   0.042525258   0.007681921     4204142560  207828126
   3  2  0    -2638.5058163582    -0.0058287911   0.015485605   0.002525970     3929806530  211679031
   4  3  0    -2638.5067742092    -0.0009578510   0.004861248   0.001165817     3715190086  213945691
   5  4  0    -2638.5067894658    -0.0000152566   0.000916538   0.000109572     3436959294  216792144
   6  5  0    -2638.5067800261     0.0000094398   0.000231696   0.000051950     3149843397  219467965
   7  6  0    -2638.5067843818    -0.0000043557   0.000087416   0.000014388     2862548019  222043638
   8  7  0    -2638.5067835239     0.0000008578   0.000024727   0.000004958     2596691025  224373332
   9  8  0    -2638.5067830972     0.0000004267   0.000007288   0.000002921     2350636597  226512200
  10  9  0    -2638.5067829729     0.0000001243   0.000002500   0.000000502     2080978737  228905835
  11 10  0    -2638.5067828952     0.0000000776   0.000000772   0.000000339     1865028971  230753442
  12 11  0    -2638.5067828967    -0.0000000014   0.000000354   0.000000142     1610151456  232932317
  13 12  0    -2638.5067829013    -0.0000000047   0.000000117   0.000000058     1488130513  233922961

          -----------------
          DENSITY CONVERGED
          -----------------
     TIME TO FORM FOCK OPERATORS=     121.8 SECONDS (       9.4 SEC/ITER)
     FOCK TIME ON FIRST ITERATION=      15.6, LAST ITERATION=       5.1
     TIME TO SOLVE SCF EQUATIONS=       1.2 SECONDS (       0.1 SEC/ITER)

 FINAL RHF ENERGY IS    -2638.5067829013 AFTER  13 ITERATIONS
 ...... END OF RHF CALCULATION ......
 CPU     0: STEP CPU TIME=   218.12 TOTAL CPU TIME=      14163.0 (    236.1 MIN)
 TOTAL WALL CLOCK TIME=      33470.9 SECONDS, CPU UTILIZATION IS    42.31%

 --------------------------   -----------------------------
 RHF-MP2 ENERGY CALCULATION   PROGRAM WRITTEN BY K.ISHIMURA
 --------------------------   -----------------------------
 NUMBER OF OCCUPIED ORBITALS            =  158
 NUMBER OF CORRELATED OCCUPIED ORBITALS =  110
 NUMBER OF VIRTUAL ORBITALS             =  463
 NUMBER OF BASIS FUNCTIONS              =  667
 NUMBER OF BASIS SHELLS                 =  210
 AO-TRANSFORMED INTEGRAL THRESHOLD      = 1.00E-12
 HALF-TRANSFORMED INTEGRAL THRESHOLD    = 6.26E-14

 NUMBER OF REDUNDANT MOS IN FMO         =    5
 TOTAL DISK REQUIRED (ALL PROCESSORS)=          15082 MBYTES
                  DISK SPACE PER CORE=            942 MBYTES, USING P=   16
 MEMORY REQUIRED FOR TRANSFORMATION OF 1ST THREE INDICES=    28347151
 MEMORY REQUIRED FOR    4TH INDEX TRANSF. AND MP2 ENERGY=    57410287
 BEGINNING MP2 INTEGRAL TRANSFORMATION...
 BEGINNING    1ST SHELL LOOP...
 BEGINNING   26TH SHELL LOOP...
 BEGINNING   51ST SHELL LOOP...
 BEGINNING   76TH SHELL LOOP...
 BEGINNING  101ST SHELL LOOP...
 BEGINNING  126TH SHELL LOOP...
 BEGINNING  151ST SHELL LOOP...
 BEGINNING  176TH SHELL LOOP...
 BEGINNING  201ST SHELL LOOP...

 RESULTS OF MOLLER-PLESSET 2ND ORDER CORRECTION ARE
               E(0)=     -2638.5067829013
               E(1)=         0.0
               E(2)=        -5.8476979086
             E(MP2)=     -2644.3544808099
 SPIN-COMPONENT-SCALED MP2 RESULTS ARE
              E(2S)=        -4.2350000900
              E(2T)=        -1.6126978186
             E(2ST)=        -5.6195660475 = 6/5 * E(2S) + 1/3 * E(2T)
            SCS-MP2=     -2644.1263489488

          ---------------------
          ELECTROSTATIC MOMENTS
          ---------------------

 POINT   1           X           Y           Z (BOHR)    CHARGE
                18.743747  -22.558516    5.665187       -2.00 (A.U.)
         DX          DY          DZ         /D/  (DEBYE)
    74.927423    1.156056    8.266779   75.390946

 Atomic populations
     I    Z      Q
     1   6.0   6.0233503
     2   1.0   0.8322268
     3   1.0   0.7707375
     4   6.0   5.8441047
     5   1.0   0.7758879
     6   8.0   8.7308413
     7   6.0   5.5857366
     8   1.0   0.7473546
     9   7.0   7.8259927
    10   6.0   5.8515334
    11   1.0   0.6668693
    12   6.0   6.3995502
    13   1.0   0.7115508
    14   6.0   4.9431175
    15   8.0   8.7972616
    16   7.0   7.8630578
    17   6.0   5.2862882
    18   7.0   7.9265646
    19   1.0   0.5406478
    20   1.0   0.5390642
    21   6.0   5.8499902
    22   1.0   0.7995305
    23   8.0   8.8409495
    24   1.0   0.4933514
    25   6.0   5.8489857
    26   1.0   0.7945850
    27   8.0   8.7742017
    28  15.0  13.4299954
    29   8.0   8.8985384
    30   8.0   8.8969426
    31   8.0   8.9800403
    32   5.0   5.3637015
    33   1.0   0.8787118
    34   1.0   0.7467430
    35   6.0   5.9037905
    36   1.0   0.7457817
    37   8.0   8.7319396
    38   6.0   5.5679399
    39   1.0   0.7507251
    40   7.0   7.8260428
    41   6.0   5.8349693
    42   1.0   0.6933679
    43   6.0   6.3422026
    44   1.0   0.7425088
    45   6.0   4.9395736
    46   8.0   8.7958186
    47   7.0   7.8678049
    48   6.0   5.2740897
    49   7.0   7.9425383
    50   1.0   0.5402738
    51   1.0   0.5484246
    52   6.0   5.9069152
    53   1.0   0.7683902
    54   8.0   8.8406765
    55   1.0   0.4796617
    56   6.0   5.8598347
    57   1.0   0.7583006
    58   8.0   8.7902688
    59  15.0  13.3558657
    60   8.0   8.8517052
    61   8.0   8.8948409
    62   8.0   8.7953488
    63   1.0   0.3923951
 Redoing 1e ESP:                    -1

  iFrag=      3 jFrag=      2 EFMOc= -2741.616349257

  iFrag=      3 jFrag=      2 EFMOu= -2735.768651348 Tr=-0.001608480

 I,J=       7       6 Ees_I(J)=   -6.730 Ees_J(I)=  -17.009 Ees_IJ=  -23.739

 energy of the separated dimer    7    6, L1=  682 is     -2735.445824598

 CPU     0: STEP CPU TIME=   312.35 TOTAL CPU TIME=      14475.3 (    241.3 MIN)
 TOTAL WALL CLOCK TIME=      34032.6 SECONDS, CPU UTILIZATION IS    42.53%

 RHF      dimer      7      6 corr= MP2        , LL1=   682 ID=            17

          -----------------------
          MP2 CONTROL INFORMATION
          -----------------------
          NACORE =       48  NBCORE =       48
          LMOMP2 =        F  AOINTS = DUP     
          METHOD =        2  NWORD  =               0
          MP2PRP =        F  OSPT   = NONE    
          CUTOFF = 1.00E-12  CPHFBS = BASISAO 
          CODE   = IMS     

          NUMBER OF CORE -A-  ORBITALS =    48
          NUMBER OF CORE -B-  ORBITALS =    48
          NUMBER OF OCC. -A-  ORBITALS =   158
          NUMBER OF OCC. -B-  ORBITALS =   158
          NUMBER OF MOLECULAR ORBITALS =   667
          NUMBER OF   BASIS  FUNCTIONS =   667

