‘2LBK_6_fmo_input.inp’ -> ‘/scratch/hazwong/820881/./2LBK_6_fmo_input.inp’
‘rungms’ -> ‘/scratch/hazwong/820881/./rungms’
‘gms-files.csh’ -> ‘/scratch/hazwong/820881/./gms-files.csh’
----- GAMESS execution script 'rungms' -----
This job is running on host gollum051.lsa.umich.edu
under operating system Linux at Fri Dec 6 09:47:18 EST 2019
Available scratch disk space (Kbyte units) at beginning of the job is
Filesystem     1K-blocks   Used Available Use% Mounted on
/dev/sda4      426933580 496756 426436824   1% /scratch
GAMESS temporary binary files will be written to /scratch/hazwong/820881/2LBK_6/usrc
GAMESS supplementary output files will be written to /scratch/hazwong/820881/2LBK_6/src
Copying input file 2LBK_6_fmo_input.inp to your run's scratch directory...
cp 2LBK_6_fmo_input.inp /scratch/hazwong/820881/2LBK_6/usrc/2LBK_6_fmo_input.F05
unset echo
This is a GDDI run, keeping various output files on local disks
setenv OUTPUT /scratch/hazwong/820881/2LBK_6/usrc/2LBK_6_fmo_input.F06
setenv PUNCH /scratch/hazwong/820881/2LBK_6/usrc/2LBK_6_fmo_input.F07
unset echo
 
Assuming a single but multicore node.
 
/export/apps/CentOS7/gamess/src/build//ddikick.x /export/apps/CentOS7/gamess/src/build//gamess.R3.x 2LBK_6_fmo_input -ddi 1 16 gollum051.lsa.umich.edu:cpus=16 -scr /scratch/hazwong/820881/2LBK_6/usrc

 Distributed Data Interface kickoff program.
 Initiating 16 compute processes on 1 nodes to run the following command:
 /export/apps/CentOS7/gamess/src/build//gamess.R3.x 2LBK_6_fmo_input 

          ******************************************************
          *         GAMESS VERSION = 30 SEP 2018 (R3)         *
          *             FROM IOWA STATE UNIVERSITY             *
          * M.W.SCHMIDT, K.K.BALDRIDGE, J.A.BOATZ, S.T.ELBERT, *
          *   M.S.GORDON, J.H.JENSEN, S.KOSEKI, N.MATSUNAGA,   *
          *          K.A.NGUYEN, S.J.SU, T.L.WINDUS,           *
          *       TOGETHER WITH M.DUPUIS, J.A.MONTGOMERY       *
          *         J.COMPUT.CHEM.  14, 1347-1363(1993)        *
          **************** 64 BIT LINUX VERSION ****************

  SINCE 1993, STUDENTS AND POSTDOCS WORKING AT IOWA STATE UNIVERSITY
  AND ALSO IN THEIR VARIOUS JOBS AFTER LEAVING ISU HAVE MADE IMPORTANT
  CONTRIBUTIONS TO THE CODE:
     IVANA ADAMOVIC, CHRISTINE AIKENS, YURI ALEXEEV, POOJA ARORA,
     ANDREY ASADCHEV, ROB BELL, PRADIPTA BANDYOPADHYAY, JONATHAN BENTZ,
     BRETT BODE, KURT BRORSEN, CALEB CARLIN, GALINA CHABAN, WEI CHEN,
     CHEOL HO CHOI, PAUL DAY, ALBERT DEFUSCO, NUWAN DESILVA, TIM DUDLEY,
     DMITRI FEDOROV, ALEX FINDLATER, GRAHAM FLETCHER, MARK FREITAG,
     KURT GLAESEMANN, ANASTASIA GUNINA,
     DAN KEMP, GRANT MERRILL, NORIYUKI MINEZAWA, JONATHAN MULLIN,
     TAKESHI NAGATA, SEAN NEDD, HEATHER NETZLOFF, BOSILJKA NJEGIC, RYAN OLSON,
     MIKE PAK, BUU PHAM,
     SPENCER PRUITT, LUKE ROSKOP, JIM SHOEMAKER, LYUDMILA SLIPCHENKO,
     TONY SMITH, SAROM SOK LEANG, JIE SONG, TETSUYA TAKETSUGU, SIMON WEBB,
     PENG XU, SOOHAENG YOO, FEDERICO ZAHARIEV

  ADDITIONAL CODE HAS BEEN PROVIDED BY COLLABORATORS IN OTHER GROUPS:
     IOWA STATE UNIVERSITY:
          JOE IVANIC, AARON WEST, LAIMUTIS BYTAUTAS, KLAUS RUEDENBERG
     UNIVERSITY OF TOKYO: KIMIHIKO HIRAO, TAKAHITO NAKAJIMA,
          TAKAO TSUNEDA, MUNEAKI KAMIYA, SUSUMU YANAGISAWA,
          KIYOSHI YAGI, MAHITO CHIBA, SEIKEN TOKURA, NAOAKI KAWAKAMI
     UNIVERSITY OF AARHUS: FRANK JENSEN
     UNIVERSITY OF IOWA: VISVALDAS KAIRYS, HUI LI
     NATIONAL INST. OF STANDARDS AND TECHNOLOGY: WALT STEVENS, DAVID GARMER
     UNIVERSITY OF PISA: BENEDETTA MENNUCCI, JACOPO TOMASI
     UNIVERSITY OF MEMPHIS: HENRY KURTZ, PRAKASHAN KORAMBATH
     UNIVERSITY OF ALBERTA: TOBY ZENG, MARIUSZ KLOBUKOWSKI
     UNIVERSITY OF NEW ENGLAND: MARK SPACKMAN
     MIE UNIVERSITY: HIROAKI UMEDA
     NAT. INST. OF ADVANCED INDUSTRIAL SCIENCE AND TECHNOLOGY: KAZUO KITAURA
     MICHIGAN STATE UNIVERSITY:
          KAROL KOWALSKI, MARTA WLOCH, JEFFREY GOUR, JESSE LUTZ,
          WEI LI, JUN SHEN, J. EMILIANO DEUSTUA, PIOTR PIECUCH
     UNIVERSITY OF MINNESOTA:
          YINAN SHU
     UNIVERSITY OF SILESIA: MONIKA MUSIAL, STANISLAW KUCHARSKI
     FACULTES UNIVERSITAIRES NOTRE-DAME DE LA PAIX:
          OLIVIER QUINET, BENOIT CHAMPAGNE
     UNIVERSITY OF CALIFORNIA - SANTA BARBARA: BERNARD KIRTMAN
     INSTITUTE FOR MOLECULAR SCIENCE:
          KAZUYA ISHIMURA, MICHIO KATOUDA, AND SHIGERU NAGASE
     UNIVERSITY OF NOTRE DAME: ANNA POMOGAEVA, DAN CHIPMAN
     KYUSHU UNIVERSITY:
          HARUYUKI NAKANO,
          FENG LONG GU, JACEK KORCHOWIEC, MARCIN MAKOWSKI, AND YURIKO AOKI,
          HIROTOSHI MORI AND EISAKU MIYOSHI
     PENNSYLVANIA STATE UNIVERSITY:
          TZVETELIN IORDANOV, CHET SWALINA, JONATHAN SKONE,
          SHARON HAMMES-SCHIFFER
     WASEDA UNIVERSITY:
          MASATO KOBAYASHI, TOMOKO AKAMA, TSUGUKI TOUMA,
          TAKESHI YOSHIKAWA, YASUHIRO IKABATA, JUNJI SEINO,
          YUYA NAKAJIMA, HIROMI NAKAI
     NANJING UNIVERSITY: SHUHUA LI
     UNIVERSITY OF NEBRASKA:
          PEIFENG SU, DEJUN SI, NANDUN THELLAMUREGE, YALI WANG, HUI LI
     UNIVERSITY OF ZURICH: ROBERTO PEVERATI, KIM BALDRIDGE
     N. COPERNICUS UNIVERSITY AND JACKSON STATE UNIVERSITY:
          MARIA BARYSZ
     UNIVERSITY OF COPENHAGEN: Jimmy Kromann, CASPER STEINMANN
     TOKYO INSTITUTE OF TECHNOLOGY: HIROYA NAKATA
     NAGOYA UNIVERSITY: YOSHIO NISHIMOTO, STEPHAN IRLE
     MOSCOW STATE UNIVERSITY: VLADIMIR MIRONOV


 PARALLEL VERSION RUNNING ON       16 PROCESSORS IN        1 NODES.

 EXECUTION OF GAMESS BEGUN Fri Dec  6 09:47:19 2019

            ECHO OF THE FIRST FEW INPUT CARDS -
 INPUT CARD>!*** FMO 5.3 (Gamess) INPUT generated by Facio 22.1.1.32 ***                    
 INPUT CARD> $CONTRL RUNTYP=ENERGY NPRINT=-5 ISPHER=1 MAXIT=200 $END                        
 INPUT CARD> $SYSTEM MWORDS=63 MEMDDI=63 $END                                               
 INPUT CARD> $GDDI NGROUP=1 $END                                                            
 INPUT CARD> $SCF DIRSCF=.TRUE. NPUNCH=0 $END                                               
 INPUT CARD>!*** NumCPU : 2  MemPerNode : 512MB                                             
 INPUT CARD> $PCM SOLVNT=WATER IEF=-10 ICOMP=2 ICAV=1 IDISP=1 IFMO=-1 $END                  
 INPUT CARD> $PCMCAV RADII=SUAHF $END                                                       
 INPUT CARD> $TESCAV NTSALL=60 $END                                                         
 INPUT CARD> $FMOPRP                                                                        
 INPUT CARD>    NAODIR=200                                                                  
 INPUT CARD>    NGRFMO(1)=1, 1, 0, 0, 0,   0, 0, 0, 0, 0                                    
 INPUT CARD>    IPIEDA=1                                                                    
 INPUT CARD>    NPRINT=9                                                                    
 INPUT CARD> $END                                                                           
 INPUT CARD> $FMO                                                                           
 INPUT CARD>      SCFTYP(1)=RHF                                                             
 INPUT CARD>      MODGRD=10                                                                 
 INPUT CARD>      MODMUL=0                                                                  
 INPUT CARD>      MAXCAO=5                                                                  
 INPUT CARD>      MAXBND=13                                                                 
 INPUT CARD>      NLAYER=1                                                                  
 INPUT CARD>      MPLEVL(1)=2                                                               
 INPUT CARD>      NFRAG=11                                                                  
 INPUT CARD>      ICHARG(1)=-1, -1, -1, -1, -1, -1, -1, -1, -1, -1, 0                       
 INPUT CARD>      FRGNAM(1)=F1, F2, F3, F4, F5, F6, F7, F8, F9, F10, F11                    
 INPUT CARD>      indat(1)=0                                                                
 INPUT CARD>               1   -35   0                                                      
 INPUT CARD>               36   -66   0                                                     
 INPUT CARD>               67   -97   0                                                     
 INPUT CARD>               98   -127   0                                                    
 INPUT CARD>               128   -157   0                                                   
 INPUT CARD>               158   -188   0                                                   
 INPUT CARD>               189   -219   0                                                   
 INPUT CARD>               220   -250   0                                                   
 INPUT CARD>               251   -284   0                                                   
 INPUT CARD>               285   -318   0                                                   
 INPUT CARD>               319   -345   0                                                   
 INPUT CARD> $END                                                                           
 INPUT CARD>                                                                                
 INPUT CARD> $FMOBND                                                                        
 INPUT CARD>   -36   35       6-31G*    MINI                                                
 INPUT CARD>   -67   66       6-31G*    MINI                                                
 INPUT CARD>   -98   97       6-31G*    MINI                                                
 INPUT CARD>   -128   127       6-31G*    MINI                                              
 INPUT CARD>   -158   157       6-31G*    MINI                                              
 INPUT CARD>   -189   188       6-31G*    MINI                                              
 INPUT CARD>   -220   219       6-31G*    MINI                                              
 INPUT CARD>   -251   250       6-31G*    MINI                                              
 INPUT CARD>   -285   284       6-31G*    MINI                                              


 -------------------------------------------------------------
 GROUP DDI, PROGRAMMED BY: RYAN M. OLSON AND DMITRI G. FEDOROV
        FEDOROV ET AL., J. COMPUT. CHEM., 25 (2004) 872.
 -------------------------------------------------------------

 -------------------------------------------------------
 GDDI: INITIALIZATION COMPLETED FOR GROUP     1 OF     1
 WITH    16 PROCESSES BALTYP=DLB   global rank=        0
 -------------------------------------------------------

   63000000 WORDS OF MEMORY AVAILABLE


     RUN TITLE
     ---------
  FMO calculation                                                                

 THE POINT GROUP OF THE MOLECULE IS C1      
 THE ORDER OF THE PRINCIPAL AXIS IS     0

 ATOM   ATOMIC CHARGE
 H.1-1       1.0
 O.1-1       8.0
 C.1-1       6.0
 N.1-1       7.0
 P.1-1      15.0

     ATOMIC BASIS SET LIBRARY
     ----------------
 THE CONTRACTED PRIMITIVE FUNCTIONS HAVE BEEN UNNORMALIZED
 THE CONTRACTED BASIS FUNCTIONS ARE NOW NORMALIZED TO UNITY

  SHELL TYPE  PRIMITIVE        EXPONENT          CONTRACTION COEFFICIENT(S)

 H.1-1     

      1   S       1            18.7311370    0.033494604338
      1   S       2             2.8253944    0.234726953484
      1   S       3             0.6401217    0.813757326146

      2   S       4             0.1612778    1.000000000000

 O.1-1     

      3   S       5          5484.6716600    0.001831074430
      3   S       6           825.2349460    0.013950172200
      3   S       7           188.0469580    0.068445078098
      3   S       8            52.9645000    0.232714335992
      3   S       9            16.8975704    0.470192897984
      3   S      10             5.7996353    0.358520852987

      4   L      11            15.5396162   -0.110777549525    0.070874268231
      4   L      12             3.5999336   -0.148026262701    0.339752839147
      4   L      13             1.0137618    1.130767015354    0.727158577316

      5   L      14             0.2700058    1.000000000000    1.000000000000

      6   D      15             0.8000000    1.000000000000

 C.1-1     

      7   S      16          3047.5248800    0.001834737132
      7   S      17           457.3695180    0.014037322813
      7   S      18           103.9486850    0.068842622264
      7   S      19            29.2101553    0.232184443216
      7   S      20             9.2866630    0.467941348435
      7   S      21             3.1639270    0.362311985337

      8   L      22             7.8682723   -0.119332419775    0.068999066591
      8   L      23             1.8812885   -0.160854151696    0.316423960957
      8   L      24             0.5442493    1.143456437840    0.744308290898

      9   L      25             0.1687145    1.000000000000    1.000000000000

     10   D      26             0.8000000    1.000000000000

 N.1-1     

     11   S      27          4173.5114600    0.001834772160
     11   S      28           627.4579110    0.013994627002
     11   S      29           142.9020930    0.068586551812
     11   S      30            40.2343293    0.232240873040
     11   S      31            12.8202129    0.469069948082
     11   S      32             4.3904370    0.360455199063

     12   L      33            11.6263619   -0.114961181702    0.067579743878
     12   L      34             2.7162798   -0.169117478561    0.323907295893
     12   L      35             0.7722184    1.145851947027    0.740895139755

     13   L      36             0.2120315    1.000000000000    1.000000000000

     14   D      37             0.8000000    1.000000000000

 P.1-1     

     15   S      38         19413.3000000    0.001851598923
     15   S      39          2909.4200000    0.014206191735
     15   S      40           661.3640000    0.069999459277
     15   S      41           185.7590000    0.240078860331
     15   S      42            59.1943000    0.484761717984
     15   S      43            20.0310000    0.335199804993

     16   L      44           339.4780000   -0.002782170105    0.004564616191
     16   L      45            81.0101000   -0.036049901354    0.033693571881
     16   L      46            25.8780000   -0.116631004382    0.139754883368
     16   L      47             9.4522100    0.096832803638    0.339361716786
     16   L      48             3.6656600    0.614418023082    0.450920623685
     16   L      49             1.4674600    0.403798015170    0.238585800889

     17   L      50             2.1562300   -0.252924113863   -0.017765312733
     17   L      51             0.7489970    0.032851844678    0.274058196433
     17   L      52             0.2831450    1.081254761783    0.785421562957

     18   L      53             0.0998317    1.000000000000    1.000000000000

     19   D      54             0.5500000    1.000000000000

 TOTAL NUMBER OF BASIS SET SHELLS             =   19
 NUMBER OF CARTESIAN GAUSSIAN BASIS FUNCTIONS =   66

     $CONTRL OPTIONS
     ---------------
 SCFTYP=RHF          RUNTYP=ENERGY       EXETYP=RUN     
 MPLEVL=       0     CITYP =NONE         CCTYP =NONE         VBTYP =NONE    
 DFTTYP=NONE         TDDFT =NONE    
 MULT  =       1     ICHARG=       0     NZVAR =       0     COORD =UNIQUE  
 PP    =NONE         RELWFN=NONE         LOCAL =NONE         NUMGRD=       F
 ISPHER=       1     NOSYM =       0     MAXIT =     200     UNITS =ANGS    
 PLTORB=       F     MOLPLT=       F     AIMPAC=       F     FRIEND=        
 NPRINT=      -5     IREST =       0     GEOM  =INPUT   
 NORMF =       0     NORMP =       0     ITOL  =      24     ICUT  =      12
 INTTYP=BEST         GRDTYP=BEST         QMTTOL= 1.0E-06

     $SYSTEM OPTIONS
     ---------------
  REPLICATED MEMORY=    63000000 WORDS (ON EVERY NODE).
 DISTRIBUTED MEMDDI=          63 MILLION WORDS IN AGGREGATE,
 MEMDDI DISTRIBUTED OVER  16 PROCESSORS IS     3937500 WORDS/PROCESSOR.
 TOTAL MEMORY REQUESTED ON EACH PROCESSOR=    66937500 WORDS.
 TIMLIM=      525600.00 MINUTES, OR     365.0 DAYS.
 PARALL= T  BALTYP=  DLB     KDIAG=    0  COREFL= F
 MXSEQ2=     300 MXSEQ3=     150  mem10=         0

 ** LOOKING UP INTERNALLY STORED DATA FOR SOLVENT=WATER    **
 OPTICAL AND PHYSICAL CONSTANTS:
 EPS= 78.390; EPSINF=  1.776; RSOLV=  1.385 A; VMOL=  18.070 ML/MOL;
 TCE= .25700E-03 1/K; STEN= 71.810 DYN/CM;  DSTEN=  0.6500; CMF=  1.2770


     -----------------------------------
     INPUT FOR PCM SOLVATION CALCULATION 
     -----------------------------------
     IEF   =     -10
     ICOMP =       2     IFIELD=       0     ICAV  =       1
     IDISP =       1     IREP  =       0     IDP   =       0

     SOLVNT=WATER        EPS   = 78.3900     EPSINF=  1.7760
     VMOL  = 18.0700     TCE   =  0.00025700 STEN  = 71.8100
     DSTEN =  0.6500     CMF   =  1.2770     RSOLV =  1.3850

     NESFP =       0
     OMEGA = 40.0000     RET   =100.0000     FRO   =  0.7000

     TABS  =298.0000     IPRINT=       0

     --------------------------------
     INPUT FOR ITERATIVE C-PCM METHOD 
     --------------------------------
     IPCMIT  =         1     MXDIIS  =        50
     MXITR1  =       200     MXITR2  =       200
     THRES   = 0.100E-09     IMUL    =         3
     RCUT(1) =   20.0000     RCUT(2) =   50.0000

     IDIRCT  =         1
     IMGABI  =         0     RABI    =    4.0000
     IMGASC  =         0     RASC    =   20.0000
     THRSLS  = 0.500E-03     DENSLS  =    0.0100
     IEFPOL  =         1     REFPOL  =    0.0000

     INPUT FOR ISOTROPIC DIELECTRICS
     -------------------------------
     EPS=    78.39

          ----------------
          PROPERTIES INPUT
          ----------------

     MOMENTS            FIELD           POTENTIAL          DENSITY
 IEMOM =       1   IEFLD =       0   IEPOT =       0   IEDEN =       0
 WHERE =COMASS     WHERE =NUCLEI     WHERE =NUCLEI     WHERE =NUCLEI  
 OUTPUT=BOTH       OUTPUT=BOTH       OUTPUT=NONE       OUTPUT=BOTH    
 IEMINT=       0   IEFINT=       0                     IEDINT=       0
                                                       MORB  =       0
          EXTRAPOLATION IN EFFECT
          SOSCF IN EFFECT
 ORBITAL PRINTING OPTION: NPREO=     1 32767     2     1

     -------------------------------
     INTEGRAL TRANSFORMATION OPTIONS
     -------------------------------
     NWORD  =            0
     CUTOFF = 1.0E-10     MPTRAN =       0
     DIRTRF =       T     AOINTS =DUP     

          ----------------------
          INTEGRAL INPUT OPTIONS
          ----------------------
 NOPK  =       1 NORDER=       0 SCHWRZ=       T

 ..... DONE SETTING UP THE RUN .....
 CPU     0: STEP CPU TIME=     0.03 TOTAL CPU TIME=          0.0 (      0.0 MIN)
 TOTAL WALL CLOCK TIME=          0.1 SECONDS, CPU UTILIZATION IS    50.00%
 CPU     0: STEP CPU TIME=     0.00 TOTAL CPU TIME=          0.0 (      0.0 MIN)
 TOTAL WALL CLOCK TIME=          0.1 SECONDS, CPU UTILIZATION IS    50.00%

                    ----------------------
                    AO INTEGRAL TECHNOLOGY
                    ----------------------
     S,P,L SHELL ROTATED AXIS INTEGRALS, REPROGRAMMED BY
        KAZUYA ISHIMURA (IMS) AND JOSE SIERRA (SYNSTAR).
     S,P,D,L SHELL ROTATED AXIS INTEGRALS PROGRAMMED BY
        KAZUYA ISHIMURA (INSTITUTE FOR MOLECULAR SCIENCE).
     S,P,D,F,G SHELL TO TOTAL QUARTET ANGULAR MOMENTUM SUM 5,
        ERIC PROGRAM BY GRAHAM FLETCHER (ELORET AND NASA ADVANCED
        SUPERCOMPUTING DIVISION, AMES RESEARCH CENTER).
     S,P,D,F,G,L SHELL GENERAL RYS QUADRATURE PROGRAMMED BY
        MICHEL DUPUIS (PACIFIC NORTHWEST NATIONAL LABORATORY).
 Setting modorb=1 flag...
 Setting modorb=1 flag...

          -----------------------
          MP2 CONTROL INFORMATION
          -----------------------
          NACORE =        8  NBCORE =        8
          LMOMP2 =        F  AOINTS = DUP     
          METHOD =        2  NWORD  =               0
          MP2PRP =        F  OSPT   = NONE    
          CUTOFF = 1.00E-12  CPHFBS = BASISAO 
          CODE   = IMS     

          NUMBER OF CORE -A-  ORBITALS =     8
          NUMBER OF CORE -B-  ORBITALS =     8
          NUMBER OF OCC. -A-  ORBITALS =    18
          NUMBER OF OCC. -B-  ORBITALS =    18
          NUMBER OF MOLECULAR ORBITALS =    66
          NUMBER OF   BASIS  FUNCTIONS =    66

 CPU     0: STEP CPU TIME=     0.04 TOTAL CPU TIME=          0.1 (      0.0 MIN)
 TOTAL WALL CLOCK TIME=          0.1 SECONDS, CPU UTILIZATION IS    70.00%
 CPU     0: STEP CPU TIME=     0.00 TOTAL CPU TIME=          0.1 (      0.0 MIN)
 TOTAL WALL CLOCK TIME=          0.1 SECONDS, CPU UTILIZATION IS    70.00%

     INPUT FOR CAVITY DEFINITION 
     ---------------------------
   ATOM               COORDINATES                RADIUS       EPS
      1     10.8710     -0.0750     11.4910      0.0100     78.3900
      2     10.1220     -0.2510     10.8910      1.5900     78.3900
      3      8.9260     -0.1740     11.6800      1.7700     78.3900
      4      8.8930      0.8170     12.1870      0.0100     78.3900
      5      8.9620     -0.9600     12.4660      0.0100     78.3900
      6      7.6270     -0.3610     10.8770      1.7700     78.3900
      7      6.7490     -0.0310     11.4750      0.0100     78.3900
      8      7.6440      0.4270      9.6500      1.5900     78.3900
      9      7.1070     -0.3470      8.5930      1.7700     78.3900
     10      6.2850      0.2590      8.1450      0.0100     78.3900
     11      8.1170     -0.6250      7.5700      1.6800     78.3900
     12      9.0920     -1.1330      5.6710      1.7700     78.3900
     13     10.1180     -0.8700      6.5690      1.6800     78.3900
     14      9.4870     -0.5750      7.6800      1.7700     78.3900
     15      9.9700     -0.2880      8.6140      0.0100     78.3900
     16      7.8820     -1.6490      3.7000      1.6800     78.3900
     17      6.7760     -1.4880      4.4280      1.7700     78.3900
     18      5.8360     -1.6410      3.8900      0.0100     78.3900
     19      6.6510     -1.1500      5.7120      1.6800     78.3900
     20      7.8570     -0.9860      6.2780      1.7700     78.3900
     21      9.0900     -1.4840      4.3070      1.7700     78.3900
     22     10.2150     -1.6480      3.5900      1.6800     78.3900
     23     11.1290     -1.4430      3.9460      0.0100     78.3900
     24     10.0980     -1.9200      2.6300      0.0100     78.3900
     25      6.5270     -1.6150      9.1820      1.7700     78.3900
     26      6.6320     -2.4860      8.4980      0.0100     78.3900
     27      5.1630     -1.4330      9.5030      1.5900     78.3900
     28      4.8660     -2.2890      9.8410      0.0100     78.3900
     29      7.3740     -1.8070     10.4380      1.7700     78.3900
     30      8.3670     -2.2390     10.1800      0.0100     78.3900
     31      6.7340     -2.5130     11.5170      1.5900     78.3900
     32      6.6320     -4.0780     11.5690      2.1000     78.3900
     33      5.8380     -4.4490     12.7600      1.5900     78.3900
     34      8.0010     -4.6310     11.4730      1.5900     78.3900
     35      5.8350     -4.4800     10.2760      1.5900     78.3900
     36      4.3940     -4.5190     10.1930      1.7700     78.3900
     37      3.9490     -3.5460     10.4960      0.0100     78.3900
     38      3.9870     -5.2980     10.8790      0.0100     78.3900
     39      3.9030     -4.8380      8.7640      1.7700     78.3900
     40      2.8220     -4.5950      8.6550      0.0100     78.3900
     41      4.6210     -4.0500      7.7790      1.5900     78.3900
     42      4.8930     -4.8420      6.6360      1.7700     78.3900
     43      4.3990     -4.3060      5.7920      0.0100     78.3900
     44      6.3520     -4.9650      6.3650      1.6800     78.3900
     45      7.2450     -4.9980      7.4040      1.7700     78.3900
     46      6.8200     -4.9100      8.3960      0.0100     78.3900
     47      8.5620     -5.1000      7.1990      1.7700     78.3900
     48      9.2770     -5.1140      8.0200      0.0100     78.3900
     49      6.8140     -5.0920      5.0620      1.7700     78.3900
     50      5.9880     -5.0840      4.1380      1.5900     78.3900
     51      8.1460     -5.2250      4.8250      1.6800     78.3900
     52      9.0150     -5.2170      5.8550      1.7700     78.3900
     53     10.3240     -5.3270      5.6210      1.6800     78.3900
     54     10.6830     -5.3940      4.6950      0.0100     78.3900
     55     10.9820     -5.3310      6.3770      0.0100     78.3900
     56      4.2160     -6.1930      6.8190      1.7700     78.3900
     57      4.8310     -7.0220      6.4120      0.0100     78.3900
     58      2.9410     -6.2160      6.2050      1.5900     78.3900
     59      2.5940     -7.1170      6.3130      0.0100     78.3900
     60      4.1120     -6.2960      8.3420      1.7700     78.3900
     61      5.0900     -6.6100      8.7750      0.0100     78.3900
     62      3.0140     -7.0820      8.8450      1.5900     78.3900
     63      3.0700     -8.6470      8.8590      2.1000     78.3900
     64      1.8960     -9.1460      9.6070      1.5900     78.3900
     65      4.4060     -9.0640      9.3260      1.5900     78.3900
     66      2.9310     -9.0380      7.3450      1.5900     78.3900
     67      1.6720     -9.2880      6.6890      1.7700     78.3900
     68      1.0710     -8.3500      6.6330      0.0100     78.3900
     69      1.0840    -10.0370      7.2620      0.0100     78.3900
     70      1.8330     -9.8260      5.2450      1.7700     78.3900
     71      0.8490     -9.8120      4.7290      0.0100     78.3900
     72      2.7210     -8.9620      4.4780      1.5900     78.3900
     73      3.5660     -9.7540      3.6480      1.7700     78.3900
     74      3.3880     -9.3870      2.6100      0.0100     78.3900
     75      5.0040     -9.5820      3.9890      1.6800     78.3900
     76      5.3530     -9.4080      5.3040      1.7700     78.3900
     77      4.5350     -9.4010      6.0040      0.0100     78.3900
     78      6.6170     -9.2180      5.6850      1.7700     78.3900
     79      6.8950     -9.0430      6.7230      0.0100     78.3900
     80      6.0030     -9.6660      3.0240      1.7700     78.3900
     81      5.6920     -9.9100      1.8460      1.5900     78.3900
     82      7.2890     -9.4750      3.3850      1.6800     78.3900
     83      7.6080     -9.2390      4.6720      1.7700     78.3900
     84      8.8750     -9.0340      4.9980      1.6800     78.3900
     85      9.5360     -9.1950      4.2580      0.0100     78.3900
     86      9.1930     -9.0100      5.9470      0.0100     78.3900
     87      3.1080    -11.2020      3.7340      1.7700     78.3900
     88      3.9580    -11.9160      3.7040      0.0100     78.3900
     89      2.2130    -11.5000      2.6800      1.5900     78.3900
     90      1.8590    -12.3830      2.8610      0.0100     78.3900
     91      2.4110    -11.2480      5.0930      1.7700     78.3900
     92      3.1750    -11.3530      5.8950      0.0100     78.3900
     93      1.3520    -12.2320      5.1800      1.5900     78.3900
     94      1.5360    -13.5740      5.9700      2.1000     78.3900
     95      0.2250    -14.2560      6.0500      1.5900     78.3900
     96      2.2190    -13.2790      7.2480      1.5900     78.3900
     97      2.5090    -14.4350      5.0870      1.5900     78.3900
     98      2.0690    -15.2170      3.9560      1.7700     78.3900
     99      1.3180    -14.6590      3.3520      0.0100     78.3900
    100      1.5960    -16.1600      4.3130      0.0100     78.3900
    101      3.2150    -15.6080      2.9970      1.7700     78.3900
    102      2.8010    -15.9980      2.0440      0.0100     78.3900
    103      4.0260    -14.4490      2.6710      1.5900     78.3900
    104      5.3910    -14.8200      2.5870      1.7700     78.3900
    105      5.7080    -14.5360      1.5530      0.0100     78.3900
    106      6.2090    -14.1070      3.6090      1.6800     78.3900
    107      5.6610    -13.7290      4.8080      1.7700     78.3900
    108      4.6190    -13.9860      4.9380      0.0100     78.3900
    109      7.5140    -13.8090      3.3140      1.7700     78.3900
    110      8.0180    -14.1060      2.2380      1.5900     78.3900
    111      8.2050    -13.1510      4.3060      1.6800     78.3900
    112      9.1650    -12.9300      4.1130      0.0100     78.3900
    113      7.7070    -12.7200      5.5180      1.7700     78.3900
    114      8.4250    -12.1040      6.3020      1.5900     78.3900
    115      6.3340    -13.0460      5.7390      1.7700     78.3900
    116      5.8610    -12.7270      6.6640      0.0100     78.3900
    117      5.4730    -16.3340      2.7300      1.7700     78.3900
    118      6.3760    -16.6510      3.2940      0.0100     78.3900
    119      5.4690    -16.9600      1.4590      1.5900     78.3900
    120      5.4480    -17.9100      1.6340      0.0100     78.3900
    121      4.2040    -16.6600      3.5170      1.7700     78.3900
    122      4.3580    -16.4340      4.5990      0.0100     78.3900
    123      3.6740    -17.9820      3.2700      1.5900     78.3900
    124      3.8230    -19.1400      4.3140      2.1000     78.3900
    125      2.9270    -20.2550      3.9410      1.5900     78.3900
    126      3.6900    -18.5850      5.6750      1.5900     78.3900
    127      5.2930    -19.6300      4.1070      1.5900     78.3900
    128      5.7750    -20.2270      2.8880      1.7700     78.3900
    129      5.3800    -19.7140      1.9790      0.0100     78.3900
    130      5.4470    -21.2910      2.8400      0.0100     78.3900
    131      7.3110    -20.2010      2.8220      1.7700     78.3900
    132      7.6730    -20.6480      1.8690      0.0100     78.3900
    133      7.8020    -18.8230      2.8570      1.5900     78.3900
    134      8.9840    -18.7690      3.6520      1.7700     78.3900
    135      9.7830    -18.3320      3.0120      0.0100     78.3900
    136      8.7940    -17.9200      4.8750      1.6800     78.3900
    137      7.5610    -17.8530      5.4690      1.7700     78.3900
    138      6.7930    -18.4020      4.9570      0.0100     78.3900
    139      9.8300    -17.1460      5.3560      1.7700     78.3900
    140     10.9320    -17.1020      4.8290      1.5900     78.3900
    141      9.5310    -16.3840      6.4590      1.6800     78.3900
    142     10.3120    -15.8870      6.8610      0.0100     78.3900
    143      8.3140    -16.2760      7.0960      1.7700     78.3900
    144      8.1760    -15.5200      8.0550      1.5900     78.3900
    145      7.2810    -17.0760      6.5210      1.7700     78.3900
    146      6.2760    -17.0140      6.9300      0.0100     78.3900
    147      9.3640    -20.2130      3.9560      1.7700     78.3900
    148      9.9260    -20.3120      4.9090      0.0100     78.3900
    149     10.0960    -20.7640      2.8830      1.5900     78.3900
    150     10.3170    -21.6600      3.1640      0.0100     78.3900
    151      8.0210    -20.9080      3.9910      1.7700     78.3900
    152      7.4680    -20.6550      4.9210      0.0100     78.3900
    153      8.0610    -22.3380      3.7520      1.5900     78.3900
    154      8.7150    -23.2980      4.8160      2.1000     78.3900
    155      8.0010    -24.5870      4.7010      1.5900     78.3900
    156      8.7040    -22.6500      6.1460      1.5900     78.3900
    157     10.2010    -23.4660      4.3020      1.5900     78.3900
    158     11.3500    -23.3620      5.1760      1.7700     78.3900
    159     11.3490    -24.2240      5.8860      0.0100     78.3900
    160     11.3110    -22.4200      5.7800      0.0100     78.3900
    161     12.7100    -23.3540      4.4140      1.7700     78.3900
    162     13.5430    -23.6360      5.0910      0.0100     78.3900
    163     12.7090    -24.2940      3.2920      1.5900     78.3900
    164     13.3070    -23.6840      2.1430      1.7700     78.3900
    165     14.1580    -24.3510      1.8740      0.0100     78.3900
    166     12.3670    -23.5940      0.9870      1.6800     78.3900
    167     11.0280    -23.4240      1.2220      1.7700     78.3900
    168     10.7390    -23.3760      2.2550      0.0100     78.3900
    169     10.1340    -23.3360      0.2340      1.7700     78.3900
    170      9.0690    -23.2090      0.4230      0.0100     78.3900
    171     12.8240    -23.6640     -0.3270      1.7700     78.3900
    172     14.0380    -23.8230     -0.5330      1.5900     78.3900
    173     11.9360    -23.5730     -1.3510      1.6800     78.3900
    174     10.6210    -23.4240     -1.0960      1.7700     78.3900
    175      9.7590    -23.3510     -2.1080      1.6800     78.3900
    176     10.0990    -23.4540     -3.0460      0.0100     78.3900
    177      8.7750    -23.2410     -1.9620      0.0100     78.3900
    178     13.8740    -22.3270      2.5440      1.7700     78.3900
    179     13.6990    -21.5510      1.7650      0.0100     78.3900
    180     15.2570    -22.4040      2.8260      1.5900     78.3900
    181     15.5200    -21.5620      3.2280      0.0100     78.3900
    182     13.0610    -21.9980      3.7870      1.7700     78.3900
    183     12.0950    -21.6020      3.4440      0.0100     78.3900
    184     13.7120    -21.1390      4.7540      1.5900     78.3900
    185     13.4730    -19.5820      4.6680      2.1000     78.3900
    186     13.4610    -19.0520      6.0470      1.5900     78.3900
    187     12.3060    -19.3450      3.8160      1.5900     78.3900
    188     14.7410    -19.0530      3.9170      1.5900     78.3900
    189     16.0310    -19.0140      4.5510      1.7700     78.3900
    190     16.3170    -20.0310      4.9130      0.0100     78.3900
    191     16.0240    -18.3110      5.4240      0.0100     78.3900
    192     17.1060    -18.5540      3.5600      1.7700     78.3900
    193     18.1190    -18.6310      4.0050      0.0100     78.3900
    194     17.0790    -19.4090      2.3710      1.5900     78.3900
    195     17.2990    -18.6140      1.2140      1.7700     78.3900
    196     18.1680    -19.0650      0.6780      0.0100     78.3900
    197     16.1210    -18.5640      0.2840      1.6800     78.3900
    198     14.9230    -19.1210      0.6540      1.7700     78.3900
    199     14.8560    -19.4950      1.6750      0.0100     78.3900
    200     13.8750    -19.1450     -0.1770      1.7700     78.3900
    201     12.9270    -19.5920      0.1040      0.0100     78.3900
    202     16.2540    -18.0380     -1.0020      1.7700     78.3900
    203     17.3690    -17.6410     -1.3730      1.5900     78.3900
    204     15.1910    -18.0190     -1.8520      1.6800     78.3900
    205     14.0260    -18.5710     -1.4690      1.7700     78.3900
    206     12.9990    -18.5910     -2.3190      1.6800     78.3900
    207     13.1060    -18.1760     -3.2230      0.0100     78.3900
    208     12.1030    -18.9500     -2.0620      0.0100     78.3900
    209     17.6940    -17.2440      1.7190      1.7700     78.3900
    210     17.3650    -16.4900      1.0290      0.0100     78.3900
    211     19.0950    -17.1170      1.8780      1.5900     78.3900
    212     19.2520    -16.2600      2.2970      0.0100     78.3900
    213     16.9420    -17.1220      3.0320      1.7700     78.3900
    214     15.8550    -16.9460      2.8630      0.0100     78.3900
    215     17.5230    -16.1810      3.9520      1.5900     78.3900
    216     17.1330    -14.6610      4.0340      2.1000     78.3900
    217     18.2960    -13.9280      4.5830      1.5900     78.3900
    218     15.8630    -14.5570      4.7820      1.5900     78.3900
    219     16.8790    -14.1620      2.5600      1.5900     78.3900
    220     17.9520    -13.8160      1.6530      1.7700     78.3900
    221     18.8010    -14.5280      1.7370      0.0100     78.3900
    222     18.3450    -12.8050      1.8960      0.0100     78.3900
    223     17.5120    -13.7890      0.1740      1.7700     78.3900
    224     18.3810    -13.8720     -0.5120      0.0100     78.3900
    225     16.6160    -14.8900     -0.1180      1.5900     78.3900
    226     15.5540    -14.5000     -0.9190      1.7700     78.3900
    227     15.5820    -15.1870     -1.7950      0.0100     78.3900
    228     14.2200    -14.6250     -0.2630      1.6800     78.3900
    229     14.1290    -14.8480      1.0890      1.7700     78.3900
    230     15.0700    -14.9980      1.6110      0.0100     78.3900
    231     12.9470    -14.9410      1.7020      1.7700     78.3900
    232     12.8530    -15.1250      2.7710      0.0100     78.3900
    233     13.0570    -14.5580     -1.0240      1.7700     78.3900
    234     13.1600    -14.4250     -2.2550      1.5900     78.3900
    235     11.8420    -14.6550     -0.4310      1.6800     78.3900
    236     11.7770    -14.8400      0.9020      1.7700     78.3900
    237     10.5980    -14.9740      1.4900      1.6800     78.3900
    238      9.7620    -14.8730      0.9550      0.0100     78.3900
    239     10.5100    -15.2350      2.4460      0.0100     78.3900
    240     15.8750    -13.1020     -1.3400      1.7700     78.3900
    241     14.9730    -12.4880     -1.3320      0.0100     78.3900
    242     16.5440    -13.1260     -2.5920      1.5900     78.3900
    243     15.9060    -13.3980     -3.2690      0.0100     78.3900
    244     16.7250    -12.5540     -0.2040      1.7700     78.3900
    245     16.0880    -12.3010      0.6740      0.0100     78.3900
    246     17.6150    -11.4760     -0.5560      1.5900     78.3900
    247     17.1120     -9.9910     -0.7140      2.1000     78.3900
    248     18.1590     -9.2250     -1.4270      1.5900     78.3900
    249     16.7560     -9.4990      0.6340      1.5900     78.3900
    250     15.8090    -10.0040     -1.5980      1.5900     78.3900
    251     15.8250    -10.1530     -3.0350      1.7700     78.3900
    252     16.6130    -10.8650     -3.3630      0.0100     78.3900
    253     16.0700     -9.1760     -3.4950      0.0100     78.3900
    254     14.4690    -10.6060     -3.6470      1.7700     78.3900
    255     14.6320    -11.0810     -4.6410      0.0100     78.3900
    256     13.7730    -11.5730     -2.8240      1.5900     78.3900
    257     12.4190    -11.2400     -2.6340      1.7700     78.3900
    258     11.8300    -12.1600     -2.8520      0.0100     78.3900
    259     12.1320    -10.8180     -1.2450      1.6800     78.3900
    260     10.8960    -10.6630     -0.6650      1.7700     78.3900
    261      7.4320    -10.8250     -0.8200      1.6800     78.3900
    262      7.2710    -11.1410     -1.7540      0.0100     78.3900
    263      6.6570    -10.6620     -0.2150      0.0100     78.3900
    264      9.7030    -10.8800     -1.2520      1.6800     78.3900
    265      8.6810    -10.6600     -0.4190      1.7700     78.3900
    266      8.8440    -10.2560      0.8850      1.6800     78.3900
    267      8.0290    -10.0840      1.4520      0.0100     78.3900
    268     10.0670    -10.0200      1.5050      1.7700     78.3900
    269     10.1870     -9.6570      2.6790      1.5900     78.3900
    270     11.1500    -10.2630      0.6340      1.7700     78.3900
    271     12.5110    -10.1830      0.8760      1.6800     78.3900
    272     13.0490    -10.5320     -0.2600      1.7700     78.3900
    273     14.1140    -10.6300     -0.4210      0.0100     78.3900
    274     12.1130    -10.1760     -3.6420      1.7700     78.3900
    275     11.3590     -9.4680     -3.2530      0.0100     78.3900
    276     11.6710    -10.7650     -4.8510      1.5900     78.3900
    277     11.7420    -10.0770     -5.5260      0.0100     78.3900
    278     13.4630     -9.4800     -3.8120      1.7700     78.3900
    279     13.6380     -8.7810     -2.9600      0.0100     78.3900
    280     13.6510     -8.8810     -5.1030      1.5900     78.3900
    281     13.7850     -7.3400     -5.2950      2.1000     78.3900
    282     13.9350     -7.0920     -6.7510      1.5900     78.3900
    283     14.8360     -6.7960     -4.4090      1.5900     78.3900
    284     12.3790     -6.8100     -4.8200      1.5900     78.3900
    285     11.2420     -6.9950     -5.7040      1.7700     78.3900
    286     11.2840     -7.9760     -6.2410      0.0100     78.3900
    287     11.2550     -6.1980     -6.4770      0.0100     78.3900
    288      9.8900     -6.9360     -4.9640      1.7700     78.3900
    289      9.0870     -7.3480     -5.6080      0.0100     78.3900
    290      9.9310     -7.7520     -3.7650      1.5900     78.3900
    291      9.2750     -7.0960     -2.7000      1.7700     78.3900
    292      8.5080     -7.8100     -2.3240      0.0100     78.3900
    293     10.1990     -6.7730     -1.5950      1.6800     78.3900
    294      9.8120     -6.5250     -0.3070      1.7700     78.3900
    295      7.2990     -6.1920      2.0140      1.6800     78.3900
    296      6.4830     -6.3920      1.4780      0.0100     78.3900
    297      7.1920     -5.8430      2.9490      0.0100     78.3900
    298      8.5490     -6.5320      0.1370      1.6800     78.3900
    299      8.4680     -6.2340      1.4250      1.7700     78.3900
    300      9.5550     -5.9480      2.2110      1.6800     78.3900
    301      9.3760     -5.7060      3.1700      0.0100     78.3900
    302     10.8780     -5.9420      1.7820      1.7700     78.3900
    303     11.8030     -5.6790      2.5590      1.5900     78.3900
    304     10.9720     -6.2590      0.3940      1.7700     78.3900
    305     12.0790     -6.3450     -0.4430      1.6800     78.3900
    306     11.5730     -6.6530     -1.6160      1.7700     78.3900
    307     12.1490     -6.8260     -2.5260      0.0100     78.3900
    308      8.5850     -5.8670     -3.2670      1.7700     78.3900
    309      8.6070     -5.0230     -2.5480      0.0100     78.3900
    310      7.2410     -6.1570     -3.6110      1.5900     78.3900
    311      6.8510     -5.3620     -4.0070      0.0100     78.3900
    312      9.4400     -5.5510     -4.4930      1.7700     78.3900
    313     10.3720     -5.0290     -4.1790      0.0100     78.3900
    314      8.7420     -4.8850     -5.5690      1.5900     78.3900
    315      8.7860     -3.3290     -5.7450      2.1000     78.3900
    316      8.6660     -3.0350     -7.1870      1.5900     78.3900
    317      9.9700     -2.7860     -5.0480      1.5900     78.3900
    318      7.4950     -2.8230     -5.0070      1.5900     78.3900
    319      6.1920     -2.8720     -5.6230      1.7700     78.3900
    320      6.0490     -3.8160     -6.1990      0.0100     78.3900
    321      6.0890     -2.0180     -6.3330      0.0100     78.3900
    322      5.0450     -2.7980     -4.5880      1.7700     78.3900
    323      4.0850     -3.1020     -5.0630      0.0100     78.3900
    324      5.2770     -3.7110     -3.4690      1.5900     78.3900
    325      4.8860     -3.0780     -2.2480      1.7700     78.3900
    326      4.1370     -3.7630     -1.7820      0.0100     78.3900
    327      6.0480     -2.8780     -1.3240      1.6800     78.3900
    328      7.3330     -2.8610     -1.8100      1.7700     78.3900
    329      7.4340     -3.1030     -2.8580      0.0100     78.3900
    330      5.8120     -2.6910      0.0220      1.7700     78.3900
    331      4.6770     -2.6670      0.4860      1.5900     78.3900
    332      6.9440     -2.5400      0.7990      1.6800     78.3900
    333      6.8180     -2.3990      1.7870      0.0100     78.3900
    334      8.2570     -2.5660      0.3650      1.7700     78.3900
    335      9.1910     -2.4890      1.1560      1.5900     78.3900
    336      8.4130     -2.7120     -1.0390      1.7700     78.3900
    337      9.4220     -2.7660     -1.4420      0.0100     78.3900
    338      4.1920     -1.7640     -2.6060      1.7700     78.3900
    339      4.4120     -0.9760     -1.8530      0.0100     78.3900
    340      2.7860     -1.9500     -2.7050      1.5900     78.3900
    341      2.3840     -1.1420     -3.0640      0.0100     78.3900
    342      4.8360     -1.4210     -3.9470      1.7700     78.3900
    343      5.8400     -0.9690     -3.7950      0.0100     78.3900
    344      4.0250     -0.5980     -4.8050      1.5900     78.3900
    345      3.8520      0.2610     -4.3810      0.0100     78.3900

     ----------------------------
     INPUT FOR TESSERA DEFINITION
     ----------------------------
     NTSALL  =        60     MTHALL  =         4
     MTHAUT  =         0     AUTFRE  =    2.0000
     NTSFRZ  =        60     KEEPSM  =         0
     AREAKP  =   10.0000     BONDRY  =    1.0000
     AREATL  =    0.0100

     SPHERE     INITS       METHOD
          1        60       FIXPVA
          2        60       FIXPVA
          3        60       FIXPVA
          4        60       FIXPVA
          5        60       FIXPVA
          6        60       FIXPVA
          7        60       FIXPVA
          8        60       FIXPVA
          9        60       FIXPVA
         10        60       FIXPVA
         11        60       FIXPVA
         12        60       FIXPVA
         13        60       FIXPVA
         14        60       FIXPVA
         15        60       FIXPVA
         16        60       FIXPVA
         17        60       FIXPVA
         18        60       FIXPVA
         19        60       FIXPVA
         20        60       FIXPVA
         21        60       FIXPVA
         22        60       FIXPVA
         23        60       FIXPVA
         24        60       FIXPVA
         25        60       FIXPVA
         26        60       FIXPVA
         27        60       FIXPVA
         28        60       FIXPVA
         29        60       FIXPVA
         30        60       FIXPVA
         31        60       FIXPVA
         32        60       FIXPVA
         33        60       FIXPVA
         34        60       FIXPVA
         35        60       FIXPVA
         36        60       FIXPVA
         37        60       FIXPVA
         38        60       FIXPVA
         39        60       FIXPVA
         40        60       FIXPVA
         41        60       FIXPVA
         42        60       FIXPVA
         43        60       FIXPVA
         44        60       FIXPVA
         45        60       FIXPVA
         46        60       FIXPVA
         47        60       FIXPVA
         48        60       FIXPVA
         49        60       FIXPVA
         50        60       FIXPVA
         51        60       FIXPVA
         52        60       FIXPVA
         53        60       FIXPVA
         54        60       FIXPVA
         55        60       FIXPVA
         56        60       FIXPVA
         57        60       FIXPVA
         58        60       FIXPVA
         59        60       FIXPVA
         60        60       FIXPVA
         61        60       FIXPVA
         62        60       FIXPVA
         63        60       FIXPVA
         64        60       FIXPVA
         65        60       FIXPVA
         66        60       FIXPVA
         67        60       FIXPVA
         68        60       FIXPVA
         69        60       FIXPVA
         70        60       FIXPVA
         71        60       FIXPVA
         72        60       FIXPVA
         73        60       FIXPVA
         74        60       FIXPVA
         75        60       FIXPVA
         76        60       FIXPVA
         77        60       FIXPVA
         78        60       FIXPVA
         79        60       FIXPVA
         80        60       FIXPVA
         81        60       FIXPVA
         82        60       FIXPVA
         83        60       FIXPVA
         84        60       FIXPVA
         85        60       FIXPVA
         86        60       FIXPVA
         87        60       FIXPVA
         88        60       FIXPVA
         89        60       FIXPVA
         90        60       FIXPVA
         91        60       FIXPVA
         92        60       FIXPVA
         93        60       FIXPVA
         94        60       FIXPVA
         95        60       FIXPVA
         96        60       FIXPVA
         97        60       FIXPVA
         98        60       FIXPVA
         99        60       FIXPVA
        100        60       FIXPVA
        101        60       FIXPVA
        102        60       FIXPVA
        103        60       FIXPVA
        104        60       FIXPVA
        105        60       FIXPVA
        106        60       FIXPVA
        107        60       FIXPVA
        108        60       FIXPVA
        109        60       FIXPVA
        110        60       FIXPVA
        111        60       FIXPVA
        112        60       FIXPVA
        113        60       FIXPVA
        114        60       FIXPVA
        115        60       FIXPVA
        116        60       FIXPVA
        117        60       FIXPVA
        118        60       FIXPVA
        119        60       FIXPVA
        120        60       FIXPVA
        121        60       FIXPVA
        122        60       FIXPVA
        123        60       FIXPVA
        124        60       FIXPVA
        125        60       FIXPVA
        126        60       FIXPVA
        127        60       FIXPVA
        128        60       FIXPVA
        129        60       FIXPVA
        130        60       FIXPVA
        131        60       FIXPVA
        132        60       FIXPVA
        133        60       FIXPVA
        134        60       FIXPVA
        135        60       FIXPVA
        136        60       FIXPVA
        137        60       FIXPVA
        138        60       FIXPVA
        139        60       FIXPVA
        140        60       FIXPVA
        141        60       FIXPVA
        142        60       FIXPVA
        143        60       FIXPVA
        144        60       FIXPVA
        145        60       FIXPVA
        146        60       FIXPVA
        147        60       FIXPVA
        148        60       FIXPVA
        149        60       FIXPVA
        150        60       FIXPVA
        151        60       FIXPVA
        152        60       FIXPVA
        153        60       FIXPVA
        154        60       FIXPVA
        155        60       FIXPVA
        156        60       FIXPVA
        157        60       FIXPVA
        158        60       FIXPVA
        159        60       FIXPVA
        160        60       FIXPVA
        161        60       FIXPVA
        162        60       FIXPVA
        163        60       FIXPVA
        164        60       FIXPVA
        165        60       FIXPVA
        166        60       FIXPVA
        167        60       FIXPVA
        168        60       FIXPVA
        169        60       FIXPVA
        170        60       FIXPVA
        171        60       FIXPVA
        172        60       FIXPVA
        173        60       FIXPVA
        174        60       FIXPVA
        175        60       FIXPVA
        176        60       FIXPVA
        177        60       FIXPVA
        178        60       FIXPVA
        179        60       FIXPVA
        180        60       FIXPVA
        181        60       FIXPVA
        182        60       FIXPVA
        183        60       FIXPVA
        184        60       FIXPVA
        185        60       FIXPVA
        186        60       FIXPVA
        187        60       FIXPVA
        188        60       FIXPVA
        189        60       FIXPVA
        190        60       FIXPVA
        191        60       FIXPVA
        192        60       FIXPVA
        193        60       FIXPVA
        194        60       FIXPVA
        195        60       FIXPVA
        196        60       FIXPVA
        197        60       FIXPVA
        198        60       FIXPVA
        199        60       FIXPVA
        200        60       FIXPVA
        201        60       FIXPVA
        202        60       FIXPVA
        203        60       FIXPVA
        204        60       FIXPVA
        205        60       FIXPVA
        206        60       FIXPVA
        207        60       FIXPVA
        208        60       FIXPVA
        209        60       FIXPVA
        210        60       FIXPVA
        211        60       FIXPVA
        212        60       FIXPVA
        213        60       FIXPVA
        214        60       FIXPVA
        215        60       FIXPVA
        216        60       FIXPVA
        217        60       FIXPVA
        218        60       FIXPVA
        219        60       FIXPVA
        220        60       FIXPVA
        221        60       FIXPVA
        222        60       FIXPVA
        223        60       FIXPVA
        224        60       FIXPVA
        225        60       FIXPVA
        226        60       FIXPVA
        227        60       FIXPVA
        228        60       FIXPVA
        229        60       FIXPVA
        230        60       FIXPVA
        231        60       FIXPVA
        232        60       FIXPVA
        233        60       FIXPVA
        234        60       FIXPVA
        235        60       FIXPVA
        236        60       FIXPVA
        237        60       FIXPVA
        238        60       FIXPVA
        239        60       FIXPVA
        240        60       FIXPVA
        241        60       FIXPVA
        242        60       FIXPVA
        243        60       FIXPVA
        244        60       FIXPVA
        245        60       FIXPVA
        246        60       FIXPVA
        247        60       FIXPVA
        248        60       FIXPVA
        249        60       FIXPVA
        250        60       FIXPVA
        251        60       FIXPVA
        252        60       FIXPVA
        253        60       FIXPVA
        254        60       FIXPVA
        255        60       FIXPVA
        256        60       FIXPVA
        257        60       FIXPVA
        258        60       FIXPVA
        259        60       FIXPVA
        260        60       FIXPVA
        261        60       FIXPVA
        262        60       FIXPVA
        263        60       FIXPVA
        264        60       FIXPVA
        265        60       FIXPVA
        266        60       FIXPVA
        267        60       FIXPVA
        268        60       FIXPVA
        269        60       FIXPVA
        270        60       FIXPVA
        271        60       FIXPVA
        272        60       FIXPVA
        273        60       FIXPVA
        274        60       FIXPVA
        275        60       FIXPVA
        276        60       FIXPVA
        277        60       FIXPVA
        278        60       FIXPVA
        279        60       FIXPVA
        280        60       FIXPVA
        281        60       FIXPVA
        282        60       FIXPVA
        283        60       FIXPVA
        284        60       FIXPVA
        285        60       FIXPVA
        286        60       FIXPVA
        287        60       FIXPVA
        288        60       FIXPVA
        289        60       FIXPVA
        290        60       FIXPVA
        291        60       FIXPVA
        292        60       FIXPVA
        293        60       FIXPVA
        294        60       FIXPVA
        295        60       FIXPVA
        296        60       FIXPVA
        297        60       FIXPVA
        298        60       FIXPVA
        299        60       FIXPVA
        300        60       FIXPVA
        301        60       FIXPVA
        302        60       FIXPVA
        303        60       FIXPVA
        304        60       FIXPVA
        305        60       FIXPVA
        306        60       FIXPVA
        307        60       FIXPVA
        308        60       FIXPVA
        309        60       FIXPVA
        310        60       FIXPVA
        311        60       FIXPVA
        312        60       FIXPVA
        313        60       FIXPVA
        314        60       FIXPVA
        315        60       FIXPVA
        316        60       FIXPVA
        317        60       FIXPVA
        318        60       FIXPVA
        319        60       FIXPVA
        320        60       FIXPVA
        321        60       FIXPVA
        322        60       FIXPVA
        323        60       FIXPVA
        324        60       FIXPVA
        325        60       FIXPVA
        326        60       FIXPVA
        327        60       FIXPVA
        328        60       FIXPVA
        329        60       FIXPVA
        330        60       FIXPVA
        331        60       FIXPVA
        332        60       FIXPVA
        333        60       FIXPVA
        334        60       FIXPVA
        335        60       FIXPVA
        336        60       FIXPVA
        337        60       FIXPVA
        338        60       FIXPVA
        339        60       FIXPVA
        340        60       FIXPVA
        341        60       FIXPVA
        342        60       FIXPVA
        343        60       FIXPVA
        344        60       FIXPVA
        345        60       FIXPVA

     ------------------------------
      FIXPVA TESSELLATION FOR PCM
         PEIFENG SU AND HUI LI
     UNIVERSITY OF NEBRASKA-LINCOLN
     ------------------------------


 PCM DIMENSIONS: MXSP=   345, MXTS=     13800, MEMORY=        141798

     INPUT FOR CAVITY DEFINITION 
     ---------------------------
   ATOM               COORDINATES                RADIUS       EPS
      1     10.8710     -0.0750     11.4910      0.0100     78.3900
      2     10.1220     -0.2510     10.8910      1.5900     78.3900
      3      8.9260     -0.1740     11.6800      1.7700     78.3900
      4      8.8930      0.8170     12.1870      0.0100     78.3900
      5      8.9620     -0.9600     12.4660      0.0100     78.3900
      6      7.6270     -0.3610     10.8770      1.7700     78.3900
      7      6.7490     -0.0310     11.4750      0.0100     78.3900
      8      7.6440      0.4270      9.6500      1.5900     78.3900
      9      7.1070     -0.3470      8.5930      1.7700     78.3900
     10      6.2850      0.2590      8.1450      0.0100     78.3900
     11      8.1170     -0.6250      7.5700      1.6800     78.3900
     12      9.0920     -1.1330      5.6710      1.7700     78.3900
     13     10.1180     -0.8700      6.5690      1.6800     78.3900
     14      9.4870     -0.5750      7.6800      1.7700     78.3900
     15      9.9700     -0.2880      8.6140      0.0100     78.3900
     16      7.8820     -1.6490      3.7000      1.6800     78.3900
     17      6.7760     -1.4880      4.4280      1.7700     78.3900
     18      5.8360     -1.6410      3.8900      0.0100     78.3900
     19      6.6510     -1.1500      5.7120      1.6800     78.3900
     20      7.8570     -0.9860      6.2780      1.7700     78.3900
     21      9.0900     -1.4840      4.3070      1.7700     78.3900
     22     10.2150     -1.6480      3.5900      1.6800     78.3900
     23     11.1290     -1.4430      3.9460      0.0100     78.3900
     24     10.0980     -1.9200      2.6300      0.0100     78.3900
     25      6.5270     -1.6150      9.1820      1.7700     78.3900
     26      6.6320     -2.4860      8.4980      0.0100     78.3900
     27      5.1630     -1.4330      9.5030      1.5900     78.3900
     28      4.8660     -2.2890      9.8410      0.0100     78.3900
     29      7.3740     -1.8070     10.4380      1.7700     78.3900
     30      8.3670     -2.2390     10.1800      0.0100     78.3900
     31      6.7340     -2.5130     11.5170      1.5900     78.3900
     32      6.6320     -4.0780     11.5690      2.1000     78.3900
     33      5.8380     -4.4490     12.7600      1.5900     78.3900
     34      8.0010     -4.6310     11.4730      1.5900     78.3900
     35      5.8350     -4.4800     10.2760      1.5900     78.3900
     36      4.3940     -4.5190     10.1930      1.7700     78.3900
     37      3.9490     -3.5460     10.4960      0.0100     78.3900
     38      3.9870     -5.2980     10.8790      0.0100     78.3900
     39      3.9030     -4.8380      8.7640      1.7700     78.3900
     40      2.8220     -4.5950      8.6550      0.0100     78.3900
     41      4.6210     -4.0500      7.7790      1.5900     78.3900
     42      4.8930     -4.8420      6.6360      1.7700     78.3900
     43      4.3990     -4.3060      5.7920      0.0100     78.3900
     44      6.3520     -4.9650      6.3650      1.6800     78.3900
     45      7.2450     -4.9980      7.4040      1.7700     78.3900
     46      6.8200     -4.9100      8.3960      0.0100     78.3900
     47      8.5620     -5.1000      7.1990      1.7700     78.3900
     48      9.2770     -5.1140      8.0200      0.0100     78.3900
     49      6.8140     -5.0920      5.0620      1.7700     78.3900
     50      5.9880     -5.0840      4.1380      1.5900     78.3900
     51      8.1460     -5.2250      4.8250      1.6800     78.3900
     52      9.0150     -5.2170      5.8550      1.7700     78.3900
     53     10.3240     -5.3270      5.6210      1.6800     78.3900
     54     10.6830     -5.3940      4.6950      0.0100     78.3900
     55     10.9820     -5.3310      6.3770      0.0100     78.3900
     56      4.2160     -6.1930      6.8190      1.7700     78.3900
     57      4.8310     -7.0220      6.4120      0.0100     78.3900
     58      2.9410     -6.2160      6.2050      1.5900     78.3900
     59      2.5940     -7.1170      6.3130      0.0100     78.3900
     60      4.1120     -6.2960      8.3420      1.7700     78.3900
     61      5.0900     -6.6100      8.7750      0.0100     78.3900
     62      3.0140     -7.0820      8.8450      1.5900     78.3900
     63      3.0700     -8.6470      8.8590      2.1000     78.3900
     64      1.8960     -9.1460      9.6070      1.5900     78.3900
     65      4.4060     -9.0640      9.3260      1.5900     78.3900
     66      2.9310     -9.0380      7.3450      1.5900     78.3900
     67      1.6720     -9.2880      6.6890      1.7700     78.3900
     68      1.0710     -8.3500      6.6330      0.0100     78.3900
     69      1.0840    -10.0370      7.2620      0.0100     78.3900
     70      1.8330     -9.8260      5.2450      1.7700     78.3900
     71      0.8490     -9.8120      4.7290      0.0100     78.3900
     72      2.7210     -8.9620      4.4780      1.5900     78.3900
     73      3.5660     -9.7540      3.6480      1.7700     78.3900
     74      3.3880     -9.3870      2.6100      0.0100     78.3900
     75      5.0040     -9.5820      3.9890      1.6800     78.3900
     76      5.3530     -9.4080      5.3040      1.7700     78.3900
     77      4.5350     -9.4010      6.0040      0.0100     78.3900
     78      6.6170     -9.2180      5.6850      1.7700     78.3900
     79      6.8950     -9.0430      6.7230      0.0100     78.3900
     80      6.0030     -9.6660      3.0240      1.7700     78.3900
     81      5.6920     -9.9100      1.8460      1.5900     78.3900
     82      7.2890     -9.4750      3.3850      1.6800     78.3900
     83      7.6080     -9.2390      4.6720      1.7700     78.3900
     84      8.8750     -9.0340      4.9980      1.6800     78.3900
     85      9.5360     -9.1950      4.2580      0.0100     78.3900
     86      9.1930     -9.0100      5.9470      0.0100     78.3900
     87      3.1080    -11.2020      3.7340      1.7700     78.3900
     88      3.9580    -11.9160      3.7040      0.0100     78.3900
     89      2.2130    -11.5000      2.6800      1.5900     78.3900
     90      1.8590    -12.3830      2.8610      0.0100     78.3900
     91      2.4110    -11.2480      5.0930      1.7700     78.3900
     92      3.1750    -11.3530      5.8950      0.0100     78.3900
     93      1.3520    -12.2320      5.1800      1.5900     78.3900
     94      1.5360    -13.5740      5.9700      2.1000     78.3900
     95      0.2250    -14.2560      6.0500      1.5900     78.3900
     96      2.2190    -13.2790      7.2480      1.5900     78.3900
     97      2.5090    -14.4350      5.0870      1.5900     78.3900
     98      2.0690    -15.2170      3.9560      1.7700     78.3900
     99      1.3180    -14.6590      3.3520      0.0100     78.3900
    100      1.5960    -16.1600      4.3130      0.0100     78.3900
    101      3.2150    -15.6080      2.9970      1.7700     78.3900
    102      2.8010    -15.9980      2.0440      0.0100     78.3900
    103      4.0260    -14.4490      2.6710      1.5900     78.3900
    104      5.3910    -14.8200      2.5870      1.7700     78.3900
    105      5.7080    -14.5360      1.5530      0.0100     78.3900
    106      6.2090    -14.1070      3.6090      1.6800     78.3900
    107      5.6610    -13.7290      4.8080      1.7700     78.3900
    108      4.6190    -13.9860      4.9380      0.0100     78.3900
    109      7.5140    -13.8090      3.3140      1.7700     78.3900
    110      8.0180    -14.1060      2.2380      1.5900     78.3900
    111      8.2050    -13.1510      4.3060      1.6800     78.3900
    112      9.1650    -12.9300      4.1130      0.0100     78.3900
    113      7.7070    -12.7200      5.5180      1.7700     78.3900
    114      8.4250    -12.1040      6.3020      1.5900     78.3900
    115      6.3340    -13.0460      5.7390      1.7700     78.3900
    116      5.8610    -12.7270      6.6640      0.0100     78.3900
    117      5.4730    -16.3340      2.7300      1.7700     78.3900
    118      6.3760    -16.6510      3.2940      0.0100     78.3900
    119      5.4690    -16.9600      1.4590      1.5900     78.3900
    120      5.4480    -17.9100      1.6340      0.0100     78.3900
    121      4.2040    -16.6600      3.5170      1.7700     78.3900
    122      4.3580    -16.4340      4.5990      0.0100     78.3900
    123      3.6740    -17.9820      3.2700      1.5900     78.3900
    124      3.8230    -19.1400      4.3140      2.1000     78.3900
    125      2.9270    -20.2550      3.9410      1.5900     78.3900
    126      3.6900    -18.5850      5.6750      1.5900     78.3900
    127      5.2930    -19.6300      4.1070      1.5900     78.3900
    128      5.7750    -20.2270      2.8880      1.7700     78.3900
    129      5.3800    -19.7140      1.9790      0.0100     78.3900
    130      5.4470    -21.2910      2.8400      0.0100     78.3900
    131      7.3110    -20.2010      2.8220      1.7700     78.3900
    132      7.6730    -20.6480      1.8690      0.0100     78.3900
    133      7.8020    -18.8230      2.8570      1.5900     78.3900
    134      8.9840    -18.7690      3.6520      1.7700     78.3900
    135      9.7830    -18.3320      3.0120      0.0100     78.3900
    136      8.7940    -17.9200      4.8750      1.6800     78.3900
    137      7.5610    -17.8530      5.4690      1.7700     78.3900
    138      6.7930    -18.4020      4.9570      0.0100     78.3900
    139      9.8300    -17.1460      5.3560      1.7700     78.3900
    140     10.9320    -17.1020      4.8290      1.5900     78.3900
    141      9.5310    -16.3840      6.4590      1.6800     78.3900
    142     10.3120    -15.8870      6.8610      0.0100     78.3900
    143      8.3140    -16.2760      7.0960      1.7700     78.3900
    144      8.1760    -15.5200      8.0550      1.5900     78.3900
    145      7.2810    -17.0760      6.5210      1.7700     78.3900
    146      6.2760    -17.0140      6.9300      0.0100     78.3900
    147      9.3640    -20.2130      3.9560      1.7700     78.3900
    148      9.9260    -20.3120      4.9090      0.0100     78.3900
    149     10.0960    -20.7640      2.8830      1.5900     78.3900
    150     10.3170    -21.6600      3.1640      0.0100     78.3900
    151      8.0210    -20.9080      3.9910      1.7700     78.3900
    152      7.4680    -20.6550      4.9210      0.0100     78.3900
    153      8.0610    -22.3380      3.7520      1.5900     78.3900
    154      8.7150    -23.2980      4.8160      2.1000     78.3900
    155      8.0010    -24.5870      4.7010      1.5900     78.3900
    156      8.7040    -22.6500      6.1460      1.5900     78.3900
    157     10.2010    -23.4660      4.3020      1.5900     78.3900
    158     11.3500    -23.3620      5.1760      1.7700     78.3900
    159     11.3490    -24.2240      5.8860      0.0100     78.3900
    160     11.3110    -22.4200      5.7800      0.0100     78.3900
    161     12.7100    -23.3540      4.4140      1.7700     78.3900
    162     13.5430    -23.6360      5.0910      0.0100     78.3900
    163     12.7090    -24.2940      3.2920      1.5900     78.3900
    164     13.3070    -23.6840      2.1430      1.7700     78.3900
    165     14.1580    -24.3510      1.8740      0.0100     78.3900
    166     12.3670    -23.5940      0.9870      1.6800     78.3900
    167     11.0280    -23.4240      1.2220      1.7700     78.3900
    168     10.7390    -23.3760      2.2550      0.0100     78.3900
    169     10.1340    -23.3360      0.2340      1.7700     78.3900
    170      9.0690    -23.2090      0.4230      0.0100     78.3900
    171     12.8240    -23.6640     -0.3270      1.7700     78.3900
    172     14.0380    -23.8230     -0.5330      1.5900     78.3900
    173     11.9360    -23.5730     -1.3510      1.6800     78.3900
    174     10.6210    -23.4240     -1.0960      1.7700     78.3900
    175      9.7590    -23.3510     -2.1080      1.6800     78.3900
    176     10.0990    -23.4540     -3.0460      0.0100     78.3900
    177      8.7750    -23.2410     -1.9620      0.0100     78.3900
    178     13.8740    -22.3270      2.5440      1.7700     78.3900
    179     13.6990    -21.5510      1.7650      0.0100     78.3900
    180     15.2570    -22.4040      2.8260      1.5900     78.3900
    181     15.5200    -21.5620      3.2280      0.0100     78.3900
    182     13.0610    -21.9980      3.7870      1.7700     78.3900
    183     12.0950    -21.6020      3.4440      0.0100     78.3900
    184     13.7120    -21.1390      4.7540      1.5900     78.3900
    185     13.4730    -19.5820      4.6680      2.1000     78.3900
    186     13.4610    -19.0520      6.0470      1.5900     78.3900
    187     12.3060    -19.3450      3.8160      1.5900     78.3900
    188     14.7410    -19.0530      3.9170      1.5900     78.3900
    189     16.0310    -19.0140      4.5510      1.7700     78.3900
    190     16.3170    -20.0310      4.9130      0.0100     78.3900
    191     16.0240    -18.3110      5.4240      0.0100     78.3900
    192     17.1060    -18.5540      3.5600      1.7700     78.3900
    193     18.1190    -18.6310      4.0050      0.0100     78.3900
    194     17.0790    -19.4090      2.3710      1.5900     78.3900
    195     17.2990    -18.6140      1.2140      1.7700     78.3900
    196     18.1680    -19.0650      0.6780      0.0100     78.3900
    197     16.1210    -18.5640      0.2840      1.6800     78.3900
    198     14.9230    -19.1210      0.6540      1.7700     78.3900
    199     14.8560    -19.4950      1.6750      0.0100     78.3900
    200     13.8750    -19.1450     -0.1770      1.7700     78.3900
    201     12.9270    -19.5920      0.1040      0.0100     78.3900
    202     16.2540    -18.0380     -1.0020      1.7700     78.3900
    203     17.3690    -17.6410     -1.3730      1.5900     78.3900
    204     15.1910    -18.0190     -1.8520      1.6800     78.3900
    205     14.0260    -18.5710     -1.4690      1.7700     78.3900
    206     12.9990    -18.5910     -2.3190      1.6800     78.3900
    207     13.1060    -18.1760     -3.2230      0.0100     78.3900
    208     12.1030    -18.9500     -2.0620      0.0100     78.3900
    209     17.6940    -17.2440      1.7190      1.7700     78.3900
    210     17.3650    -16.4900      1.0290      0.0100     78.3900
    211     19.0950    -17.1170      1.8780      1.5900     78.3900
    212     19.2520    -16.2600      2.2970      0.0100     78.3900
    213     16.9420    -17.1220      3.0320      1.7700     78.3900
    214     15.8550    -16.9460      2.8630      0.0100     78.3900
    215     17.5230    -16.1810      3.9520      1.5900     78.3900
    216     17.1330    -14.6610      4.0340      2.1000     78.3900
    217     18.2960    -13.9280      4.5830      1.5900     78.3900
    218     15.8630    -14.5570      4.7820      1.5900     78.3900
    219     16.8790    -14.1620      2.5600      1.5900     78.3900
    220     17.9520    -13.8160      1.6530      1.7700     78.3900
    221     18.8010    -14.5280      1.7370      0.0100     78.3900
    222     18.3450    -12.8050      1.8960      0.0100     78.3900
    223     17.5120    -13.7890      0.1740      1.7700     78.3900
    224     18.3810    -13.8720     -0.5120      0.0100     78.3900
    225     16.6160    -14.8900     -0.1180      1.5900     78.3900
    226     15.5540    -14.5000     -0.9190      1.7700     78.3900
    227     15.5820    -15.1870     -1.7950      0.0100     78.3900
    228     14.2200    -14.6250     -0.2630      1.6800     78.3900
    229     14.1290    -14.8480      1.0890      1.7700     78.3900
    230     15.0700    -14.9980      1.6110      0.0100     78.3900
    231     12.9470    -14.9410      1.7020      1.7700     78.3900
    232     12.8530    -15.1250      2.7710      0.0100     78.3900
    233     13.0570    -14.5580     -1.0240      1.7700     78.3900
    234     13.1600    -14.4250     -2.2550      1.5900     78.3900
    235     11.8420    -14.6550     -0.4310      1.6800     78.3900
    236     11.7770    -14.8400      0.9020      1.7700     78.3900
    237     10.5980    -14.9740      1.4900      1.6800     78.3900
    238      9.7620    -14.8730      0.9550      0.0100     78.3900
    239     10.5100    -15.2350      2.4460      0.0100     78.3900
    240     15.8750    -13.1020     -1.3400      1.7700     78.3900
    241     14.9730    -12.4880     -1.3320      0.0100     78.3900
    242     16.5440    -13.1260     -2.5920      1.5900     78.3900
    243     15.9060    -13.3980     -3.2690      0.0100     78.3900
    244     16.7250    -12.5540     -0.2040      1.7700     78.3900
    245     16.0880    -12.3010      0.6740      0.0100     78.3900
    246     17.6150    -11.4760     -0.5560      1.5900     78.3900
    247     17.1120     -9.9910     -0.7140      2.1000     78.3900
    248     18.1590     -9.2250     -1.4270      1.5900     78.3900
    249     16.7560     -9.4990      0.6340      1.5900     78.3900
    250     15.8090    -10.0040     -1.5980      1.5900     78.3900
    251     15.8250    -10.1530     -3.0350      1.7700     78.3900
    252     16.6130    -10.8650     -3.3630      0.0100     78.3900
    253     16.0700     -9.1760     -3.4950      0.0100     78.3900
    254     14.4690    -10.6060     -3.6470      1.7700     78.3900
    255     14.6320    -11.0810     -4.6410      0.0100     78.3900
    256     13.7730    -11.5730     -2.8240      1.5900     78.3900
    257     12.4190    -11.2400     -2.6340      1.7700     78.3900
    258     11.8300    -12.1600     -2.8520      0.0100     78.3900
    259     12.1320    -10.8180     -1.2450      1.6800     78.3900
    260     10.8960    -10.6630     -0.6650      1.7700     78.3900
    261      7.4320    -10.8250     -0.8200      1.6800     78.3900
    262      7.2710    -11.1410     -1.7540      0.0100     78.3900
    263      6.6570    -10.6620     -0.2150      0.0100     78.3900
    264      9.7030    -10.8800     -1.2520      1.6800     78.3900
    265      8.6810    -10.6600     -0.4190      1.7700     78.3900
    266      8.8440    -10.2560      0.8850      1.6800     78.3900
    267      8.0290    -10.0840      1.4520      0.0100     78.3900
    268     10.0670    -10.0200      1.5050      1.7700     78.3900
    269     10.1870     -9.6570      2.6790      1.5900     78.3900
    270     11.1500    -10.2630      0.6340      1.7700     78.3900
    271     12.5110    -10.1830      0.8760      1.6800     78.3900
    272     13.0490    -10.5320     -0.2600      1.7700     78.3900
    273     14.1140    -10.6300     -0.4210      0.0100     78.3900
    274     12.1130    -10.1760     -3.6420      1.7700     78.3900
    275     11.3590     -9.4680     -3.2530      0.0100     78.3900
    276     11.6710    -10.7650     -4.8510      1.5900     78.3900
    277     11.7420    -10.0770     -5.5260      0.0100     78.3900
    278     13.4630     -9.4800     -3.8120      1.7700     78.3900
    279     13.6380     -8.7810     -2.9600      0.0100     78.3900
    280     13.6510     -8.8810     -5.1030      1.5900     78.3900
    281     13.7850     -7.3400     -5.2950      2.1000     78.3900
    282     13.9350     -7.0920     -6.7510      1.5900     78.3900
    283     14.8360     -6.7960     -4.4090      1.5900     78.3900
    284     12.3790     -6.8100     -4.8200      1.5900     78.3900
    285     11.2420     -6.9950     -5.7040      1.7700     78.3900
    286     11.2840     -7.9760     -6.2410      0.0100     78.3900
    287     11.2550     -6.1980     -6.4770      0.0100     78.3900
    288      9.8900     -6.9360     -4.9640      1.7700     78.3900
    289      9.0870     -7.3480     -5.6080      0.0100     78.3900
    290      9.9310     -7.7520     -3.7650      1.5900     78.3900
    291      9.2750     -7.0960     -2.7000      1.7700     78.3900
    292      8.5080     -7.8100     -2.3240      0.0100     78.3900
    293     10.1990     -6.7730     -1.5950      1.6800     78.3900
    294      9.8120     -6.5250     -0.3070      1.7700     78.3900
    295      7.2990     -6.1920      2.0140      1.6800     78.3900
    296      6.4830     -6.3920      1.4780      0.0100     78.3900
    297      7.1920     -5.8430      2.9490      0.0100     78.3900
    298      8.5490     -6.5320      0.1370      1.6800     78.3900
    299      8.4680     -6.2340      1.4250      1.7700     78.3900
    300      9.5550     -5.9480      2.2110      1.6800     78.3900
    301      9.3760     -5.7060      3.1700      0.0100     78.3900
    302     10.8780     -5.9420      1.7820      1.7700     78.3900
    303     11.8030     -5.6790      2.5590      1.5900     78.3900
    304     10.9720     -6.2590      0.3940      1.7700     78.3900
    305     12.0790     -6.3450     -0.4430      1.6800     78.3900
    306     11.5730     -6.6530     -1.6160      1.7700     78.3900
    307     12.1490     -6.8260     -2.5260      0.0100     78.3900
    308      8.5850     -5.8670     -3.2670      1.7700     78.3900
    309      8.6070     -5.0230     -2.5480      0.0100     78.3900
    310      7.2410     -6.1570     -3.6110      1.5900     78.3900
    311      6.8510     -5.3620     -4.0070      0.0100     78.3900
    312      9.4400     -5.5510     -4.4930      1.7700     78.3900
    313     10.3720     -5.0290     -4.1790      0.0100     78.3900
    314      8.7420     -4.8850     -5.5690      1.5900     78.3900
    315      8.7860     -3.3290     -5.7450      2.1000     78.3900
    316      8.6660     -3.0350     -7.1870      1.5900     78.3900
    317      9.9700     -2.7860     -5.0480      1.5900     78.3900
    318      7.4950     -2.8230     -5.0070      1.5900     78.3900
    319      6.1920     -2.8720     -5.6230      1.7700     78.3900
    320      6.0490     -3.8160     -6.1990      0.0100     78.3900
    321      6.0890     -2.0180     -6.3330      0.0100     78.3900
    322      5.0450     -2.7980     -4.5880      1.7700     78.3900
    323      4.0850     -3.1020     -5.0630      0.0100     78.3900
    324      5.2770     -3.7110     -3.4690      1.5900     78.3900
    325      4.8860     -3.0780     -2.2480      1.7700     78.3900
    326      4.1370     -3.7630     -1.7820      0.0100     78.3900
    327      6.0480     -2.8780     -1.3240      1.6800     78.3900
    328      7.3330     -2.8610     -1.8100      1.7700     78.3900
    329      7.4340     -3.1030     -2.8580      0.0100     78.3900
    330      5.8120     -2.6910      0.0220      1.7700     78.3900
    331      4.6770     -2.6670      0.4860      1.5900     78.3900
    332      6.9440     -2.5400      0.7990      1.6800     78.3900
    333      6.8180     -2.3990      1.7870      0.0100     78.3900
    334      8.2570     -2.5660      0.3650      1.7700     78.3900
    335      9.1910     -2.4890      1.1560      1.5900     78.3900
[...]
   7  6  0    -1310.6630833022    -0.0000000158   0.000000104   0.000000023      291818310   14512660
   8  7  0    -1310.6630833039    -0.0000000017   0.000000024   0.000000015      259261541   14792103

          -----------------
          DENSITY CONVERGED
          -----------------
     TIME TO FORM FOCK OPERATORS=      10.8 SECONDS (       1.4 SEC/ITER)
     FOCK TIME ON FIRST ITERATION=       2.3, LAST ITERATION=       0.9
     TIME TO SOLVE SCF EQUATIONS=       0.3 SECONDS (       0.0 SEC/ITER)

 FINAL RHF ENERGY IS    -1310.6630833039 AFTER   8 ITERATIONS
 ...... END OF RHF CALCULATION ......
 CPU     0: STEP CPU TIME=    23.97 TOTAL CPU TIME=       3326.0 (     55.4 MIN)
 TOTAL WALL CLOCK TIME=       7268.1 SECONDS, CPU UTILIZATION IS    45.76%
 DONE PCM POT.
 CPU     0: STEP CPU TIME=     0.35 TOTAL CPU TIME=       3326.3 (     55.4 MIN)
 TOTAL WALL CLOCK TIME=       7269.2 SECONDS, CPU UTILIZATION IS    45.76%

 Iter=  8 iFrag=      7 EFMO= -1360.731835864, DD= 0.000129780, DE=-0.000353552


 RHF      monomer      2 corr= NONE       , L1=   341, L0=   320 ID=      7


 AO spaces for     2     0     0 n-mer: L1=   341, L0=   320

 DIRECT SCF CALCULATION, SCHWRZ=T   FDIFF=T,  DIRTHR=  0.00E+00 NITDIR=10

                                                                                   NONZERO     BLOCKS
 ITER EX DEM     TOTAL ENERGY        E CHANGE  DENSITY CHANGE     ORB. GRAD      INTEGRALS    SKIPPED
   1  0  0    -1317.1429163880 -1317.1429163880   0.000134470   0.000000000      645376064   10636974
          ---------------START SECOND ORDER SCF---------------
   2  1  0    -1317.1429103513     0.0000060368   0.000027098   0.000008600      458567070   13047107
   3  2  0    -1317.1429106738    -0.0000003225   0.000013022   0.000002492      430737938   13305786
   4  3  0    -1317.1429101935     0.0000004803   0.000004165   0.000000781      396459959   13610018
   5  4  0    -1317.1429102065    -0.0000000130   0.000001011   0.000000248      359031487   13945432
   6  5  0    -1317.1429102308    -0.0000000243   0.000000327   0.000000072      324474062   14233946
   7  6  0    -1317.1429102404    -0.0000000096   0.000000141   0.000000026      292119978   14514813
   8  7  0    -1317.1429102419    -0.0000000015   0.000000028   0.000000022      264704909   14757059

          -----------------
          DENSITY CONVERGED
          -----------------
     TIME TO FORM FOCK OPERATORS=      10.8 SECONDS (       1.3 SEC/ITER)
     FOCK TIME ON FIRST ITERATION=       2.3, LAST ITERATION=       0.9
     TIME TO SOLVE SCF EQUATIONS=       0.3 SECONDS (       0.0 SEC/ITER)

 FINAL RHF ENERGY IS    -1317.1429102419 AFTER   8 ITERATIONS
 ...... END OF RHF CALCULATION ......
 CPU     0: STEP CPU TIME=    36.65 TOTAL CPU TIME=       3363.0 (     56.0 MIN)
 TOTAL WALL CLOCK TIME=       7347.9 SECONDS, CPU UTILIZATION IS    45.77%
 DONE PCM POT.
 CPU     0: STEP CPU TIME=     0.36 TOTAL CPU TIME=       3363.3 (     56.1 MIN)
 TOTAL WALL CLOCK TIME=       7349.0 SECONDS, CPU UTILIZATION IS    45.77%

 Iter=  8 iFrag=      2 EFMO= -1360.710497488, DD= 0.000165943, DE=-0.000338305


 RHF      monomer      8 corr= NONE       , L1=   341, L0=   320 ID=      8


 AO spaces for     8     0     0 n-mer: L1=   341, L0=   320

 DIRECT SCF CALCULATION, SCHWRZ=T   FDIFF=T,  DIRTHR=  0.00E+00 NITDIR=10

                                                                                   NONZERO     BLOCKS
 ITER EX DEM     TOTAL ENERGY        E CHANGE  DENSITY CHANGE     ORB. GRAD      INTEGRALS    SKIPPED
   1  0  0    -1303.3735550036 -1303.3735550036   0.000177543   0.000000000      659698585   10547750
          ---------------START SECOND ORDER SCF---------------
   2  1  0    -1303.3735459110     0.0000090926   0.000036600   0.000008909      476065645   12947921
   3  2  0    -1303.3735468809    -0.0000009699   0.000016394   0.000002678      446634552   13217654
   4  3  0    -1303.3735462708     0.0000006100   0.000004965   0.000000853      408215466   13554746
   5  4  0    -1303.3735462260     0.0000000449   0.000000984   0.000000284      369098042   13897724
   6  5  0    -1303.3735462695    -0.0000000435   0.000000286   0.000000073      330801836   14212503
   7  6  0    -1303.3735462836    -0.0000000140   0.000000093   0.000000024      301782787   14461825
   8  7  0    -1303.3735462857    -0.0000000021   0.000000032   0.000000019      269292481   14731324

          -----------------
          DENSITY CONVERGED
          -----------------
     TIME TO FORM FOCK OPERATORS=      11.2 SECONDS (       1.4 SEC/ITER)
     FOCK TIME ON FIRST ITERATION=       2.5, LAST ITERATION=       0.9
     TIME TO SOLVE SCF EQUATIONS=       0.2 SECONDS (       0.0 SEC/ITER)

 FINAL RHF ENERGY IS    -1303.3735462857 AFTER   8 ITERATIONS
 ...... END OF RHF CALCULATION ......
 CPU     0: STEP CPU TIME=    35.64 TOTAL CPU TIME=       3399.0 (     56.6 MIN)
 TOTAL WALL CLOCK TIME=       7425.8 SECONDS, CPU UTILIZATION IS    45.77%
 DONE PCM POT.
 CPU     0: STEP CPU TIME=     0.38 TOTAL CPU TIME=       3399.4 (     56.7 MIN)
 TOTAL WALL CLOCK TIME=       7426.8 SECONDS, CPU UTILIZATION IS    45.77%

 Iter=  8 iFrag=      8 EFMO= -1360.732514134, DD= 0.000218422, DE=-0.000367973


 RHF      monomer      5 corr= NONE       , L1=   339, L0=   318 ID=      9


 AO spaces for     5     0     0 n-mer: L1=   339, L0=   318

 DIRECT SCF CALCULATION, SCHWRZ=T   FDIFF=T,  DIRTHR=  0.00E+00 NITDIR=10

                                                                                   NONZERO     BLOCKS
 ITER EX DEM     TOTAL ENERGY        E CHANGE  DENSITY CHANGE     ORB. GRAD      INTEGRALS    SKIPPED
   1  0  0    -1329.4681602973 -1329.4681602973   0.000099906   0.000000000      643020502    9636316
          ---------------START SECOND ORDER SCF---------------
   2  1  0    -1329.4681546776     0.0000056197   0.000023471   0.000007056      459306804   11883444
   3  2  0    -1329.4681540881     0.0000005894   0.000014644   0.000002188      427710478   12170107
   4  3  0    -1329.4681536768     0.0000004113   0.000002874   0.000000620      389948892   12495777
   5  4  0    -1329.4681535644     0.0000001124   0.000000875   0.000000329      355921959   12796995
   6  5  0    -1329.4681536077    -0.0000000433   0.000000257   0.000000083      320041544   13088891
   7  6  0    -1329.4681536095    -0.0000000018   0.000000143   0.000000029      287491836   13361144
   8  7  0    -1329.4681536100    -0.0000000005   0.000000036   0.000000019      254613069   13640210

          -----------------
          DENSITY CONVERGED
          -----------------
     TIME TO FORM FOCK OPERATORS=      10.7 SECONDS (       1.3 SEC/ITER)
     FOCK TIME ON FIRST ITERATION=       2.3, LAST ITERATION=       0.9
     TIME TO SOLVE SCF EQUATIONS=       0.2 SECONDS (       0.0 SEC/ITER)

 FINAL RHF ENERGY IS    -1329.4681536100 AFTER   8 ITERATIONS
 ...... END OF RHF CALCULATION ......
 CPU     0: STEP CPU TIME=    31.47 TOTAL CPU TIME=       3430.8 (     57.2 MIN)
 TOTAL WALL CLOCK TIME=       7496.2 SECONDS, CPU UTILIZATION IS    45.77%
 DONE PCM POT.
 CPU     0: STEP CPU TIME=     0.35 TOTAL CPU TIME=       3431.2 (     57.2 MIN)
 TOTAL WALL CLOCK TIME=       7497.2 SECONDS, CPU UTILIZATION IS    45.77%

 Iter=  8 iFrag=      5 EFMO= -1380.583705394, DD= 0.000122956, DE=-0.000326026


 RHF      monomer      4 corr= NONE       , L1=   339, L0=   318 ID=     10


 AO spaces for     4     0     0 n-mer: L1=   339, L0=   318

 DIRECT SCF CALCULATION, SCHWRZ=T   FDIFF=T,  DIRTHR=  0.00E+00 NITDIR=10

                                                                                   NONZERO     BLOCKS
 ITER EX DEM     TOTAL ENERGY        E CHANGE  DENSITY CHANGE     ORB. GRAD      INTEGRALS    SKIPPED
   1  0  0    -1329.5982840589 -1329.5982840589   0.000128448   0.000000000      637172438    9693244
          ---------------START SECOND ORDER SCF---------------
   2  1  0    -1329.5982746223     0.0000094366   0.000023103   0.000005873      448575256   11951036
   3  2  0    -1329.5982752083    -0.0000005860   0.000010903   0.000002356      421562998   12199841
   4  3  0    -1329.5982745469     0.0000006614   0.000003963   0.000000823      383998942   12525386
   5  4  0    -1329.5982744361     0.0000001108   0.000000844   0.000000272      351077703   12819925
   6  5  0    -1329.5982744836    -0.0000000475   0.000000285   0.000000057      318067261   13095960
   7  6  0    -1329.5982744955    -0.0000000119   0.000000120   0.000000027      283302230   13384661
   8  7  0    -1329.5982744950     0.0000000005   0.000000033   0.000000012      252839540   13649355

          -----------------
          DENSITY CONVERGED
          -----------------
     TIME TO FORM FOCK OPERATORS=      10.3 SECONDS (       1.3 SEC/ITER)
     FOCK TIME ON FIRST ITERATION=       1.9, LAST ITERATION=       0.9
     TIME TO SOLVE SCF EQUATIONS=       0.2 SECONDS (       0.0 SEC/ITER)

 FINAL RHF ENERGY IS    -1329.5982744950 AFTER   8 ITERATIONS
 ...... END OF RHF CALCULATION ......
 CPU     0: STEP CPU TIME=    35.70 TOTAL CPU TIME=       3466.9 (     57.8 MIN)
 TOTAL WALL CLOCK TIME=       7572.5 SECONDS, CPU UTILIZATION IS    45.78%
 DONE PCM POT.
 CPU     0: STEP CPU TIME=     0.37 TOTAL CPU TIME=       3467.2 (     57.8 MIN)
 TOTAL WALL CLOCK TIME=       7573.5 SECONDS, CPU UTILIZATION IS    45.78%

 Iter=  8 iFrag=      4 EFMO= -1380.569516313, DD= 0.000157412, DE=-0.000328461


 RHF      monomer     11 corr= NONE       , L1=   262, L0=   246 ID=     11


 AO spaces for    11     0     0 n-mer: L1=   262, L0=   246

 DIRECT SCF CALCULATION, SCHWRZ=T   FDIFF=T,  DIRTHR=  0.00E+00 NITDIR=10

                                                                                   NONZERO     BLOCKS
 ITER EX DEM     TOTAL ENERGY        E CHANGE  DENSITY CHANGE     ORB. GRAD      INTEGRALS    SKIPPED
   1  0  0     -778.7032401191  -778.7032401191   0.000111305   0.000000000      317995251    3483542
          ---------------START SECOND ORDER SCF---------------
   2  1  0     -778.7032350132     0.0000051060   0.000028920   0.000006736      234951702    4771449
   3  2  0     -778.7032355325    -0.0000005193   0.000005718   0.000001352      223191509    4922251
   4  3  0     -778.7032353264     0.0000002060   0.000001379   0.000000297      204902307    5124218
   5  4  0     -778.7032352207     0.0000001057   0.000000479   0.000000187      184994250    5327127
   6  5  0     -778.7032352317    -0.0000000110   0.000000143   0.000000032      170757818    5483279
   7  6  0     -778.7032352312     0.0000000006   0.000000040   0.000000015      152023227    5675981

          -----------------
          DENSITY CONVERGED
          -----------------
     TIME TO FORM FOCK OPERATORS=       5.8 SECONDS (       0.8 SEC/ITER)
     FOCK TIME ON FIRST ITERATION=       1.8, LAST ITERATION=       0.5
     TIME TO SOLVE SCF EQUATIONS=       0.1 SECONDS (       0.0 SEC/ITER)

 FINAL RHF ENERGY IS     -778.7032352312 AFTER   7 ITERATIONS
 ...... END OF RHF CALCULATION ......
 CPU     0: STEP CPU TIME=    15.60 TOTAL CPU TIME=       3482.8 (     58.0 MIN)
 TOTAL WALL CLOCK TIME=       7607.2 SECONDS, CPU UTILIZATION IS    45.78%
 DONE PCM POT.
 CPU     0: STEP CPU TIME=     0.25 TOTAL CPU TIME=       3483.1 (     58.1 MIN)
 TOTAL WALL CLOCK TIME=       7607.9 SECONDS, CPU UTILIZATION IS    45.78%

 Iter=  8 iFrag=     11 EFMO=  -815.655385384, DD= 0.000088917, DE= 0.000119177

 CPU     0: STEP CPU TIME=     0.00 TOTAL CPU TIME=       3483.1 (     58.1 MIN)
 TOTAL WALL CLOCK TIME=       7607.9 SECONDS, CPU UTILIZATION IS    45.78%

  Monomer SCF synchronisation on iteration   8.1 took     0.0 s.
 CPU     0: STEP CPU TIME=     0.00 TOTAL CPU TIME=       3483.1 (     58.1 MIN)
 TOTAL WALL CLOCK TIME=       7607.9 SECONDS, CPU UTILIZATION IS    45.78%
 dmexch needs              4011916  words of memory.
 CPU     0: STEP CPU TIME=     0.02 TOTAL CPU TIME=       3483.1 (     58.1 MIN)
 TOTAL WALL CLOCK TIME=       7608.3 SECONDS, CPU UTILIZATION IS    45.78%

 Data exchange of   1328782 words took     0.4 s.

 Calculating apparent surface charges...
     Using       56121 words of memory.
 ASC ITERATION=   1 CONVERGED TO  0.911482E-05
 ASC ITERATION=   2 CONVERGED TO  0.719327E-04
 ASC ITERATION=   3 CONVERGED TO  0.118997E-03
 ASC ITERATION=   4 CONVERGED TO  0.259159E-04
 ASC ITERATION=   5 CONVERGED TO  0.995489E-05
 ASC ITERATION=   6 CONVERGED TO  0.558676E-05
 ASC ITERATION=   7 CONVERGED TO  0.324233E-05
 ASC ITERATION=   8 CONVERGED TO  0.232575E-05
 ASC ITERATION=   9 CONVERGED TO  0.827032E-06
 ASC ITERATION=  10 CONVERGED TO  0.507304E-06
 ASC ITERATION=  11 CONVERGED TO  0.348463E-06
 ASC ITERATION=  12 CONVERGED TO  0.129892E-06
 ASC ITERATION=  13 CONVERGED TO  0.560304E-07
 ASC ITERATION=  14 CONVERGED TO  0.486718E-07
 ASC ITERATION=  15 CONVERGED TO  0.253133E-07
 ASC ITERATION=  16 CONVERGED TO  0.167508E-07
 ASC ITERATION=  17 CONVERGED TO  0.823884E-08
 ASC ITERATION=  18 CONVERGED TO  0.474928E-08
 ASC ITERATION=  19 CONVERGED TO  0.355925E-08
 ASC ITERATION=  20 CONVERGED TO  0.186110E-08
 ASC ITERATION=  21 CONVERGED TO  0.961611E-09
 ASC ITERATION=  22 CONVERGED TO  0.515962E-09
 ASC ITERATION=  23 CONVERGED TO  0.270207E-09
 ASC ITERATION=  24 CONVERGED TO  0.157364E-09
 ASC ITERATION=  25 CONVERGED TO  0.956962E-10

 THE ASC EQUATIONS FOR PHASE=1 CONVERGED IN  25 ITERATIONS.

 PCM ASC=      9.8085754747 normalised to=      9.8724327083
 Nuclear factor=   1.0026726215, electronic factor=   1.0026943441

 CPU     0: STEP CPU TIME=     0.15 TOTAL CPU TIME=       3483.3 (     58.1 MIN)
 TOTAL WALL CLOCK TIME=       7608.7 SECONDS, CPU UTILIZATION IS    45.78%


 ------------------------------------------------------------------------------
 FMO iter  8.1,      0 fragment(s) converged, maxD 0.000218422 maxE 0.000423752
 ------------------------------------------------------------------------------

 RHF      monomer      1 corr= NONE       , L1=   388, L0=   364 ID=      1


 AO spaces for     1     0     0 n-mer: L1=   388, L0=   364

 DIRECT SCF CALCULATION, SCHWRZ=T   FDIFF=T,  DIRTHR=  0.00E+00 NITDIR=10

                                                                                   NONZERO     BLOCKS
 ITER EX DEM     TOTAL ENERGY        E CHANGE  DENSITY CHANGE     ORB. GRAD      INTEGRALS    SKIPPED
   1  0  0    -1468.4494001092 -1468.4494001092   0.000022534   0.000000000      930185085   18737414
          ---------------START SECOND ORDER SCF---------------
   2  1  0    -1468.4493997953     0.0000003139   0.000005691   0.000000991      581451648   22870899
   3  2  0    -1468.4493998608    -0.0000000656   0.000002270   0.000000460      530421251   23302294
   4  3  0    -1468.4493998332     0.0000000276   0.000000517   0.000000166      477342825   23761355
   5  4  0    -1468.4493998383    -0.0000000051   0.000000093   0.000000061      427441297   24169555
   6  5  0    -1468.4493998386    -0.0000000003   0.000000039   0.000000020      380662627   24527731

          -----------------
          DENSITY CONVERGED
          -----------------
     TIME TO FORM FOCK OPERATORS=      11.5 SECONDS (       1.9 SEC/ITER)
     FOCK TIME ON FIRST ITERATION=       3.8, LAST ITERATION=       1.2
     TIME TO SOLVE SCF EQUATIONS=       0.2 SECONDS (       0.0 SEC/ITER)

 FINAL RHF ENERGY IS    -1468.4493998386 AFTER   6 ITERATIONS
 ...... END OF RHF CALCULATION ......
 CPU     0: STEP CPU TIME=    27.17 TOTAL CPU TIME=       3510.4 (     58.5 MIN)
 TOTAL WALL CLOCK TIME=       7663.7 SECONDS, CPU UTILIZATION IS    45.81%
 DONE PCM POT.
 CPU     0: STEP CPU TIME=     0.46 TOTAL CPU TIME=       3510.9 (     58.5 MIN)
 TOTAL WALL CLOCK TIME=       7665.0 SECONDS, CPU UTILIZATION IS    45.80%

 Iter=  9 iFrag=      1 EFMO= -1522.821399950, DD= 0.000027816, DE=-0.000073431


 RHF      monomer      9 corr= NONE       , L1=   386, L0=   362 ID=      2


 AO spaces for     9     0     0 n-mer: L1=   386, L0=   362

 DIRECT SCF CALCULATION, SCHWRZ=T   FDIFF=T,  DIRTHR=  0.00E+00 NITDIR=10

                                                                                   NONZERO     BLOCKS
 ITER EX DEM     TOTAL ENERGY        E CHANGE  DENSITY CHANGE     ORB. GRAD      INTEGRALS    SKIPPED
   1  0  0    -1440.8245750309 -1440.8245750309   0.000099055   0.000000000      891180771   17668624
          ---------------START SECOND ORDER SCF---------------
   2  1  0    -1440.8245698756     0.0000051553   0.000025257   0.000004115      593022893   21120480
   3  2  0    -1440.8245707831    -0.0000009074   0.000004625   0.000001150      555531023   21442642
   4  3  0    -1440.8245703816     0.0000004015   0.000001887   0.000000295      503043707   21871103
   5  4  0    -1440.8245703317     0.0000000499   0.000000594   0.000000146      449800161   22294928
   6  5  0    -1440.8245703349    -0.0000000032   0.000000161   0.000000037      410089700   22602778
   7  6  0    -1440.8245703375    -0.0000000027   0.000000041   0.000000017      354317769   23038899

          -----------------
          DENSITY CONVERGED
          -----------------
     TIME TO FORM FOCK OPERATORS=      12.6 SECONDS (       1.8 SEC/ITER)
     FOCK TIME ON FIRST ITERATION=       3.1, LAST ITERATION=       1.0
     TIME TO SOLVE SCF EQUATIONS=       0.3 SECONDS (       0.0 SEC/ITER)

 FINAL RHF ENERGY IS    -1440.8245703375 AFTER   7 ITERATIONS
 ...... END OF RHF CALCULATION ......
 CPU     0: STEP CPU TIME=    37.03 TOTAL CPU TIME=       3547.9 (     59.1 MIN)
 TOTAL WALL CLOCK TIME=       7742.4 SECONDS, CPU UTILIZATION IS    45.82%
 DONE PCM POT.
 CPU     0: STEP CPU TIME=     0.45 TOTAL CPU TIME=       3548.4 (     59.1 MIN)
 TOTAL WALL CLOCK TIME=       7743.7 SECONDS, CPU UTILIZATION IS    45.82%

 Iter=  9 iFrag=      9 EFMO= -1507.511809947, DD= 0.000081549, DE= 0.000016462


 RHF      monomer     10 corr= NONE       , L1=   386, L0=   362 ID=      3


 AO spaces for    10     0     0 n-mer: L1=   386, L0=   362

 DIRECT SCF CALCULATION, SCHWRZ=T   FDIFF=T,  DIRTHR=  0.00E+00 NITDIR=10

                                                                                   NONZERO     BLOCKS
 ITER EX DEM     TOTAL ENERGY        E CHANGE  DENSITY CHANGE     ORB. GRAD      INTEGRALS    SKIPPED
   1  0  0    -1450.0152134139 -1450.0152134139   0.000107683   0.000000000      863176353   17817550
          ---------------START SECOND ORDER SCF---------------
   2  1  0    -1450.0152067857     0.0000066282   0.000027479   0.000004453      584628530   21177557
   3  2  0    -1450.0152075895    -0.0000008038   0.000005001   0.000001817      547469515   21500937
   4  3  0    -1450.0152071483     0.0000004412   0.000001566   0.000000300      498412114   21906844
   5  4  0    -1450.0152070541     0.0000000942   0.000000627   0.000000135      442388584   22352132
   6  5  0    -1450.0152070579    -0.0000000038   0.000000189   0.000000050      405476379   22645210
   7  6  0    -1450.0152070556     0.0000000023   0.000000040   0.000000028      358008039   23025926

          -----------------
          DENSITY CONVERGED
          -----------------
     TIME TO FORM FOCK OPERATORS=      12.1 SECONDS (       1.7 SEC/ITER)
     FOCK TIME ON FIRST ITERATION=       3.1, LAST ITERATION=       1.1
     TIME TO SOLVE SCF EQUATIONS=       0.3 SECONDS (       0.0 SEC/ITER)

 FINAL RHF ENERGY IS    -1450.0152070556 AFTER   7 ITERATIONS
 ...... END OF RHF CALCULATION ......
 CPU     0: STEP CPU TIME=    40.28 TOTAL CPU TIME=       3588.7 (     59.8 MIN)
 TOTAL WALL CLOCK TIME=       7828.7 SECONDS, CPU UTILIZATION IS    45.84%
 DONE PCM POT.
 CPU     0: STEP CPU TIME=     0.43 TOTAL CPU TIME=       3589.1 (     59.8 MIN)
 TOTAL WALL CLOCK TIME=       7830.0 SECONDS, CPU UTILIZATION IS    45.84%

 Iter=  9 iFrag=     10 EFMO= -1507.484916101, DD= 0.000085992, DE= 0.000032754


 RHF      monomer      3 corr= NONE       , L1=   341, L0=   320 ID=      4

