‘2LBL_3_fmo_input.inp’ -> ‘/scratch/hazwong/822127/./2LBL_3_fmo_input.inp’
‘rungms’ -> ‘/scratch/hazwong/822127/./rungms’
‘gms-files.csh’ -> ‘/scratch/hazwong/822127/./gms-files.csh’
----- GAMESS execution script 'rungms' -----
This job is running on host gollum065.lsa.umich.edu
under operating system Linux at Fri Dec 6 11:47:50 EST 2019
Available scratch disk space (Kbyte units) at beginning of the job is
Filesystem     1K-blocks   Used Available Use% Mounted on
/dev/sda4      426933580 424372 426509208   1% /scratch
GAMESS temporary binary files will be written to /scratch/hazwong/822127/2LBL_3/usrc
GAMESS supplementary output files will be written to /scratch/hazwong/822127/2LBL_3/src
Copying input file 2LBL_3_fmo_input.inp to your run's scratch directory...
cp 2LBL_3_fmo_input.inp /scratch/hazwong/822127/2LBL_3/usrc/2LBL_3_fmo_input.F05
unset echo
This is a GDDI run, keeping various output files on local disks
setenv OUTPUT /scratch/hazwong/822127/2LBL_3/usrc/2LBL_3_fmo_input.F06
setenv PUNCH /scratch/hazwong/822127/2LBL_3/usrc/2LBL_3_fmo_input.F07
unset echo
 
Assuming a single but multicore node.
 
/export/apps/CentOS7/gamess/src/build//ddikick.x /export/apps/CentOS7/gamess/src/build//gamess.R3.x 2LBL_3_fmo_input -ddi 1 16 gollum065.lsa.umich.edu:cpus=16 -scr /scratch/hazwong/822127/2LBL_3/usrc

 Distributed Data Interface kickoff program.
 Initiating 16 compute processes on 1 nodes to run the following command:
 /export/apps/CentOS7/gamess/src/build//gamess.R3.x 2LBL_3_fmo_input 

          ******************************************************
          *         GAMESS VERSION = 30 SEP 2018 (R3)         *
          *             FROM IOWA STATE UNIVERSITY             *
          * M.W.SCHMIDT, K.K.BALDRIDGE, J.A.BOATZ, S.T.ELBERT, *
          *   M.S.GORDON, J.H.JENSEN, S.KOSEKI, N.MATSUNAGA,   *
          *          K.A.NGUYEN, S.J.SU, T.L.WINDUS,           *
          *       TOGETHER WITH M.DUPUIS, J.A.MONTGOMERY       *
          *         J.COMPUT.CHEM.  14, 1347-1363(1993)        *
          **************** 64 BIT LINUX VERSION ****************

  SINCE 1993, STUDENTS AND POSTDOCS WORKING AT IOWA STATE UNIVERSITY
  AND ALSO IN THEIR VARIOUS JOBS AFTER LEAVING ISU HAVE MADE IMPORTANT
  CONTRIBUTIONS TO THE CODE:
     IVANA ADAMOVIC, CHRISTINE AIKENS, YURI ALEXEEV, POOJA ARORA,
     ANDREY ASADCHEV, ROB BELL, PRADIPTA BANDYOPADHYAY, JONATHAN BENTZ,
     BRETT BODE, KURT BRORSEN, CALEB CARLIN, GALINA CHABAN, WEI CHEN,
     CHEOL HO CHOI, PAUL DAY, ALBERT DEFUSCO, NUWAN DESILVA, TIM DUDLEY,
     DMITRI FEDOROV, ALEX FINDLATER, GRAHAM FLETCHER, MARK FREITAG,
     KURT GLAESEMANN, ANASTASIA GUNINA,
     DAN KEMP, GRANT MERRILL, NORIYUKI MINEZAWA, JONATHAN MULLIN,
     TAKESHI NAGATA, SEAN NEDD, HEATHER NETZLOFF, BOSILJKA NJEGIC, RYAN OLSON,
     MIKE PAK, BUU PHAM,
     SPENCER PRUITT, LUKE ROSKOP, JIM SHOEMAKER, LYUDMILA SLIPCHENKO,
     TONY SMITH, SAROM SOK LEANG, JIE SONG, TETSUYA TAKETSUGU, SIMON WEBB,
     PENG XU, SOOHAENG YOO, FEDERICO ZAHARIEV

  ADDITIONAL CODE HAS BEEN PROVIDED BY COLLABORATORS IN OTHER GROUPS:
     IOWA STATE UNIVERSITY:
          JOE IVANIC, AARON WEST, LAIMUTIS BYTAUTAS, KLAUS RUEDENBERG
     UNIVERSITY OF TOKYO: KIMIHIKO HIRAO, TAKAHITO NAKAJIMA,
          TAKAO TSUNEDA, MUNEAKI KAMIYA, SUSUMU YANAGISAWA,
          KIYOSHI YAGI, MAHITO CHIBA, SEIKEN TOKURA, NAOAKI KAWAKAMI
     UNIVERSITY OF AARHUS: FRANK JENSEN
     UNIVERSITY OF IOWA: VISVALDAS KAIRYS, HUI LI
     NATIONAL INST. OF STANDARDS AND TECHNOLOGY: WALT STEVENS, DAVID GARMER
     UNIVERSITY OF PISA: BENEDETTA MENNUCCI, JACOPO TOMASI
     UNIVERSITY OF MEMPHIS: HENRY KURTZ, PRAKASHAN KORAMBATH
     UNIVERSITY OF ALBERTA: TOBY ZENG, MARIUSZ KLOBUKOWSKI
     UNIVERSITY OF NEW ENGLAND: MARK SPACKMAN
     MIE UNIVERSITY: HIROAKI UMEDA
     NAT. INST. OF ADVANCED INDUSTRIAL SCIENCE AND TECHNOLOGY: KAZUO KITAURA
     MICHIGAN STATE UNIVERSITY:
          KAROL KOWALSKI, MARTA WLOCH, JEFFREY GOUR, JESSE LUTZ,
          WEI LI, JUN SHEN, J. EMILIANO DEUSTUA, PIOTR PIECUCH
     UNIVERSITY OF MINNESOTA:
          YINAN SHU
     UNIVERSITY OF SILESIA: MONIKA MUSIAL, STANISLAW KUCHARSKI
     FACULTES UNIVERSITAIRES NOTRE-DAME DE LA PAIX:
          OLIVIER QUINET, BENOIT CHAMPAGNE
     UNIVERSITY OF CALIFORNIA - SANTA BARBARA: BERNARD KIRTMAN
     INSTITUTE FOR MOLECULAR SCIENCE:
          KAZUYA ISHIMURA, MICHIO KATOUDA, AND SHIGERU NAGASE
     UNIVERSITY OF NOTRE DAME: ANNA POMOGAEVA, DAN CHIPMAN
     KYUSHU UNIVERSITY:
          HARUYUKI NAKANO,
          FENG LONG GU, JACEK KORCHOWIEC, MARCIN MAKOWSKI, AND YURIKO AOKI,
          HIROTOSHI MORI AND EISAKU MIYOSHI
     PENNSYLVANIA STATE UNIVERSITY:
          TZVETELIN IORDANOV, CHET SWALINA, JONATHAN SKONE,
          SHARON HAMMES-SCHIFFER
     WASEDA UNIVERSITY:
          MASATO KOBAYASHI, TOMOKO AKAMA, TSUGUKI TOUMA,
          TAKESHI YOSHIKAWA, YASUHIRO IKABATA, JUNJI SEINO,
          YUYA NAKAJIMA, HIROMI NAKAI
     NANJING UNIVERSITY: SHUHUA LI
     UNIVERSITY OF NEBRASKA:
          PEIFENG SU, DEJUN SI, NANDUN THELLAMUREGE, YALI WANG, HUI LI
     UNIVERSITY OF ZURICH: ROBERTO PEVERATI, KIM BALDRIDGE
     N. COPERNICUS UNIVERSITY AND JACKSON STATE UNIVERSITY:
          MARIA BARYSZ
     UNIVERSITY OF COPENHAGEN: Jimmy Kromann, CASPER STEINMANN
     TOKYO INSTITUTE OF TECHNOLOGY: HIROYA NAKATA
     NAGOYA UNIVERSITY: YOSHIO NISHIMOTO, STEPHAN IRLE
     MOSCOW STATE UNIVERSITY: VLADIMIR MIRONOV


 PARALLEL VERSION RUNNING ON       16 PROCESSORS IN        1 NODES.

 EXECUTION OF GAMESS BEGUN Fri Dec  6 11:47:51 2019

            ECHO OF THE FIRST FEW INPUT CARDS -
 INPUT CARD>!*** FMO 5.3 (Gamess) INPUT generated by Facio 22.1.1.32 ***                    
 INPUT CARD> $CONTRL RUNTYP=ENERGY NPRINT=-5 ISPHER=1 MAXIT=200 $END                        
 INPUT CARD> $SYSTEM MWORDS=63 MEMDDI=63 $END                                               
 INPUT CARD> $GDDI NGROUP=1 $END                                                            
 INPUT CARD> $SCF DIRSCF=.TRUE. NPUNCH=0 $END                                               
 INPUT CARD>!*** NumCPU : 2  MemPerNode : 512MB                                             
 INPUT CARD> $PCM SOLVNT=WATER IEF=-10 ICOMP=2 ICAV=1 IDISP=1 IFMO=-1 $END                  
 INPUT CARD> $PCMCAV RADII=SUAHF $END                                                       
 INPUT CARD> $TESCAV NTSALL=60 $END                                                         
 INPUT CARD> $FMOPRP                                                                        
 INPUT CARD>    NAODIR=200                                                                  
 INPUT CARD>    NGRFMO(1)=1, 1, 0, 0, 0,   0, 0, 0, 0, 0                                    
 INPUT CARD>    IPIEDA=1                                                                    
 INPUT CARD>    NPRINT=9                                                                    
 INPUT CARD> $END                                                                           
 INPUT CARD> $FMO                                                                           
 INPUT CARD>      SCFTYP(1)=RHF                                                             
 INPUT CARD>      MODGRD=10                                                                 
 INPUT CARD>      MODMUL=0                                                                  
 INPUT CARD>      MAXCAO=5                                                                  
 INPUT CARD>      MAXBND=13                                                                 
 INPUT CARD>      NLAYER=1                                                                  
 INPUT CARD>      MPLEVL(1)=2                                                               
 INPUT CARD>      NFRAG=11                                                                  
 INPUT CARD>      ICHARG(1)=-1, -1, -1, -1, -1, -1, -1, -1, -1, -1, 0                       
 INPUT CARD>      FRGNAM(1)=F1, F2, F3, F4, F5, F6, F7, F8, F9, F10, F11                    
 INPUT CARD>      indat(1)=0                                                                
 INPUT CARD>               1   -35   0                                                      
 INPUT CARD>               36   -66   0                                                     
 INPUT CARD>               67   -97   0                                                     
 INPUT CARD>               98   -127   0                                                    
 INPUT CARD>               128   -157   0                                                   
 INPUT CARD>               158   -188   0                                                   
 INPUT CARD>               189   -219   0                                                   
 INPUT CARD>               220   -252   0                                                   
 INPUT CARD>               253   -285   0                                                   
 INPUT CARD>               286   -319   0                                                   
 INPUT CARD>               320   -346   0                                                   
 INPUT CARD> $END                                                                           
 INPUT CARD>                                                                                
 INPUT CARD> $FMOBND                                                                        
 INPUT CARD>   -36   35       6-31G*    MINI                                                
 INPUT CARD>   -67   66       6-31G*    MINI                                                
 INPUT CARD>   -98   97       6-31G*    MINI                                                
 INPUT CARD>   -128   127       6-31G*    MINI                                              
 INPUT CARD>   -158   157       6-31G*    MINI                                              
 INPUT CARD>   -189   188       6-31G*    MINI                                              
 INPUT CARD>   -220   219       6-31G*    MINI                                              
 INPUT CARD>   -253   252       6-31G*    MINI                                              
 INPUT CARD>   -286   285       6-31G*    MINI                                              


 -------------------------------------------------------------
 GROUP DDI, PROGRAMMED BY: RYAN M. OLSON AND DMITRI G. FEDOROV
        FEDOROV ET AL., J. COMPUT. CHEM., 25 (2004) 872.
 -------------------------------------------------------------

 -------------------------------------------------------
 GDDI: INITIALIZATION COMPLETED FOR GROUP     1 OF     1
 WITH    16 PROCESSES BALTYP=DLB   global rank=        0
 -------------------------------------------------------

   63000000 WORDS OF MEMORY AVAILABLE


     RUN TITLE
     ---------
  FMO calculation                                                                

 THE POINT GROUP OF THE MOLECULE IS C1      
 THE ORDER OF THE PRINCIPAL AXIS IS     0

 ATOM   ATOMIC CHARGE
 H.1-1       1.0
 O.1-1       8.0
 C.1-1       6.0
 N.1-1       7.0
 P.1-1      15.0

     ATOMIC BASIS SET LIBRARY
     ----------------
 THE CONTRACTED PRIMITIVE FUNCTIONS HAVE BEEN UNNORMALIZED
 THE CONTRACTED BASIS FUNCTIONS ARE NOW NORMALIZED TO UNITY

  SHELL TYPE  PRIMITIVE        EXPONENT          CONTRACTION COEFFICIENT(S)

 H.1-1     

      1   S       1            18.7311370    0.033494604338
      1   S       2             2.8253944    0.234726953484
      1   S       3             0.6401217    0.813757326146

      2   S       4             0.1612778    1.000000000000

 O.1-1     

      3   S       5          5484.6716600    0.001831074430
      3   S       6           825.2349460    0.013950172200
      3   S       7           188.0469580    0.068445078098
      3   S       8            52.9645000    0.232714335992
      3   S       9            16.8975704    0.470192897984
      3   S      10             5.7996353    0.358520852987

      4   L      11            15.5396162   -0.110777549525    0.070874268231
      4   L      12             3.5999336   -0.148026262701    0.339752839147
      4   L      13             1.0137618    1.130767015354    0.727158577316

      5   L      14             0.2700058    1.000000000000    1.000000000000

      6   D      15             0.8000000    1.000000000000

 C.1-1     

      7   S      16          3047.5248800    0.001834737132
      7   S      17           457.3695180    0.014037322813
      7   S      18           103.9486850    0.068842622264
      7   S      19            29.2101553    0.232184443216
      7   S      20             9.2866630    0.467941348435
      7   S      21             3.1639270    0.362311985337

      8   L      22             7.8682723   -0.119332419775    0.068999066591
      8   L      23             1.8812885   -0.160854151696    0.316423960957
      8   L      24             0.5442493    1.143456437840    0.744308290898

      9   L      25             0.1687145    1.000000000000    1.000000000000

     10   D      26             0.8000000    1.000000000000

 N.1-1     

     11   S      27          4173.5114600    0.001834772160
     11   S      28           627.4579110    0.013994627002
     11   S      29           142.9020930    0.068586551812
     11   S      30            40.2343293    0.232240873040
     11   S      31            12.8202129    0.469069948082
     11   S      32             4.3904370    0.360455199063

     12   L      33            11.6263619   -0.114961181702    0.067579743878
     12   L      34             2.7162798   -0.169117478561    0.323907295893
     12   L      35             0.7722184    1.145851947027    0.740895139755

     13   L      36             0.2120315    1.000000000000    1.000000000000

     14   D      37             0.8000000    1.000000000000

 P.1-1     

     15   S      38         19413.3000000    0.001851598923
     15   S      39          2909.4200000    0.014206191735
     15   S      40           661.3640000    0.069999459277
     15   S      41           185.7590000    0.240078860331
     15   S      42            59.1943000    0.484761717984
     15   S      43            20.0310000    0.335199804993

     16   L      44           339.4780000   -0.002782170105    0.004564616191
     16   L      45            81.0101000   -0.036049901354    0.033693571881
     16   L      46            25.8780000   -0.116631004382    0.139754883368
     16   L      47             9.4522100    0.096832803638    0.339361716786
     16   L      48             3.6656600    0.614418023082    0.450920623685
     16   L      49             1.4674600    0.403798015170    0.238585800889

     17   L      50             2.1562300   -0.252924113863   -0.017765312733
     17   L      51             0.7489970    0.032851844678    0.274058196433
     17   L      52             0.2831450    1.081254761783    0.785421562957

     18   L      53             0.0998317    1.000000000000    1.000000000000

     19   D      54             0.5500000    1.000000000000

 TOTAL NUMBER OF BASIS SET SHELLS             =   19
 NUMBER OF CARTESIAN GAUSSIAN BASIS FUNCTIONS =   66

     $CONTRL OPTIONS
     ---------------
 SCFTYP=RHF          RUNTYP=ENERGY       EXETYP=RUN     
 MPLEVL=       0     CITYP =NONE         CCTYP =NONE         VBTYP =NONE    
 DFTTYP=NONE         TDDFT =NONE    
 MULT  =       1     ICHARG=       0     NZVAR =       0     COORD =UNIQUE  
 PP    =NONE         RELWFN=NONE         LOCAL =NONE         NUMGRD=       F
 ISPHER=       1     NOSYM =       0     MAXIT =     200     UNITS =ANGS    
 PLTORB=       F     MOLPLT=       F     AIMPAC=       F     FRIEND=        
 NPRINT=      -5     IREST =       0     GEOM  =INPUT   
 NORMF =       0     NORMP =       0     ITOL  =      24     ICUT  =      12
 INTTYP=BEST         GRDTYP=BEST         QMTTOL= 1.0E-06

     $SYSTEM OPTIONS
     ---------------
  REPLICATED MEMORY=    63000000 WORDS (ON EVERY NODE).
 DISTRIBUTED MEMDDI=          63 MILLION WORDS IN AGGREGATE,
 MEMDDI DISTRIBUTED OVER  16 PROCESSORS IS     3937500 WORDS/PROCESSOR.
 TOTAL MEMORY REQUESTED ON EACH PROCESSOR=    66937500 WORDS.
 TIMLIM=      525600.00 MINUTES, OR     365.0 DAYS.
 PARALL= T  BALTYP=  DLB     KDIAG=    0  COREFL= F
 MXSEQ2=     300 MXSEQ3=     150  mem10=         0

 ** LOOKING UP INTERNALLY STORED DATA FOR SOLVENT=WATER    **
 OPTICAL AND PHYSICAL CONSTANTS:
 EPS= 78.390; EPSINF=  1.776; RSOLV=  1.385 A; VMOL=  18.070 ML/MOL;
 TCE= .25700E-03 1/K; STEN= 71.810 DYN/CM;  DSTEN=  0.6500; CMF=  1.2770


     -----------------------------------
     INPUT FOR PCM SOLVATION CALCULATION 
     -----------------------------------
     IEF   =     -10
     ICOMP =       2     IFIELD=       0     ICAV  =       1
     IDISP =       1     IREP  =       0     IDP   =       0

     SOLVNT=WATER        EPS   = 78.3900     EPSINF=  1.7760
     VMOL  = 18.0700     TCE   =  0.00025700 STEN  = 71.8100
     DSTEN =  0.6500     CMF   =  1.2770     RSOLV =  1.3850

     NESFP =       0
     OMEGA = 40.0000     RET   =100.0000     FRO   =  0.7000

     TABS  =298.0000     IPRINT=       0

     --------------------------------
     INPUT FOR ITERATIVE C-PCM METHOD 
     --------------------------------
     IPCMIT  =         1     MXDIIS  =        50
     MXITR1  =       200     MXITR2  =       200
     THRES   = 0.100E-09     IMUL    =         3
     RCUT(1) =   20.0000     RCUT(2) =   50.0000

     IDIRCT  =         1
     IMGABI  =         0     RABI    =    4.0000
     IMGASC  =         0     RASC    =   20.0000
     THRSLS  = 0.500E-03     DENSLS  =    0.0100
     IEFPOL  =         1     REFPOL  =    0.0000

     INPUT FOR ISOTROPIC DIELECTRICS
     -------------------------------
     EPS=    78.39

          ----------------
          PROPERTIES INPUT
          ----------------

     MOMENTS            FIELD           POTENTIAL          DENSITY
 IEMOM =       1   IEFLD =       0   IEPOT =       0   IEDEN =       0
 WHERE =COMASS     WHERE =NUCLEI     WHERE =NUCLEI     WHERE =NUCLEI  
 OUTPUT=BOTH       OUTPUT=BOTH       OUTPUT=NONE       OUTPUT=BOTH    
 IEMINT=       0   IEFINT=       0                     IEDINT=       0
                                                       MORB  =       0
          EXTRAPOLATION IN EFFECT
          SOSCF IN EFFECT
 ORBITAL PRINTING OPTION: NPREO=     1 32767     2     1

     -------------------------------
     INTEGRAL TRANSFORMATION OPTIONS
     -------------------------------
     NWORD  =            0
     CUTOFF = 1.0E-10     MPTRAN =       0
     DIRTRF =       T     AOINTS =DUP     

          ----------------------
          INTEGRAL INPUT OPTIONS
          ----------------------
 NOPK  =       1 NORDER=       0 SCHWRZ=       T

 ..... DONE SETTING UP THE RUN .....
 CPU     0: STEP CPU TIME=     0.04 TOTAL CPU TIME=          0.0 (      0.0 MIN)
 TOTAL WALL CLOCK TIME=          0.1 SECONDS, CPU UTILIZATION IS    57.14%
 CPU     0: STEP CPU TIME=     0.00 TOTAL CPU TIME=          0.0 (      0.0 MIN)
 TOTAL WALL CLOCK TIME=          0.1 SECONDS, CPU UTILIZATION IS    57.14%

                    ----------------------
                    AO INTEGRAL TECHNOLOGY
                    ----------------------
     S,P,L SHELL ROTATED AXIS INTEGRALS, REPROGRAMMED BY
        KAZUYA ISHIMURA (IMS) AND JOSE SIERRA (SYNSTAR).
     S,P,D,L SHELL ROTATED AXIS INTEGRALS PROGRAMMED BY
        KAZUYA ISHIMURA (INSTITUTE FOR MOLECULAR SCIENCE).
     S,P,D,F,G SHELL TO TOTAL QUARTET ANGULAR MOMENTUM SUM 5,
        ERIC PROGRAM BY GRAHAM FLETCHER (ELORET AND NASA ADVANCED
        SUPERCOMPUTING DIVISION, AMES RESEARCH CENTER).
     S,P,D,F,G,L SHELL GENERAL RYS QUADRATURE PROGRAMMED BY
        MICHEL DUPUIS (PACIFIC NORTHWEST NATIONAL LABORATORY).
 Setting modorb=1 flag...
 Setting modorb=1 flag...

          -----------------------
          MP2 CONTROL INFORMATION
          -----------------------
          NACORE =        8  NBCORE =        8
          LMOMP2 =        F  AOINTS = DUP     
          METHOD =        2  NWORD  =               0
          MP2PRP =        F  OSPT   = NONE    
          CUTOFF = 1.00E-12  CPHFBS = BASISAO 
          CODE   = IMS     

          NUMBER OF CORE -A-  ORBITALS =     8
          NUMBER OF CORE -B-  ORBITALS =     8
          NUMBER OF OCC. -A-  ORBITALS =    18
          NUMBER OF OCC. -B-  ORBITALS =    18
          NUMBER OF MOLECULAR ORBITALS =    66
          NUMBER OF   BASIS  FUNCTIONS =    66

 CPU     0: STEP CPU TIME=     0.02 TOTAL CPU TIME=          0.1 (      0.0 MIN)
 TOTAL WALL CLOCK TIME=          0.1 SECONDS, CPU UTILIZATION IS    60.00%
 CPU     0: STEP CPU TIME=     0.00 TOTAL CPU TIME=          0.1 (      0.0 MIN)
 TOTAL WALL CLOCK TIME=          0.1 SECONDS, CPU UTILIZATION IS    60.00%

     INPUT FOR CAVITY DEFINITION 
     ---------------------------
   ATOM               COORDINATES                RADIUS       EPS
      1     -4.6480     -8.3520      6.9290      0.0100     78.3900
      2     -3.9460     -8.1750      6.2700      1.5900     78.3900
      3     -4.6050     -7.6310      5.1160      1.7700     78.3900
      4     -5.1710     -6.7200      5.4130      0.0100     78.3900
      5     -5.3380     -8.3740      4.7300      0.0100     78.3900
      6     -3.6380     -7.2640      3.9870      1.7700     78.3900
      7     -4.1880     -6.8840      3.0990      0.0100     78.3900
      8     -2.7350     -6.2070      4.4260      1.5900     78.3900
      9     -1.4450     -6.4460      3.8900      1.7700     78.3900
     10     -1.1590     -5.5270      3.3270      0.0100     78.3900
     11     -0.4590     -6.6750      4.9530      1.6800     78.3900
     12      1.4120     -6.8090      6.1050      1.7700     78.3900
     13      0.3860     -7.0850      6.9990      1.6800     78.3900
     14     -0.7020     -6.9920      6.2710      1.7700     78.3900
     15     -1.7210     -7.1450      6.6350      0.0100     78.3900
     16      3.5510     -6.4300      5.1620      1.6800     78.3900
     17      2.9180     -6.2400      3.9980      1.7700     78.3900
     18      3.5660     -6.0150      3.1450      0.0100     78.3900
     19      1.6070     -6.2770      3.7320      1.6800     78.3900
     20      0.9040     -6.5620      4.8400      1.7700     78.3900
     21      2.8130     -6.7230      6.2630      1.7700     78.3900
     22      3.4450     -6.9130      7.4390      1.6800     78.3900
     23      2.9440     -7.1100      8.2850      0.0100     78.3900
     24      4.4460     -6.8750      7.4890      0.0100     78.3900
     25     -1.5610     -7.6080      2.9280      1.7700     78.3900
     26     -0.6330     -8.2100      2.8750      0.0100     78.3900
     27     -1.8960     -7.1220      1.6440      1.5900     78.3900
     28     -1.9920     -7.8920      1.0710      0.0100     78.3900
     29     -2.7140     -8.4030      3.5390      1.7700     78.3900
     30     -2.3730     -8.9180      4.4680      0.0100     78.3900
     31     -3.4260     -9.2850      2.6320      1.5900     78.3900
     32     -2.9210    -10.7760      2.4960      2.1000     78.3900
     33     -2.7400    -11.3440      3.8480      1.5900     78.3900
     34     -3.8100    -11.5300      1.5800      1.5900     78.3900
     35     -1.5070    -10.6280      1.8290      1.5900     78.3900
     36     -1.3800    -10.2230      0.4460      1.7700     78.3900
     37     -1.8910     -9.2550      0.2590      0.0100     78.3900
     38     -1.8400    -10.9780     -0.2260      0.0100     78.3900
     39      0.0910    -10.0610      0.0480      1.7700     78.3900
     40      0.1740     -9.6850     -0.9930      0.0100     78.3900
     41      0.7350     -9.0810      0.9090      1.5900     78.3900
     42      2.0760     -9.4810      1.1480      1.7700     78.3900
     43      2.7070     -8.6380      0.7840      0.0100     78.3900
     44      2.3730     -9.7090      2.5890      1.6800     78.3900
     45      1.3500     -9.9620      3.4730      1.7700     78.3900
     46      0.3470     -9.9850      3.0460      0.0100     78.3900
     47      1.5820    -10.1370      4.7790      1.7700     78.3900
     48      0.7800    -10.3010      5.4960      0.0100     78.3900
     49      3.6910     -9.7070      3.0430      1.7700     78.3900
     50      4.6130     -9.5320      2.2310      1.5900     78.3900
     51      3.9440     -9.8930      4.3580      1.6800     78.3900
     52      2.9340    -10.0830      5.2230      1.7700     78.3900
     53      3.2130    -10.2260      6.5170      1.6800     78.3900
     54      4.1680    -10.1640      6.8150      0.0100     78.3900
     55      2.5070    -10.3720      7.2110      0.0100     78.3900
     56      2.3490    -10.7030      0.2930      1.7700     78.3900
     57      3.0560    -11.4050      0.7740      0.0100     78.3900
     58      2.8520    -10.3050     -0.9680      1.5900     78.3900
     59      2.9000    -11.1060     -1.5030      0.0100     78.3900
     60      0.9610    -11.3200      0.1650      1.7700     78.3900
     61      0.6670    -11.8250      1.1180      0.0100     78.3900
     62      0.7830    -12.1530     -1.0060      1.5900     78.3900
     63      0.9330    -13.7170     -0.8840      2.1000     78.3900
     64      0.2730    -14.1620      0.3610      1.5900     78.3900
     65      0.4760    -14.3490     -2.1430      1.5900     78.3900
     66      2.4770    -13.9580     -0.7170      1.5900     78.3900
     67      3.4290    -13.6510     -1.7570      1.7700     78.3900
     68      3.2260    -12.6590     -2.2230      0.0100     78.3900
     69      3.3780    -14.4180     -2.5610      0.0100     78.3900
     70      4.8660    -13.6340     -1.2120      1.7700     78.3900
     71      5.5880    -13.3710     -2.0180      0.0100     78.3900
     72      4.9800    -12.6190     -0.1760      1.5900     78.3900
     73      5.8620    -13.0720      0.8390      1.7700     78.3900
     74      6.6690    -12.3050      0.9060      0.0100     78.3900
     75      5.2030    -13.2020      2.1720      1.6800     78.3900
     76      3.8490    -13.4240      2.2540      1.7700     78.3900
     77      3.3240    -13.4910      1.3050      0.0100     78.3900
     78      3.2230    -13.5080      3.4330      1.7700     78.3900
     79      2.1490    -13.6540      3.5170      0.0100     78.3900
     80      5.9570    -13.1250      3.3400      1.7700     78.3900
     81      7.1790    -12.9470      3.2520      1.5900     78.3900
     82      5.3400    -13.2230      4.5410      1.6800     78.3900
     83      4.0130    -13.3960      4.6100      1.7700     78.3900
     84      3.4310    -13.4730      5.8030      1.6800     78.3900
     85      3.9880    -13.3990      6.6300      0.0100     78.3900
     86      2.4480    -13.6120      5.9090      0.0100     78.3900
     87      6.4630    -14.3730      0.3570      1.7700     78.3900
     88      6.6730    -15.0590      1.1930      0.0100     78.3900
     89      7.6440    -14.1240     -0.3880      1.5900     78.3900
     90      7.8620    -14.9380     -0.8640      0.0100     78.3900
     91      5.3540    -14.9250     -0.5300      1.7700     78.3900
     92      4.5070    -15.3020      0.0880      0.0100     78.3900
     93      5.8070    -15.8830     -1.5130      1.5900     78.3900
     94      5.6700    -17.4310     -1.2430      2.1000     78.3900
     95      4.2340    -17.7250     -1.0490      1.5900     78.3900
     96      6.3420    -18.1600     -2.3440      1.5900     78.3900
     97      6.4240    -17.6940      0.1040      1.5900     78.3900
     98      7.8530    -17.5590      0.2690      1.7700     78.3900
     99      8.2130    -16.5690     -0.0780      0.0100     78.3900
    100      8.3990    -18.3250     -0.3230      0.0100     78.3900
    101      8.2580    -17.7070      1.7440      1.7700     78.3900
    102      9.3600    -17.6260      1.8610      0.0100     78.3900
    103      7.6670    -16.6340      2.5230      1.5900     78.3900
    104      7.2810    -17.1050      3.7920      1.7700     78.3900
    105      7.8160    -16.4480      4.5150      0.0100     78.3900
    106      5.8050    -17.0030      4.0050      1.6800     78.3900
    107      4.9280    -16.9420      2.9450      1.7700     78.3900
    108      5.3900    -16.9590      1.9600      0.0100     78.3900
    109      5.3480    -16.9510      5.2990      1.7700     78.3900
    110      6.1060    -16.9950      6.2620      1.5900     78.3900
    111      3.9870    -16.8400      5.4310      1.6800     78.3900
    112      3.6490    -16.7550      6.3810      0.0100     78.3900
    113      3.0520    -16.7330      4.4230      1.7700     78.3900
    114      1.8630    -16.5820      4.6950      1.5900     78.3900
    115      3.6030    -16.8070      3.1020      1.7700     78.3900
    116      2.9310    -16.7290      2.2490      0.0100     78.3900
    117      7.7940    -18.5350      3.8960      1.7700     78.3900
    118      7.1150    -19.1670      4.4950      0.0100     78.3900
    119      9.1000    -18.5610      4.4530      1.5900     78.3900
    120      9.0220    -18.4830      5.4150      0.0100     78.3900
    121      7.7900    -18.9850      2.4380      1.7700     78.3900
    122      6.7490    -19.1790      2.0940      0.0100     78.3900
    123      8.6950    -20.0690      2.1310      1.5900     78.3900
    124      8.1870    -21.5580      2.1800      2.1000     78.3900
    125      7.1990    -21.7040      1.0880      1.5900     78.3900
    126      9.3570    -22.4630      2.1320      1.5900     78.3900
    127      7.4470    -21.7530      3.5500      1.5900     78.3900
    128      8.1520    -21.8950      4.8070      1.7700     78.3900
    129      8.8460    -21.0400      4.9710      0.0100     78.3900
    130      8.7650    -22.8220      4.8020      0.0100     78.3900
    131      7.1790    -21.9610      6.0050      1.7700     78.3900
    132      7.7340    -22.0650      6.9600      0.0100     78.3900
    133      6.4070    -20.7230      6.0830      1.5900     78.3900
    134      5.0660    -21.0010      6.4650      1.7700     78.3900
    135      4.8860    -20.3790      7.3750      0.0100     78.3900
    136      4.0840    -20.6340      5.4030      1.6800     78.3900
    137      4.4560    -20.5640      4.0820      1.7700     78.3900
    138      5.5020    -20.7680      3.8860      0.0100     78.3900
    139      2.7910    -20.3520      5.7830      1.7700     78.3900
    140      2.4220    -20.4000      6.9510      1.5900     78.3900
    141      1.9490    -19.9970      4.7590      1.6800     78.3900
    142      1.0120    -19.7580      5.0330      0.0100     78.3900
    143      2.2590    -19.8830      3.4210      1.7700     78.3900
    144      1.4090    -19.5040      2.6170      1.5900     78.3900
    145      3.6150    -20.2090      3.1010      1.7700     78.3900
    146      3.9400    -20.1140      2.0670      0.0100     78.3900
    147      5.0060    -22.4660      6.8440      1.7700     78.3900
    148      4.0280    -22.9360      6.6140      0.0100     78.3900
    149      5.2920    -22.5770      8.2250      1.5900     78.3900
    150      4.4830    -22.4450      8.7630      0.0100     78.3900
    151      6.1170    -23.0660      5.9720      1.7700     78.3900
    152      5.7840    -23.1270      4.9170      0.0100     78.3900
    153      6.6870    -24.3280      6.4060      1.5900     78.3900
    154      5.7370    -25.5760      6.5700      2.1000     78.3900
    155      4.6750    -25.5070      5.5370      1.5900     78.3900
    156      6.5770    -26.7980      6.5490      1.5900     78.3900
    157      5.1290    -25.4090      8.0070      1.5900     78.3900
    158      4.2810    -26.3640      8.6640      1.7700     78.3900
    159      4.5030    -27.4090      8.3370      0.0100     78.3900
    160      3.2180    -26.1400      8.4230      0.0100     78.3900
    161      4.4490    -26.2930     10.1930      1.7700     78.3900
    162      3.7120    -26.9590     10.6930      0.0100     78.3900
    163      5.7790    -26.7800     10.5500      1.5900     78.3900
    164      6.2860    -26.0230     11.6420      1.7700     78.3900
    165      6.5030    -26.7740     12.4370      0.0100     78.3900
    166      7.5400    -25.2900     11.3160      1.6800     78.3900
    167      7.8130    -24.9320     10.0150      1.7700     78.3900
    168      7.0560    -25.2010      9.2780      0.0100     78.3900
    169      8.9540    -24.3100      9.6880      1.7700     78.3900
    170      9.2070    -24.0670      8.6570      0.0100     78.3900
    171      8.4230    -24.9320     12.3330      1.7700     78.3900
    172      8.1560    -25.2360     13.5060      1.5900     78.3900
    173      9.5720    -24.2880     12.0230      1.6800     78.3900
    174      9.8640    -24.0020     10.7430      1.7700     78.3900
    175     11.0430    -23.4490     10.4670      1.6800     78.3900
    176     11.6310    -23.1730     11.2250      0.0100     78.3900
    177     11.3230    -23.2220      9.5330      0.0100     78.3900
    178      5.1830    -25.1060     12.1270      1.7700     78.3900
    179      5.5670    -24.1360     12.5100      0.0100     78.3900
    180      4.4290    -25.7590     13.1350      1.5900     78.3900
    181      3.6520    -25.2050     13.3140      0.0100     78.3900
    182      4.3700    -24.9010     10.8540      1.7700     78.3900
    183      4.9050    -24.1970     10.1770      0.0100     78.3900
    184      2.9930    -24.5300     11.0830      1.5900     78.3900
    185      2.6000    -23.0060     11.1560      2.1000     78.3900
    186      3.2910    -22.2970     10.0570      1.5900     78.3900
    187      1.1210    -22.9420     11.1940      1.5900     78.3900
    188      3.1490    -22.5050     12.5500      1.5900     78.3900
    189      3.4220    -21.0960     12.7680      1.7700     78.3900
    190      2.5070    -20.5790     13.1330      0.0100     78.3900
    191      3.7410    -20.5850     11.8290      0.0100     78.3900
    192      4.5620    -20.8660     13.7780      1.7700     78.3900
    193      4.2340    -21.0870     14.8140      0.0100     78.3900
    194      5.6670    -21.7800     13.4830      1.5900     78.3900
    195      6.8950    -21.0790     13.5720      1.7700     78.3900
    196      7.5410    -21.6850     14.2490      0.0100     78.3900
    197      7.5690    -20.9330     12.2480      1.6800     78.3900
    198      6.8410    -21.0120     11.0840      1.7700     78.3900
    199      5.7750    -21.2330     11.1960      0.0100     78.3900
    200      7.4250    -20.8690      9.8870      1.7700     78.3900
    201      6.8690    -20.9370      8.9550      0.0100     78.3900
    202      8.9340    -20.6640     12.1860      1.7700     78.3900
    203      9.5700    -20.5450     13.2440      1.5900     78.3900
    204      9.5510    -20.5470     10.9870      1.6800     78.3900
    205      8.8310    -20.6490      9.8540      1.7700     78.3900
    206      9.4470    -20.5530      8.6730      1.6800     78.3900
    207      8.9360    -20.5900      7.8190      0.0100     78.3900
    208     10.4410    -20.4330      8.6470      0.0100     78.3900
    209      6.6010    -19.7430     14.2330      1.7700     78.3900
    210      7.3050    -18.9560     13.9060      0.0100     78.3900
    211      6.6310    -19.8640     15.6460      1.5900     78.3900
    212      6.3250    -19.0190     16.0110      0.0100     78.3900
    213      5.1900    -19.4580     13.7310      1.7700     78.3900
    214      5.2200    -19.1600     12.6580      0.0100     78.3900
    215      4.4220    -18.5350     14.5400      1.5900     78.3900
    216      4.6080    -16.9810     14.3280      2.1000     78.3900
    217      4.7340    -16.7200     12.8740      1.5900     78.3900
    218      3.5190    -16.2770     15.0430      1.5900     78.3900
    219      5.9630    -16.6420     15.0560      1.5900     78.3900
    220      6.6890    -15.4200     14.7460      1.7700     78.3900
    221      6.5560    -14.6880     15.5720      0.0100     78.3900
    222      6.3220    -14.9300     13.8110      0.0100     78.3900
    223      8.1940    -15.6740     14.5570      1.7700     78.3900
    224      8.6910    -15.8730     15.5300      0.0100     78.3900
    225      8.3730    -16.8610     13.7430      1.5900     78.3900
    226      9.4630    -16.7020     12.8770      1.7700     78.3900
    227     10.1490    -17.5570     13.0820      0.0100     78.3900
    228      9.0230    -16.7570     11.4850      1.6800     78.3900
    229      8.9640    -16.9750      9.3060      1.7700     78.3900
    230      7.6470    -16.7930      9.7080      1.6800     78.3900
    231      7.7320    -16.6730     11.0100      1.7700     78.3900
    232      6.8860    -16.5190     11.6880      0.0100     78.3900
    233     10.8910    -17.3410      7.9780      1.6800     78.3900
    234     11.5900    -17.3130      9.1160      1.7700     78.3900
    235     12.6710    -17.4530      9.0070      0.0100     78.3900
    236     11.1580    -17.1100     10.3650      1.6800     78.3900
    237      9.8200    -16.9610     10.3910      1.7700     78.3900
    238      9.5500    -17.1710      8.0420      1.7700     78.3900
    239      8.8600    -17.1500      6.8990      1.6800     78.3900
    240      7.8600    -17.0140      6.9060      0.0100     78.3900
    241      9.3580    -16.8640      6.0830      0.0100     78.3900
    242     10.1420    -15.4000     13.2390      1.7700     78.3900
    243     10.5890    -14.9020     12.3590      0.0100     78.3900
    244     11.1370    -15.6350     14.2210      1.5900     78.3900
    245     11.3990    -14.7780     14.5850      0.0100     78.3900
    246      8.9800    -14.5860     13.7980      1.7700     78.3900
    247      8.3200    -14.2280     12.9730      0.0100     78.3900
    248      9.3790    -13.5280     14.6950      1.5900     78.3900
    249      9.5500    -12.0500     14.1810      2.1000     78.3900
    250      8.2670    -11.6150     13.5920      1.5900     78.3900
    251     10.0990    -11.2360     15.2900      1.5900     78.3900
    252     10.6050    -12.1270     13.0160      1.5900     78.3900
    253     12.0130    -12.3390     13.2540      1.7700     78.3900
    254     12.1810    -13.2400     13.8840      0.0100     78.3900
    255     12.4510    -11.4620     13.7790      0.0100     78.3900
    256     12.7900    -12.5290     11.9380      1.7700     78.3900
    257     13.8690    -12.7200     12.1370      0.0100     78.3900
    258     12.2710    -13.6860     11.2270      1.5900     78.3900
    259     12.2020    -13.4090      9.8420      1.7700     78.3900
    260     12.7500    -14.2290      9.3250      0.0100     78.3900
    261     10.8160    -13.3990      9.3810      1.6800     78.3900
    262      9.0090    -13.5300      8.1480      1.7700     78.3900
    263      8.5750    -13.3310      9.4500      1.6800     78.3900
    264      9.6790    -13.2500     10.1360      1.7700     78.3900
    265      9.7240    -13.1090     11.2130      0.0100     78.3900
    266      9.0600    -13.8960      5.8170      1.6800     78.3900
    267     10.3890    -13.9030      5.9160      1.7700     78.3900
    268     10.9200    -14.0560      4.9730      0.0100     78.3900
    269     11.1550    -13.7510      7.0050      1.6800     78.3900
    270     10.3900    -13.5740      8.0940      1.7700     78.3900
    271      8.3190    -13.7050      6.9360      1.7700     78.3900
    272      6.9800    -13.6820      6.8480      1.6800     78.3900
    273      6.3830    -13.5970      7.6500      0.0100     78.3900
    274      6.5950    -13.6540      5.9150      0.0100     78.3900
    275     12.9050    -12.0970      9.6060      1.7700     78.3900
    276     12.4740    -11.5210      8.7610      0.0100     78.3900
    277     14.2830    -12.3350      9.3810      1.5900     78.3900
    278     14.7460    -11.4910      9.4830      0.0100     78.3900
    279     12.6650    -11.3790     10.9270      1.7700     78.3900
    280     11.6080    -11.0250     10.9860      0.0100     78.3900
    281     13.6270    -10.3430     11.2180      1.5900     78.3900
    282     13.2640     -8.8420     10.9050      2.1000     78.3900
    283     11.9750     -8.5270     11.5660      1.5900     78.3900
    284     14.4240     -7.9970     11.2710      1.5900     78.3900
    285     13.0440     -8.8210      9.3470      1.5900     78.3900
    286     14.1550     -8.9150      8.4280      1.7700     78.3900
    287     14.7340     -9.8490      8.5980      0.0100     78.3900
    288     14.8530     -8.0540      8.5560      0.0100     78.3900
    289     13.6740     -8.9370      6.9700      1.7700     78.3900
    290     14.5340     -9.0350      6.2720      0.0100     78.3900
    291     12.8100    -10.0890      6.7440      1.5900     78.3900
    292     11.7500     -9.7190      5.8740      1.7700     78.3900
    293     11.7490    -10.4420      5.0210      0.0100     78.3900
    294     10.4510     -9.7930      6.5530      1.6800     78.3900
    295      9.2290     -9.8070      5.9400      1.7700     78.3900
    296      7.3040     -9.7200      3.0540      1.6800     78.3900
    297      7.9840     -9.6810      2.3250      0.0100     78.3900
    298      6.3280     -9.7570      2.8220      0.0100     78.3900
    299      9.0120     -9.7300      4.6160      1.6800     78.3900
    300      7.7170     -9.8050      4.3080      1.7700     78.3900
    301      6.7310     -9.9190      5.2530      1.6800     78.3900
    302      5.7820    -10.0070      4.9250      0.0100     78.3900
    303      6.9230    -10.0130      6.6250      1.7700     78.3900
    304      5.9670    -10.1290      7.4000      1.5900     78.3900
    305      8.3040     -9.9200      6.9610      1.7700     78.3900
    306      8.9390     -9.9470      8.2000      1.6800     78.3900
    307     10.2140     -9.8640      7.9070      1.7700     78.3900
    308     11.0330     -9.8520      8.6300      0.0100     78.3900
    309     12.0510     -8.3270      5.3660      1.7700     78.3900
    310     11.1330     -7.7450      5.1510      0.0100     78.3900
    311     12.8430     -8.4030      4.1980      1.5900     78.3900
    312     13.0900     -7.4980      3.9770      0.0100     78.3900
    313     12.8320     -7.7330      6.5310      1.7700     78.3900
    314     12.1440     -7.5070      7.3800      0.0100     78.3900
    315     13.6990     -6.6290      6.1810      1.5900     78.3900
    316     13.2240     -5.1530      6.4600      2.1000     78.3900
    317     12.5180     -5.1100      7.7540      1.5900     78.3900
    318     14.3790     -4.2410      6.2950      1.5900     78.3900
    319     12.1740     -4.8860      5.3190      1.5900     78.3900
    320     12.5810     -4.8980      3.9300      1.7700     78.3900
    321     13.1270     -5.8300      3.6670      0.0100     78.3900
    322     13.2620     -4.0380      3.7260      0.0100     78.3900
    323     11.3760     -4.7800      2.9820      1.7700     78.3900
    324     11.7080     -4.6960      1.9280      0.0100     78.3900
    325     10.5410     -5.9710      3.0700      1.5900     78.3900
    326      9.1710     -5.5980      2.9740      1.7700     78.3900
    327      8.7510     -6.1810      2.1200      0.0100     78.3900
    328      8.4250     -5.9180      4.2250      1.6800     78.3900
    329      9.0910     -6.1180      5.4130      1.7700     78.3900
    330     10.1720     -6.0080      5.3670      0.0100     78.3900
    331      7.0520     -6.0070      4.1680      1.7700     78.3900
    332      6.4200     -5.8180      3.1340      1.5900     78.3900
    333      6.4420     -6.3230      5.3550      1.6800     78.3900
    334      5.4300     -6.3790      5.3180      0.0100     78.3900
    335      7.0450     -6.5430      6.5750      1.7700     78.3900
    336      6.3650     -6.8180      7.5600      1.5900     78.3900
    337      8.4690     -6.4370      6.5550      1.7700     78.3900
    338      9.0170     -6.6070      7.4780      0.0100     78.3900
    339      9.1290     -4.1110      2.6360      1.7700     78.3900
    340      8.2450     -3.6050      3.0880      0.0100     78.3900
    341      9.1230     -3.9240      1.2300      1.5900     78.3900
    342      9.2730     -2.9830      1.0460      0.0100     78.3900
    343     10.4210     -3.6210      3.2770      1.7700     78.3900
    344     10.2960     -3.5470      4.3790      0.0100     78.3900
    345     10.9400     -2.3920      2.7360      1.5900     78.3900
    346     10.3250     -1.6600      2.9240      0.0100     78.3900

     ----------------------------
     INPUT FOR TESSERA DEFINITION
     ----------------------------
     NTSALL  =        60     MTHALL  =         4
     MTHAUT  =         0     AUTFRE  =    2.0000
     NTSFRZ  =        60     KEEPSM  =         0
     AREAKP  =   10.0000     BONDRY  =    1.0000
     AREATL  =    0.0100

     SPHERE     INITS       METHOD
          1        60       FIXPVA
          2        60       FIXPVA
          3        60       FIXPVA
          4        60       FIXPVA
          5        60       FIXPVA
          6        60       FIXPVA
          7        60       FIXPVA
          8        60       FIXPVA
          9        60       FIXPVA
         10        60       FIXPVA
         11        60       FIXPVA
         12        60       FIXPVA
         13        60       FIXPVA
         14        60       FIXPVA
         15        60       FIXPVA
         16        60       FIXPVA
         17        60       FIXPVA
         18        60       FIXPVA
         19        60       FIXPVA
         20        60       FIXPVA
         21        60       FIXPVA
         22        60       FIXPVA
         23        60       FIXPVA
         24        60       FIXPVA
         25        60       FIXPVA
         26        60       FIXPVA
         27        60       FIXPVA
         28        60       FIXPVA
         29        60       FIXPVA
         30        60       FIXPVA
         31        60       FIXPVA
         32        60       FIXPVA
         33        60       FIXPVA
         34        60       FIXPVA
         35        60       FIXPVA
         36        60       FIXPVA
         37        60       FIXPVA
         38        60       FIXPVA
         39        60       FIXPVA
         40        60       FIXPVA
         41        60       FIXPVA
         42        60       FIXPVA
         43        60       FIXPVA
         44        60       FIXPVA
         45        60       FIXPVA
         46        60       FIXPVA
         47        60       FIXPVA
         48        60       FIXPVA
         49        60       FIXPVA
         50        60       FIXPVA
         51        60       FIXPVA
         52        60       FIXPVA
         53        60       FIXPVA
         54        60       FIXPVA
         55        60       FIXPVA
         56        60       FIXPVA
         57        60       FIXPVA
         58        60       FIXPVA
         59        60       FIXPVA
         60        60       FIXPVA
         61        60       FIXPVA
         62        60       FIXPVA
         63        60       FIXPVA
         64        60       FIXPVA
         65        60       FIXPVA
         66        60       FIXPVA
         67        60       FIXPVA
         68        60       FIXPVA
         69        60       FIXPVA
         70        60       FIXPVA
         71        60       FIXPVA
         72        60       FIXPVA
         73        60       FIXPVA
         74        60       FIXPVA
         75        60       FIXPVA
         76        60       FIXPVA
         77        60       FIXPVA
         78        60       FIXPVA
         79        60       FIXPVA
         80        60       FIXPVA
         81        60       FIXPVA
         82        60       FIXPVA
         83        60       FIXPVA
         84        60       FIXPVA
         85        60       FIXPVA
         86        60       FIXPVA
         87        60       FIXPVA
         88        60       FIXPVA
         89        60       FIXPVA
         90        60       FIXPVA
         91        60       FIXPVA
         92        60       FIXPVA
         93        60       FIXPVA
         94        60       FIXPVA
         95        60       FIXPVA
         96        60       FIXPVA
         97        60       FIXPVA
         98        60       FIXPVA
         99        60       FIXPVA
        100        60       FIXPVA
        101        60       FIXPVA
        102        60       FIXPVA
        103        60       FIXPVA
        104        60       FIXPVA
        105        60       FIXPVA
        106        60       FIXPVA
        107        60       FIXPVA
        108        60       FIXPVA
        109        60       FIXPVA
        110        60       FIXPVA
        111        60       FIXPVA
        112        60       FIXPVA
        113        60       FIXPVA
        114        60       FIXPVA
        115        60       FIXPVA
        116        60       FIXPVA
        117        60       FIXPVA
        118        60       FIXPVA
        119        60       FIXPVA
        120        60       FIXPVA
        121        60       FIXPVA
        122        60       FIXPVA
        123        60       FIXPVA
        124        60       FIXPVA
        125        60       FIXPVA
        126        60       FIXPVA
        127        60       FIXPVA
        128        60       FIXPVA
        129        60       FIXPVA
        130        60       FIXPVA
        131        60       FIXPVA
        132        60       FIXPVA
        133        60       FIXPVA
        134        60       FIXPVA
        135        60       FIXPVA
        136        60       FIXPVA
        137        60       FIXPVA
        138        60       FIXPVA
        139        60       FIXPVA
        140        60       FIXPVA
        141        60       FIXPVA
        142        60       FIXPVA
        143        60       FIXPVA
        144        60       FIXPVA
        145        60       FIXPVA
        146        60       FIXPVA
        147        60       FIXPVA
        148        60       FIXPVA
        149        60       FIXPVA
        150        60       FIXPVA
        151        60       FIXPVA
        152        60       FIXPVA
        153        60       FIXPVA
        154        60       FIXPVA
        155        60       FIXPVA
        156        60       FIXPVA
        157        60       FIXPVA
        158        60       FIXPVA
        159        60       FIXPVA
        160        60       FIXPVA
        161        60       FIXPVA
        162        60       FIXPVA
        163        60       FIXPVA
        164        60       FIXPVA
        165        60       FIXPVA
        166        60       FIXPVA
        167        60       FIXPVA
        168        60       FIXPVA
        169        60       FIXPVA
        170        60       FIXPVA
        171        60       FIXPVA
        172        60       FIXPVA
        173        60       FIXPVA
        174        60       FIXPVA
        175        60       FIXPVA
        176        60       FIXPVA
        177        60       FIXPVA
        178        60       FIXPVA
        179        60       FIXPVA
        180        60       FIXPVA
        181        60       FIXPVA
        182        60       FIXPVA
        183        60       FIXPVA
        184        60       FIXPVA
        185        60       FIXPVA
        186        60       FIXPVA
        187        60       FIXPVA
        188        60       FIXPVA
        189        60       FIXPVA
        190        60       FIXPVA
        191        60       FIXPVA
        192        60       FIXPVA
        193        60       FIXPVA
        194        60       FIXPVA
        195        60       FIXPVA
        196        60       FIXPVA
        197        60       FIXPVA
        198        60       FIXPVA
        199        60       FIXPVA
        200        60       FIXPVA
        201        60       FIXPVA
        202        60       FIXPVA
        203        60       FIXPVA
        204        60       FIXPVA
        205        60       FIXPVA
        206        60       FIXPVA
        207        60       FIXPVA
        208        60       FIXPVA
        209        60       FIXPVA
        210        60       FIXPVA
        211        60       FIXPVA
        212        60       FIXPVA
        213        60       FIXPVA
        214        60       FIXPVA
        215        60       FIXPVA
        216        60       FIXPVA
        217        60       FIXPVA
        218        60       FIXPVA
        219        60       FIXPVA
        220        60       FIXPVA
        221        60       FIXPVA
        222        60       FIXPVA
        223        60       FIXPVA
        224        60       FIXPVA
        225        60       FIXPVA
        226        60       FIXPVA
        227        60       FIXPVA
        228        60       FIXPVA
        229        60       FIXPVA
        230        60       FIXPVA
        231        60       FIXPVA
        232        60       FIXPVA
        233        60       FIXPVA
        234        60       FIXPVA
        235        60       FIXPVA
        236        60       FIXPVA
        237        60       FIXPVA
        238        60       FIXPVA
        239        60       FIXPVA
        240        60       FIXPVA
        241        60       FIXPVA
        242        60       FIXPVA
        243        60       FIXPVA
        244        60       FIXPVA
        245        60       FIXPVA
        246        60       FIXPVA
        247        60       FIXPVA
        248        60       FIXPVA
        249        60       FIXPVA
        250        60       FIXPVA
        251        60       FIXPVA
        252        60       FIXPVA
        253        60       FIXPVA
        254        60       FIXPVA
        255        60       FIXPVA
        256        60       FIXPVA
        257        60       FIXPVA
        258        60       FIXPVA
        259        60       FIXPVA
        260        60       FIXPVA
        261        60       FIXPVA
        262        60       FIXPVA
        263        60       FIXPVA
        264        60       FIXPVA
        265        60       FIXPVA
        266        60       FIXPVA
        267        60       FIXPVA
        268        60       FIXPVA
        269        60       FIXPVA
        270        60       FIXPVA
        271        60       FIXPVA
        272        60       FIXPVA
        273        60       FIXPVA
        274        60       FIXPVA
        275        60       FIXPVA
        276        60       FIXPVA
        277        60       FIXPVA
        278        60       FIXPVA
        279        60       FIXPVA
        280        60       FIXPVA
        281        60       FIXPVA
        282        60       FIXPVA
        283        60       FIXPVA
        284        60       FIXPVA
        285        60       FIXPVA
        286        60       FIXPVA
        287        60       FIXPVA
        288        60       FIXPVA
        289        60       FIXPVA
        290        60       FIXPVA
        291        60       FIXPVA
        292        60       FIXPVA
        293        60       FIXPVA
        294        60       FIXPVA
        295        60       FIXPVA
        296        60       FIXPVA
        297        60       FIXPVA
        298        60       FIXPVA
        299        60       FIXPVA
        300        60       FIXPVA
        301        60       FIXPVA
        302        60       FIXPVA
        303        60       FIXPVA
        304        60       FIXPVA
        305        60       FIXPVA
        306        60       FIXPVA
        307        60       FIXPVA
        308        60       FIXPVA
        309        60       FIXPVA
        310        60       FIXPVA
        311        60       FIXPVA
        312        60       FIXPVA
        313        60       FIXPVA
        314        60       FIXPVA
        315        60       FIXPVA
        316        60       FIXPVA
        317        60       FIXPVA
        318        60       FIXPVA
        319        60       FIXPVA
        320        60       FIXPVA
        321        60       FIXPVA
        322        60       FIXPVA
        323        60       FIXPVA
        324        60       FIXPVA
        325        60       FIXPVA
        326        60       FIXPVA
        327        60       FIXPVA
        328        60       FIXPVA
        329        60       FIXPVA
        330        60       FIXPVA
        331        60       FIXPVA
        332        60       FIXPVA
        333        60       FIXPVA
        334        60       FIXPVA
        335        60       FIXPVA
        336        60       FIXPVA
        337        60       FIXPVA
        338        60       FIXPVA
        339        60       FIXPVA
        340        60       FIXPVA
        341        60       FIXPVA
        342        60       FIXPVA
        343        60       FIXPVA
        344        60       FIXPVA
        345        60       FIXPVA
        346        60       FIXPVA

     ------------------------------
      FIXPVA TESSELLATION FOR PCM
         PEIFENG SU AND HUI LI
     UNIVERSITY OF NEBRASKA-LINCOLN
     ------------------------------


 PCM DIMENSIONS: MXSP=   346, MXTS=     13840, MEMORY=        142209

     INPUT FOR CAVITY DEFINITION 
     ---------------------------
   ATOM               COORDINATES                RADIUS       EPS
      1     -4.6480     -8.3520      6.9290      0.0100     78.3900
      2     -3.9460     -8.1750      6.2700      1.5900     78.3900
      3     -4.6050     -7.6310      5.1160      1.7700     78.3900
      4     -5.1710     -6.7200      5.4130      0.0100     78.3900
      5     -5.3380     -8.3740      4.7300      0.0100     78.3900
      6     -3.6380     -7.2640      3.9870      1.7700     78.3900
      7     -4.1880     -6.8840      3.0990      0.0100     78.3900
      8     -2.7350     -6.2070      4.4260      1.5900     78.3900
      9     -1.4450     -6.4460      3.8900      1.7700     78.3900
     10     -1.1590     -5.5270      3.3270      0.0100     78.3900
     11     -0.4590     -6.6750      4.9530      1.6800     78.3900
     12      1.4120     -6.8090      6.1050      1.7700     78.3900
     13      0.3860     -7.0850      6.9990      1.6800     78.3900
     14     -0.7020     -6.9920      6.2710      1.7700     78.3900
     15     -1.7210     -7.1450      6.6350      0.0100     78.3900
     16      3.5510     -6.4300      5.1620      1.6800     78.3900
     17      2.9180     -6.2400      3.9980      1.7700     78.3900
     18      3.5660     -6.0150      3.1450      0.0100     78.3900
     19      1.6070     -6.2770      3.7320      1.6800     78.3900
     20      0.9040     -6.5620      4.8400      1.7700     78.3900
     21      2.8130     -6.7230      6.2630      1.7700     78.3900
     22      3.4450     -6.9130      7.4390      1.6800     78.3900
     23      2.9440     -7.1100      8.2850      0.0100     78.3900
     24      4.4460     -6.8750      7.4890      0.0100     78.3900
     25     -1.5610     -7.6080      2.9280      1.7700     78.3900
     26     -0.6330     -8.2100      2.8750      0.0100     78.3900
     27     -1.8960     -7.1220      1.6440      1.5900     78.3900
     28     -1.9920     -7.8920      1.0710      0.0100     78.3900
     29     -2.7140     -8.4030      3.5390      1.7700     78.3900
     30     -2.3730     -8.9180      4.4680      0.0100     78.3900
     31     -3.4260     -9.2850      2.6320      1.5900     78.3900
     32     -2.9210    -10.7760      2.4960      2.1000     78.3900
     33     -2.7400    -11.3440      3.8480      1.5900     78.3900
     34     -3.8100    -11.5300      1.5800      1.5900     78.3900
     35     -1.5070    -10.6280      1.8290      1.5900     78.3900
     36     -1.3800    -10.2230      0.4460      1.7700     78.3900
     37     -1.8910     -9.2550      0.2590      0.0100     78.3900
     38     -1.8400    -10.9780     -0.2260      0.0100     78.3900
     39      0.0910    -10.0610      0.0480      1.7700     78.3900
     40      0.1740     -9.6850     -0.9930      0.0100     78.3900
     41      0.7350     -9.0810      0.9090      1.5900     78.3900
     42      2.0760     -9.4810      1.1480      1.7700     78.3900
     43      2.7070     -8.6380      0.7840      0.0100     78.3900
     44      2.3730     -9.7090      2.5890      1.6800     78.3900
     45      1.3500     -9.9620      3.4730      1.7700     78.3900
     46      0.3470     -9.9850      3.0460      0.0100     78.3900
     47      1.5820    -10.1370      4.7790      1.7700     78.3900
     48      0.7800    -10.3010      5.4960      0.0100     78.3900
     49      3.6910     -9.7070      3.0430      1.7700     78.3900
     50      4.6130     -9.5320      2.2310      1.5900     78.3900
     51      3.9440     -9.8930      4.3580      1.6800     78.3900
     52      2.9340    -10.0830      5.2230      1.7700     78.3900
     53      3.2130    -10.2260      6.5170      1.6800     78.3900
     54      4.1680    -10.1640      6.8150      0.0100     78.3900
     55      2.5070    -10.3720      7.2110      0.0100     78.3900
     56      2.3490    -10.7030      0.2930      1.7700     78.3900
     57      3.0560    -11.4050      0.7740      0.0100     78.3900
     58      2.8520    -10.3050     -0.9680      1.5900     78.3900
     59      2.9000    -11.1060     -1.5030      0.0100     78.3900
     60      0.9610    -11.3200      0.1650      1.7700     78.3900
     61      0.6670    -11.8250      1.1180      0.0100     78.3900
     62      0.7830    -12.1530     -1.0060      1.5900     78.3900
     63      0.9330    -13.7170     -0.8840      2.1000     78.3900
     64      0.2730    -14.1620      0.3610      1.5900     78.3900
     65      0.4760    -14.3490     -2.1430      1.5900     78.3900
     66      2.4770    -13.9580     -0.7170      1.5900     78.3900
     67      3.4290    -13.6510     -1.7570      1.7700     78.3900
     68      3.2260    -12.6590     -2.2230      0.0100     78.3900
     69      3.3780    -14.4180     -2.5610      0.0100     78.3900
     70      4.8660    -13.6340     -1.2120      1.7700     78.3900
     71      5.5880    -13.3710     -2.0180      0.0100     78.3900
     72      4.9800    -12.6190     -0.1760      1.5900     78.3900
     73      5.8620    -13.0720      0.8390      1.7700     78.3900
     74      6.6690    -12.3050      0.9060      0.0100     78.3900
     75      5.2030    -13.2020      2.1720      1.6800     78.3900
     76      3.8490    -13.4240      2.2540      1.7700     78.3900
     77      3.3240    -13.4910      1.3050      0.0100     78.3900
     78      3.2230    -13.5080      3.4330      1.7700     78.3900
     79      2.1490    -13.6540      3.5170      0.0100     78.3900
     80      5.9570    -13.1250      3.3400      1.7700     78.3900
     81      7.1790    -12.9470      3.2520      1.5900     78.3900
     82      5.3400    -13.2230      4.5410      1.6800     78.3900
     83      4.0130    -13.3960      4.6100      1.7700     78.3900
     84      3.4310    -13.4730      5.8030      1.6800     78.3900
     85      3.9880    -13.3990      6.6300      0.0100     78.3900
     86      2.4480    -13.6120      5.9090      0.0100     78.3900
     87      6.4630    -14.3730      0.3570      1.7700     78.3900
     88      6.6730    -15.0590      1.1930      0.0100     78.3900
     89      7.6440    -14.1240     -0.3880      1.5900     78.3900
     90      7.8620    -14.9380     -0.8640      0.0100     78.3900
     91      5.3540    -14.9250     -0.5300      1.7700     78.3900
     92      4.5070    -15.3020      0.0880      0.0100     78.3900
     93      5.8070    -15.8830     -1.5130      1.5900     78.3900
     94      5.6700    -17.4310     -1.2430      2.1000     78.3900
     95      4.2340    -17.7250     -1.0490      1.5900     78.3900
     96      6.3420    -18.1600     -2.3440      1.5900     78.3900
     97      6.4240    -17.6940      0.1040      1.5900     78.3900
     98      7.8530    -17.5590      0.2690      1.7700     78.3900
     99      8.2130    -16.5690     -0.0780      0.0100     78.3900
    100      8.3990    -18.3250     -0.3230      0.0100     78.3900
    101      8.2580    -17.7070      1.7440      1.7700     78.3900
    102      9.3600    -17.6260      1.8610      0.0100     78.3900
    103      7.6670    -16.6340      2.5230      1.5900     78.3900
    104      7.2810    -17.1050      3.7920      1.7700     78.3900
    105      7.8160    -16.4480      4.5150      0.0100     78.3900
    106      5.8050    -17.0030      4.0050      1.6800     78.3900
    107      4.9280    -16.9420      2.9450      1.7700     78.3900
    108      5.3900    -16.9590      1.9600      0.0100     78.3900
    109      5.3480    -16.9510      5.2990      1.7700     78.3900
    110      6.1060    -16.9950      6.2620      1.5900     78.3900
    111      3.9870    -16.8400      5.4310      1.6800     78.3900
    112      3.6490    -16.7550      6.3810      0.0100     78.3900
    113      3.0520    -16.7330      4.4230      1.7700     78.3900
    114      1.8630    -16.5820      4.6950      1.5900     78.3900
    115      3.6030    -16.8070      3.1020      1.7700     78.3900
    116      2.9310    -16.7290      2.2490      0.0100     78.3900
    117      7.7940    -18.5350      3.8960      1.7700     78.3900
    118      7.1150    -19.1670      4.4950      0.0100     78.3900
    119      9.1000    -18.5610      4.4530      1.5900     78.3900
    120      9.0220    -18.4830      5.4150      0.0100     78.3900
    121      7.7900    -18.9850      2.4380      1.7700     78.3900
    122      6.7490    -19.1790      2.0940      0.0100     78.3900
    123      8.6950    -20.0690      2.1310      1.5900     78.3900
    124      8.1870    -21.5580      2.1800      2.1000     78.3900
    125      7.1990    -21.7040      1.0880      1.5900     78.3900
    126      9.3570    -22.4630      2.1320      1.5900     78.3900
    127      7.4470    -21.7530      3.5500      1.5900     78.3900
    128      8.1520    -21.8950      4.8070      1.7700     78.3900
    129      8.8460    -21.0400      4.9710      0.0100     78.3900
    130      8.7650    -22.8220      4.8020      0.0100     78.3900
    131      7.1790    -21.9610      6.0050      1.7700     78.3900
    132      7.7340    -22.0650      6.9600      0.0100     78.3900
    133      6.4070    -20.7230      6.0830      1.5900     78.3900
    134      5.0660    -21.0010      6.4650      1.7700     78.3900
    135      4.8860    -20.3790      7.3750      0.0100     78.3900
    136      4.0840    -20.6340      5.4030      1.6800     78.3900
    137      4.4560    -20.5640      4.0820      1.7700     78.3900
    138      5.5020    -20.7680      3.8860      0.0100     78.3900
    139      2.7910    -20.3520      5.7830      1.7700     78.3900
    140      2.4220    -20.4000      6.9510      1.5900     78.3900
    141      1.9490    -19.9970      4.7590      1.6800     78.3900
    142      1.0120    -19.7580      5.0330      0.0100     78.3900
    143      2.2590    -19.8830      3.4210      1.7700     78.3900
    144      1.4090    -19.5040      2.6170      1.5900     78.3900
    145      3.6150    -20.2090      3.1010      1.7700     78.3900
    146      3.9400    -20.1140      2.0670      0.0100     78.3900
    147      5.0060    -22.4660      6.8440      1.7700     78.3900
    148      4.0280    -22.9360      6.6140      0.0100     78.3900
    149      5.2920    -22.5770      8.2250      1.5900     78.3900
    150      4.4830    -22.4450      8.7630      0.0100     78.3900
    151      6.1170    -23.0660      5.9720      1.7700     78.3900
    152      5.7840    -23.1270      4.9170      0.0100     78.3900
    153      6.6870    -24.3280      6.4060      1.5900     78.3900
    154      5.7370    -25.5760      6.5700      2.1000     78.3900
    155      4.6750    -25.5070      5.5370      1.5900     78.3900
    156      6.5770    -26.7980      6.5490      1.5900     78.3900
    157      5.1290    -25.4090      8.0070      1.5900     78.3900
    158      4.2810    -26.3640      8.6640      1.7700     78.3900
    159      4.5030    -27.4090      8.3370      0.0100     78.3900
    160      3.2180    -26.1400      8.4230      0.0100     78.3900
    161      4.4490    -26.2930     10.1930      1.7700     78.3900
    162      3.7120    -26.9590     10.6930      0.0100     78.3900
    163      5.7790    -26.7800     10.5500      1.5900     78.3900
    164      6.2860    -26.0230     11.6420      1.7700     78.3900
    165      6.5030    -26.7740     12.4370      0.0100     78.3900
    166      7.5400    -25.2900     11.3160      1.6800     78.3900
    167      7.8130    -24.9320     10.0150      1.7700     78.3900
    168      7.0560    -25.2010      9.2780      0.0100     78.3900
    169      8.9540    -24.3100      9.6880      1.7700     78.3900
    170      9.2070    -24.0670      8.6570      0.0100     78.3900
    171      8.4230    -24.9320     12.3330      1.7700     78.3900
    172      8.1560    -25.2360     13.5060      1.5900     78.3900
    173      9.5720    -24.2880     12.0230      1.6800     78.3900
    174      9.8640    -24.0020     10.7430      1.7700     78.3900
    175     11.0430    -23.4490     10.4670      1.6800     78.3900
    176     11.6310    -23.1730     11.2250      0.0100     78.3900
    177     11.3230    -23.2220      9.5330      0.0100     78.3900
    178      5.1830    -25.1060     12.1270      1.7700     78.3900
    179      5.5670    -24.1360     12.5100      0.0100     78.3900
    180      4.4290    -25.7590     13.1350      1.5900     78.3900
    181      3.6520    -25.2050     13.3140      0.0100     78.3900
    182      4.3700    -24.9010     10.8540      1.7700     78.3900
    183      4.9050    -24.1970     10.1770      0.0100     78.3900
    184      2.9930    -24.5300     11.0830      1.5900     78.3900
    185      2.6000    -23.0060     11.1560      2.1000     78.3900
    186      3.2910    -22.2970     10.0570      1.5900     78.3900
    187      1.1210    -22.9420     11.1940      1.5900     78.3900
    188      3.1490    -22.5050     12.5500      1.5900     78.3900
    189      3.4220    -21.0960     12.7680      1.7700     78.3900
    190      2.5070    -20.5790     13.1330      0.0100     78.3900
    191      3.7410    -20.5850     11.8290      0.0100     78.3900
    192      4.5620    -20.8660     13.7780      1.7700     78.3900
    193      4.2340    -21.0870     14.8140      0.0100     78.3900
    194      5.6670    -21.7800     13.4830      1.5900     78.3900
    195      6.8950    -21.0790     13.5720      1.7700     78.3900
    196      7.5410    -21.6850     14.2490      0.0100     78.3900
    197      7.5690    -20.9330     12.2480      1.6800     78.3900
    198      6.8410    -21.0120     11.0840      1.7700     78.3900
    199      5.7750    -21.2330     11.1960      0.0100     78.3900
    200      7.4250    -20.8690      9.8870      1.7700     78.3900
    201      6.8690    -20.9370      8.9550      0.0100     78.3900
    202      8.9340    -20.6640     12.1860      1.7700     78.3900
    203      9.5700    -20.5450     13.2440      1.5900     78.3900
    204      9.5510    -20.5470     10.9870      1.6800     78.3900
    205      8.8310    -20.6490      9.8540      1.7700     78.3900
    206      9.4470    -20.5530      8.6730      1.6800     78.3900
    207      8.9360    -20.5900      7.8190      0.0100     78.3900
    208     10.4410    -20.4330      8.6470      0.0100     78.3900
    209      6.6010    -19.7430     14.2330      1.7700     78.3900
    210      7.3050    -18.9560     13.9060      0.0100     78.3900
    211      6.6310    -19.8640     15.6460      1.5900     78.3900
    212      6.3250    -19.0190     16.0110      0.0100     78.3900
    213      5.1900    -19.4580     13.7310      1.7700     78.3900
    214      5.2200    -19.1600     12.6580      0.0100     78.3900
    215      4.4220    -18.5350     14.5400      1.5900     78.3900
    216      4.6080    -16.9810     14.3280      2.1000     78.3900
    217      4.7340    -16.7200     12.8740      1.5900     78.3900
    218      3.5190    -16.2770     15.0430      1.5900     78.3900
    219      5.9630    -16.6420     15.0560      1.5900     78.3900
    220      6.6890    -15.4200     14.7460      1.7700     78.3900
    221      6.5560    -14.6880     15.5720      0.0100     78.3900
    222      6.3220    -14.9300     13.8110      0.0100     78.3900
    223      8.1940    -15.6740     14.5570      1.7700     78.3900
    224      8.6910    -15.8730     15.5300      0.0100     78.3900
    225      8.3730    -16.8610     13.7430      1.5900     78.3900
    226      9.4630    -16.7020     12.8770      1.7700     78.3900
    227     10.1490    -17.5570     13.0820      0.0100     78.3900
    228      9.0230    -16.7570     11.4850      1.6800     78.3900
    229      8.9640    -16.9750      9.3060      1.7700     78.3900
    230      7.6470    -16.7930      9.7080      1.6800     78.3900
    231      7.7320    -16.6730     11.0100      1.7700     78.3900
    232      6.8860    -16.5190     11.6880      0.0100     78.3900
    233     10.8910    -17.3410      7.9780      1.6800     78.3900
    234     11.5900    -17.3130      9.1160      1.7700     78.3900
    235     12.6710    -17.4530      9.0070      0.0100     78.3900
    236     11.1580    -17.1100     10.3650      1.6800     78.3900
    237      9.8200    -16.9610     10.3910      1.7700     78.3900
    238      9.5500    -17.1710      8.0420      1.7700     78.3900
    239      8.8600    -17.1500      6.8990      1.6800     78.3900
    240      7.8600    -17.0140      6.9060      0.0100     78.3900
    241      9.3580    -16.8640      6.0830      0.0100     78.3900
    242     10.1420    -15.4000     13.2390      1.7700     78.3900
    243     10.5890    -14.9020     12.3590      0.0100     78.3900
    244     11.1370    -15.6350     14.2210      1.5900     78.3900
    245     11.3990    -14.7780     14.5850      0.0100     78.3900
    246      8.9800    -14.5860     13.7980      1.7700     78.3900
    247      8.3200    -14.2280     12.9730      0.0100     78.3900
    248      9.3790    -13.5280     14.6950      1.5900     78.3900
    249      9.5500    -12.0500     14.1810      2.1000     78.3900
    250      8.2670    -11.6150     13.5920      1.5900     78.3900
    251     10.0990    -11.2360     15.2900      1.5900     78.3900
    252     10.6050    -12.1270     13.0160      1.5900     78.3900
    253     12.0130    -12.3390     13.2540      1.7700     78.3900
    254     12.1810    -13.2400     13.8840      0.0100     78.3900
    255     12.4510    -11.4620     13.7790      0.0100     78.3900
    256     12.7900    -12.5290     11.9380      1.7700     78.3900
    257     13.8690    -12.7200     12.1370      0.0100     78.3900
    258     12.2710    -13.6860     11.2270      1.5900     78.3900
    259     12.2020    -13.4090      9.8420      1.7700     78.3900
    260     12.7500    -14.2290      9.3250      0.0100     78.3900
    261     10.8160    -13.3990      9.3810      1.6800     78.3900
    262      9.0090    -13.5300      8.1480      1.7700     78.3900
    263      8.5750    -13.3310      9.4500      1.6800     78.3900
    264      9.6790    -13.2500     10.1360      1.7700     78.3900
    265      9.7240    -13.1090     11.2130      0.0100     78.3900
    266      9.0600    -13.8960      5.8170      1.6800     78.3900
    267     10.3890    -13.9030      5.9160      1.7700     78.3900
    268     10.9200    -14.0560      4.9730      0.0100     78.3900
    269     11.1550    -13.7510      7.0050      1.6800     78.3900
    270     10.3900    -13.5740      8.0940      1.7700     78.3900
    271      8.3190    -13.7050      6.9360      1.7700     78.3900
    272      6.9800    -13.6820      6.8480      1.6800     78.3900
    273      6.3830    -13.5970      7.6500      0.0100     78.3900
    274      6.5950    -13.6540      5.9150      0.0100     78.3900
    275     12.9050    -12.0970      9.6060      1.7700     78.3900
    276     12.4740    -11.5210      8.7610      0.0100     78.3900
    277     14.2830    -12.3350      9.3810      1.5900     78.3900
    278     14.7460    -11.4910      9.4830      0.0100     78.3900
    279     12.6650    -11.3790     10.9270      1.7700     78.3900
    280     11.6080    -11.0250     10.9860      0.0100     78.3900
    281     13.6270    -10.3430     11.2180      1.5900     78.3900
    282     13.2640     -8.8420     10.9050      2.1000     78.3900
    283     11.9750     -8.5270     11.5660      1.5900     78.3900
    284     14.4240     -7.9970     11.2710      1.5900     78.3900
    285     13.0440     -8.8210      9.3470      1.5900     78.3900
    286     14.1550     -8.9150      8.4280      1.7700     78.3900
    287     14.7340     -9.8490      8.5980      0.0100     78.3900
    288     14.8530     -8.0540      8.5560      0.0100     78.3900
    289     13.6740     -8.9370      6.9700      1.7700     78.3900
    290     14.5340     -9.0350      6.2720      0.0100     78.3900
    291     12.8100    -10.0890      6.7440      1.5900     78.3900
    292     11.7500     -9.7190      5.8740      1.7700     78.3900
    293     11.7490    -10.4420      5.0210      0.0100     78.3900
    294     10.4510     -9.7930      6.5530      1.6800     78.3900
    295      9.2290     -9.8070      5.9400      1.7700     78.3900
    296      7.3040     -9.7200      3.0540      1.6800     78.3900
    297      7.9840     -9.6810      2.3250      0.0100     78.3900
    298      6.3280     -9.7570      2.8220      0.0100     78.3900
    299      9.0120     -9.7300      4.6160      1.6800     78.3900
    300      7.7170     -9.8050      4.3080      1.7700     78.3900
    301      6.7310     -9.9190      5.2530      1.6800     78.3900
    302      5.7820    -10.0070      4.9250      0.0100     78.3900
    303      6.9230    -10.0130      6.6250      1.7700     78.3900
    304      5.9670    -10.1290      7.4000      1.5900     78.3900
    305      8.3040     -9.9200      6.9610      1.7700     78.3900
    306      8.9390     -9.9470      8.2000      1.6800     78.3900
    307     10.2140     -9.8640      7.9070      1.7700     78.3900
    308     11.0330     -9.8520      8.6300      0.0100     78.3900
    309     12.0510     -8.3270      5.3660      1.7700     78.3900
    310     11.1330     -7.7450      5.1510      0.0100     78.3900
    311     12.8430     -8.4030      4.1980      1.5900     78.3900
    312     13.0900     -7.4980      3.9770      0.0100     78.3900
    313     12.8320     -7.7330      6.5310      1.7700     78.3900
    314     12.1440     -7.5070      7.3800      0.0100     78.3900
    315     13.6990     -6.6290      6.1810      1.5900     78.3900
    316     13.2240     -5.1530      6.4600      2.1000     78.3900
    317     12.5180     -5.1100      7.7540      1.5900     78.3900
    318     14.3790     -4.2410      6.2950      1.5900     78.3900
    319     12.1740     -4.8860      5.3190      1.5900     78.3900
    320     12.5810     -4.8980      3.9300      1.7700     78.3900
    321     13.1270     -5.8300      3.6670      0.0100     78.3900
    322     13.2620     -4.0380      3.7260      0.0100     78.3900
    323     11.3760     -4.7800      2.9820      1.7700     78.3900
    324     11.7080     -4.6960      1.9280      0.0100     78.3900
    325     10.5410     -5.9710      3.0700      1.5900     78.3900
    326      9.1710     -5.5980      2.9740      1.7700     78.3900
    327      8.7510     -6.1810      2.1200      0.0100     78.3900
    328      8.4250     -5.9180      4.2250      1.6800     78.3900
    329      9.0910     -6.1180      5.4130      1.7700     78.3900
    330     10.1720     -6.0080      5.3670      0.0100     78.3900
    331      7.0520     -6.0070      4.1680      1.7700     78.3900
    332      6.4200     -5.8180      3.1340      1.5900     78.3900
    333      6.4420     -6.3230      5.3550      1.6800     78.3900
[...]
   294   10   7.0   0.00    0.0    0.000000   -0.800024   -0.811075
   295   10   6.0   0.00    0.0    0.000000    0.713388    0.716479
   296   10   7.0  10.73   21.0   -0.073146   -0.969579   -1.045594
   297   10   1.0   0.00    0.0    0.000000    0.435953    0.433384
   298   10   1.0   0.00    0.0    0.000000    0.474537    0.517807
   299   10   7.0   5.93   11.6    0.096959   -0.770228   -0.769219
   300   10   6.0   0.23    0.4    0.006936    1.000257    0.995400
   301   10   7.0   0.00    0.0    0.000141   -0.932478   -1.017610
   302   10   1.0   0.00    0.0    0.000000    0.482773    0.538767
   303   10   6.0   0.00    0.0    0.000000    0.901783    0.901518
   304   10   8.0   8.87   19.4    0.164343   -0.770453   -0.757752
   305   10   6.0   0.00    0.0    0.000000   -0.053885   -0.045982
   306   10   7.0   9.65   18.9    0.186135   -0.598307   -0.605577
   307   10   6.0   2.25    4.0    0.008327    0.274818    0.266780
   308   10   1.0   0.00    0.0    0.000000    0.267930    0.287316
   309   10   6.0   0.77    1.4    0.010239    0.136105    0.099127
   310   10   1.0   0.00    0.0    0.000000    0.183551    0.219542
   311   10   8.0  16.72   36.5    0.094599   -0.825792   -0.844476
   312   10   1.0   0.00    0.0    0.000000    0.499977    0.528311
   313   10   6.0   0.39    0.7   -0.009811    0.142561    0.110712
   314   10   1.0   0.00    0.0    0.000000    0.247877    0.249783
   315   10   8.0   3.68    8.0    0.051811   -0.797546   -0.804103
   316   10  15.0  10.19   12.8    0.170152    1.602626    1.655042
   317   10   8.0  12.34   27.0    0.283382   -0.889795   -0.888338
   318   10   8.0  17.48   38.2    0.353872   -0.891300   -0.887952
   319   10   8.0   1.62    3.6    0.017097   -0.971005   -0.786133
   320   11   6.0  11.52   20.3   -0.108397    0.194845   -0.035552
   321   11   1.0   0.00    0.0    0.000000    0.158069    0.180797
   322   11   1.0   0.00    0.0    0.000000    0.246829    0.231080
   323   11   6.0   5.72   10.1   -0.045949    0.093270    0.148490
   324   11   1.0   0.00    0.0    0.000000    0.255023    0.228229
   325   11   8.0   4.82   10.5    0.050011   -0.730217   -0.738217
   326   11   6.0   5.62    9.9   -0.044175    0.414839    0.414319
   327   11   1.0   0.00    0.0    0.000000    0.261377    0.256744
   328   11   7.0   0.00    0.0    0.000000   -0.830686   -0.837269
   329   11   6.0   1.88    3.3   -0.008224    0.196366    0.181991
   330   11   1.0   0.00    0.0    0.000000    0.303947    0.327199
   331   11   6.0   3.64    6.4   -0.008375    1.119153    1.118051
   332   11   8.0  11.43   25.0    0.167269   -0.685645   -0.691976
   333   11   7.0   3.05    6.0    0.002100   -0.934459   -1.016691
   334   11   1.0   0.00    0.0    0.000000    0.484832    0.543797
   335   11   6.0   3.25    5.7   -0.002254    0.880572    0.886287
   336   11   8.0  10.54   23.0    0.153343   -0.727464   -0.713907
   337   11   6.0   7.63   13.5   -0.027065   -0.446870   -0.449642
   338   11   1.0   0.00    0.0    0.000000    0.271224    0.273079
   339   11   6.0   7.67   13.5   -0.074175    0.116095    0.116787
   340   11   1.0   0.00    0.0    0.000000    0.229918    0.228684
   341   11   8.0  20.01   43.7    0.045232   -0.836067   -0.837445
   342   11   1.0   0.00    0.0    0.000000    0.502693    0.503408
   343   11   6.0   5.39    9.5   -0.048565    0.166936    0.151051
   344   11   1.0   0.00    0.0    0.000000    0.217139    0.218949
   345   11   8.0  21.57   47.1   -0.023382   -0.850460   -0.853289
   346   11   1.0   0.00    0.0    0.000000    0.510590    0.510177

 Done with FMO properties.
 CPU     0: STEP CPU TIME=     0.00 TOTAL CPU TIME=      19877.0 (    331.3 MIN)
 TOTAL WALL CLOCK TIME=      42241.1 SECONDS, CPU UTILIZATION IS    47.06%
 CPU     0: STEP CPU TIME=     0.00 TOTAL CPU TIME=      19877.0 (    331.3 MIN)
 TOTAL WALL CLOCK TIME=      42241.1 SECONDS, CPU UTILIZATION IS    47.06%

 Total timing statistics in pairs (CPU,wall) for each rank, sec

    Rank   total     SCF    corr     DFT    CPHF     EFP    solv     ESP    geom
 -------------------------------------------------------------------------------
       1   19877.1   5375.5   7598.5      0.0    0.0   0.0  157.4  6415.5    0.0
       1   42241.2  11613.7  16446.2      0.0    0.0   0.0  464.3 12960.2    0.0
       2   18376.7   5234.8   6588.8      0.0    0.0   0.0  158.7  6078.3    0.0
       2   42241.3  11597.8  16446.2      0.0    0.0   0.0  464.3 12959.5    0.0
       3   20900.9   5319.1   8491.3      0.0    0.0   0.0  159.5  6603.8    0.0
       3   42241.2  11597.4  16446.2      0.0    0.0   0.0  464.7 12959.5    0.0
       4   17900.1   5313.8   5738.3      0.0    0.0   0.0  159.7  6369.5    0.0
       4   42241.2  11597.7  16446.2      0.0    0.0   0.0  463.8 12959.5    0.0
       5   19692.2   5267.4   7269.7      0.0    0.0   0.0  160.1  6656.5    0.0
       5   42241.2  11598.4  16446.2      0.0    0.0   0.0  464.4 12959.5    0.0
       6   18938.0   5345.4   6478.2      0.0    0.0   0.0  157.7  6621.4    0.0
       6   42241.2  11599.1  16446.2      0.0    0.0   0.0  463.3 12959.2    0.0
       7   19743.2   5353.0   7440.6      0.0    0.0   0.0  158.0  6467.8    0.0
       7   42241.3  11599.0  16446.2      0.0    0.0   0.0  463.7 12959.1    0.0
       8   18011.8   5267.1   5938.4      0.0    0.0   0.0  158.6  6319.4    0.0
       8   42241.2  11599.2  16446.2      0.0    0.0   0.0  462.7 12959.2    0.0
       9   20730.1   5351.6   8343.2      0.0    0.0   0.0  155.8  6569.9    0.0
       9   42241.2  11599.5  16446.2      0.0    0.0   0.0  463.0 12959.7    0.0
      10   21395.5   5327.1   8956.3      0.0    0.0   0.0  156.5  6622.9    0.0
      10   42241.2  11598.9  16446.2      0.0    0.0   0.0  463.0 12959.6    0.0
      11   19093.0   5279.6   6916.7      0.0    0.0   0.0  157.3  6418.0    0.0
      11   42241.2  11599.9  16446.2      0.0    0.0   0.0  462.4 12959.5    0.0
      12   20026.7   5202.3   7969.6      0.0    0.0   0.0  157.0  6378.3    0.0
      12   42241.2  11600.0  16446.2      0.0    0.0   0.0  461.8 12959.4    0.0
      13   20133.8   5280.1   8083.4      0.0    0.0   0.0  154.3  6290.5    0.0
      13   42241.2  11600.7  16446.1      0.0    0.0   0.0  462.0 12959.5    0.0
      14   20392.2   5301.5   8023.9      0.0    0.0   0.0  155.9  6602.9    0.0
      14   42241.2  11600.2  16446.1      0.0    0.0   0.0  461.7 12959.3    0.0
      15   18393.6   5249.7   6390.3      0.0    0.0   0.0  155.2  6277.1    0.0
      15   42241.2  11600.4  16446.1      0.0    0.0   0.0  461.6 12959.3    0.0
      16   17339.2   5188.3   5611.7      0.0    0.0   0.0  155.8  6075.7    0.0
      16   42241.2  11600.6  16446.1      0.0    0.0   0.0  460.7 12959.2    0.0
averaged   19434.0   5291.0   7239.9      0.0    0.0   0.0  157.3  6423.0    0.0
averaged   42241.3  11600.1  16446.2      0.0    0.0   0.0  463.0 12959.5    0.0

  FMO  timing statistics in pairs (CPU,wall) for each rank, sec

    Rank  FMOini FMOscf1  FMOdm1 FMOsyn1 FMOscf2  FMOes2 FMOsyn2 FMOscf3 FMOsyn3
 -------------------------------------------------------------------------------
       1    2.1    7156.0    0.4    0.0   12485.7     232.8    0.0    0.0    0.0
       1    5.5   15636.9    5.1    0.1   26126.0     467.4    0.0    0.0    0.0
       2    1.6    6959.8    0.1    0.0   11191.6     223.6    0.0    0.0    0.0
       2    5.5   15636.9    5.1    0.1   26125.8     467.6    0.0    0.0    0.0
       3    1.7    7276.0    0.1    0.0   13390.7     232.3    0.0    0.0    0.0
       3    5.5   15636.9    5.1    0.1   26124.7     468.6    0.0    0.0    0.0
       4    1.5    7295.1    0.0    0.0   10377.7     225.6    0.0    0.0    0.0
       4    5.5   15636.9    5.1    0.1   26125.5     467.8    0.0    0.0    0.0
       5    1.9    7464.3    0.2    0.0   11982.0     243.9    0.0    0.0    0.0
       5    5.5   15636.9    5.1    0.1   26125.5     467.9    0.0    0.0    0.0
       6    1.6    7458.9    0.1    0.0   11234.0     243.3    0.0    0.0    0.0
       6    5.5   15636.9    5.1    0.1   26125.3     468.1    0.0    0.0    0.0
       7    1.7    7267.7    0.1    0.0   12243.1     230.6    0.0    0.0    0.0
       7    5.5   15636.9    5.1    0.1   26124.3     469.0    0.0    0.0    0.0
       8    1.5    7117.3    0.0    0.0   10656.3     236.7    0.0    0.0    0.0
       8    5.5   15636.9    5.1    0.1   26125.5     467.9    0.0    0.0    0.0
       9    1.8    7362.8    0.2    0.0   13148.4     216.8    0.0    0.0    0.0
       9    5.5   15636.9    5.1    0.1   26124.9     468.5    0.0    0.0    0.0
      10    1.4    7369.2    0.1    0.0   13783.3     241.5    0.0    0.0    0.0
      10    5.5   15636.9    5.1    0.1   26125.4     467.9    0.0    0.0    0.0
      11    1.6    7403.9    0.1    0.0   11459.0     228.5    0.0    0.0    0.0
      11    5.5   15636.9    5.1    0.1   26124.4     469.0    0.0    0.0    0.0
      12    1.4    7359.3    0.1    0.0   12436.9     229.0    0.0    0.0    0.0
      12    5.5   15636.9    5.1    0.1   26124.9     468.5    0.0    0.0    0.0
      13    1.7    7367.7    0.2    0.0   12529.2     234.9    0.0    0.0    0.0
      13    5.5   15636.9    5.1    0.1   26125.2     468.2    0.0    0.0    0.0
      14    1.4    7447.9    0.1    0.0   12725.0     217.8    0.0    0.0    0.0
      14    5.5   15636.9    5.1    0.1   26125.3     468.0    0.0    0.0    0.0
      15    1.5    7301.6    0.1    0.0   10859.4     230.9    0.0    0.0    0.0
      15    5.5   15636.9    5.1    0.1   26125.0     468.4    0.0    0.0    0.0
      16    1.5    7174.5    0.1    0.0    9944.8     218.3    0.0    0.0    0.0
      16    5.5   15636.9    5.1    0.1   26126.2     467.2    0.0    0.0    0.0
averaged    1.6    7298.9    0.1    0.0   11902.9     230.4    0.0    0.0    0.0
averaged    5.5   15636.9    5.1    0.1   26125.2     468.1    0.0    0.0    0.0
             62765746  WORDS OF DYNAMIC MEMORY USED
 EXECUTION OF GAMESS TERMINATED NORMALLY Fri Dec  6 23:31:52 2019
 DDI: 263640 bytes (0.3 MB / 0 MWords) used by master data server.

 ----------------------------------------
 CPU timing information for all processes
 ========================================
 0: 19413.412 + 463.666 = 19877.78
 1: 17992.373 + 384.380 = 18376.754
 2: 20421.183 + 479.807 = 20900.991
 3: 17553.987 + 346.86 = 17900.74
 4: 19246.431 + 445.848 = 19692.279
 5: 18551.00 + 387.67 = 18938.67
 6: 19309.915 + 433.361 = 19743.276
 7: 17653.273 + 358.614 = 18011.888
 8: 20242.748 + 487.399 = 20730.148
 9: 20906.459 + 489.101 = 21395.561
 10: 18684.384 + 408.686 = 19093.71
 11: 19595.354 + 431.338 = 20026.693
 12: 19652.428 + 481.360 = 20133.788
 13: 19939.496 + 452.796 = 20392.292
 14: 18016.216 + 377.387 = 18393.603
 15: 17020.919 + 318.303 = 17339.222
 ----------------------------------------
 ddikick.x: exited gracefully.
unset echo
----- accounting info -----
Files used on the master node gollum065.lsa.umich.edu were:
-rw-r--r-- 1 hazwong frank    17547 Dec  6 11:47 /scratch/hazwong/822127/2LBL_3/usrc/2LBL_3_fmo_input.F05
-rw-r--r-- 1 hazwong frank      634 Dec  6 23:31 /scratch/hazwong/822127/2LBL_3/usrc/2LBL_3_fmo_input.F06.001
-rw-r--r-- 1 hazwong frank      634 Dec  6 23:31 /scratch/hazwong/822127/2LBL_3/usrc/2LBL_3_fmo_input.F06.002
-rw-r--r-- 1 hazwong frank      634 Dec  6 23:31 /scratch/hazwong/822127/2LBL_3/usrc/2LBL_3_fmo_input.F06.003
-rw-r--r-- 1 hazwong frank      634 Dec  6 23:31 /scratch/hazwong/822127/2LBL_3/usrc/2LBL_3_fmo_input.F06.004
-rw-r--r-- 1 hazwong frank      634 Dec  6 23:31 /scratch/hazwong/822127/2LBL_3/usrc/2LBL_3_fmo_input.F06.005
-rw-r--r-- 1 hazwong frank      634 Dec  6 23:31 /scratch/hazwong/822127/2LBL_3/usrc/2LBL_3_fmo_input.F06.006
-rw-r--r-- 1 hazwong frank      634 Dec  6 23:31 /scratch/hazwong/822127/2LBL_3/usrc/2LBL_3_fmo_input.F06.007
-rw-r--r-- 1 hazwong frank      634 Dec  6 23:31 /scratch/hazwong/822127/2LBL_3/usrc/2LBL_3_fmo_input.F06.008
-rw-r--r-- 1 hazwong frank      634 Dec  6 23:31 /scratch/hazwong/822127/2LBL_3/usrc/2LBL_3_fmo_input.F06.009
-rw-r--r-- 1 hazwong frank      634 Dec  6 23:31 /scratch/hazwong/822127/2LBL_3/usrc/2LBL_3_fmo_input.F06.010
-rw-r--r-- 1 hazwong frank      634 Dec  6 23:31 /scratch/hazwong/822127/2LBL_3/usrc/2LBL_3_fmo_input.F06.011
-rw-r--r-- 1 hazwong frank      634 Dec  6 23:31 /scratch/hazwong/822127/2LBL_3/usrc/2LBL_3_fmo_input.F06.012
-rw-r--r-- 1 hazwong frank      634 Dec  6 23:31 /scratch/hazwong/822127/2LBL_3/usrc/2LBL_3_fmo_input.F06.013
-rw-r--r-- 1 hazwong frank      634 Dec  6 23:31 /scratch/hazwong/822127/2LBL_3/usrc/2LBL_3_fmo_input.F06.014
-rw-r--r-- 1 hazwong frank      634 Dec  6 23:31 /scratch/hazwong/822127/2LBL_3/usrc/2LBL_3_fmo_input.F06.015
-rw-r--r-- 1 hazwong frank    10850 Dec  6 23:31 /scratch/hazwong/822127/2LBL_3/usrc/2LBL_3_fmo_input.F07
-rw-r--r-- 1 hazwong frank        0 Dec  6 11:47 /scratch/hazwong/822127/2LBL_3/usrc/2LBL_3_fmo_input.F07.001
-rw-r--r-- 1 hazwong frank        0 Dec  6 11:47 /scratch/hazwong/822127/2LBL_3/usrc/2LBL_3_fmo_input.F07.002
-rw-r--r-- 1 hazwong frank        0 Dec  6 11:47 /scratch/hazwong/822127/2LBL_3/usrc/2LBL_3_fmo_input.F07.003
-rw-r--r-- 1 hazwong frank        0 Dec  6 11:47 /scratch/hazwong/822127/2LBL_3/usrc/2LBL_3_fmo_input.F07.004
-rw-r--r-- 1 hazwong frank        0 Dec  6 11:47 /scratch/hazwong/822127/2LBL_3/usrc/2LBL_3_fmo_input.F07.005
-rw-r--r-- 1 hazwong frank        0 Dec  6 11:47 /scratch/hazwong/822127/2LBL_3/usrc/2LBL_3_fmo_input.F07.006
-rw-r--r-- 1 hazwong frank        0 Dec  6 11:47 /scratch/hazwong/822127/2LBL_3/usrc/2LBL_3_fmo_input.F07.007
-rw-r--r-- 1 hazwong frank        0 Dec  6 11:47 /scratch/hazwong/822127/2LBL_3/usrc/2LBL_3_fmo_input.F07.008
-rw-r--r-- 1 hazwong frank        0 Dec  6 11:47 /scratch/hazwong/822127/2LBL_3/usrc/2LBL_3_fmo_input.F07.009
-rw-r--r-- 1 hazwong frank        0 Dec  6 11:47 /scratch/hazwong/822127/2LBL_3/usrc/2LBL_3_fmo_input.F07.010
-rw-r--r-- 1 hazwong frank        0 Dec  6 11:47 /scratch/hazwong/822127/2LBL_3/usrc/2LBL_3_fmo_input.F07.011
-rw-r--r-- 1 hazwong frank        0 Dec  6 11:47 /scratch/hazwong/822127/2LBL_3/usrc/2LBL_3_fmo_input.F07.012
-rw-r--r-- 1 hazwong frank        0 Dec  6 11:47 /scratch/hazwong/822127/2LBL_3/usrc/2LBL_3_fmo_input.F07.013
-rw-r--r-- 1 hazwong frank        0 Dec  6 11:47 /scratch/hazwong/822127/2LBL_3/usrc/2LBL_3_fmo_input.F07.014
-rw-r--r-- 1 hazwong frank        0 Dec  6 11:47 /scratch/hazwong/822127/2LBL_3/usrc/2LBL_3_fmo_input.F07.015
-rw-r--r-- 1 hazwong frank    65440 Dec  6 23:31 /scratch/hazwong/822127/2LBL_3/usrc/2LBL_3_fmo_input.F10.000
-rw-r--r-- 1 hazwong frank        0 Dec  6 11:47 /scratch/hazwong/822127/2LBL_3/usrc/2LBL_3_fmo_input.F26.000
-rw-r--r-- 1 hazwong frank        0 Dec  6 11:47 /scratch/hazwong/822127/2LBL_3/usrc/2LBL_3_fmo_input.F26.001
-rw-r--r-- 1 hazwong frank        0 Dec  6 11:47 /scratch/hazwong/822127/2LBL_3/usrc/2LBL_3_fmo_input.F26.002
-rw-r--r-- 1 hazwong frank        0 Dec  6 11:47 /scratch/hazwong/822127/2LBL_3/usrc/2LBL_3_fmo_input.F26.003
-rw-r--r-- 1 hazwong frank        0 Dec  6 11:47 /scratch/hazwong/822127/2LBL_3/usrc/2LBL_3_fmo_input.F26.004
-rw-r--r-- 1 hazwong frank        0 Dec  6 11:47 /scratch/hazwong/822127/2LBL_3/usrc/2LBL_3_fmo_input.F26.005
-rw-r--r-- 1 hazwong frank        0 Dec  6 11:47 /scratch/hazwong/822127/2LBL_3/usrc/2LBL_3_fmo_input.F26.006
-rw-r--r-- 1 hazwong frank        0 Dec  6 11:47 /scratch/hazwong/822127/2LBL_3/usrc/2LBL_3_fmo_input.F26.007
-rw-r--r-- 1 hazwong frank        0 Dec  6 11:47 /scratch/hazwong/822127/2LBL_3/usrc/2LBL_3_fmo_input.F26.008
-rw-r--r-- 1 hazwong frank        0 Dec  6 11:47 /scratch/hazwong/822127/2LBL_3/usrc/2LBL_3_fmo_input.F26.009
-rw-r--r-- 1 hazwong frank        0 Dec  6 11:47 /scratch/hazwong/822127/2LBL_3/usrc/2LBL_3_fmo_input.F26.010
-rw-r--r-- 1 hazwong frank        0 Dec  6 11:47 /scratch/hazwong/822127/2LBL_3/usrc/2LBL_3_fmo_input.F26.011
-rw-r--r-- 1 hazwong frank        0 Dec  6 11:47 /scratch/hazwong/822127/2LBL_3/usrc/2LBL_3_fmo_input.F26.012
-rw-r--r-- 1 hazwong frank        0 Dec  6 11:47 /scratch/hazwong/822127/2LBL_3/usrc/2LBL_3_fmo_input.F26.013
-rw-r--r-- 1 hazwong frank        0 Dec  6 11:47 /scratch/hazwong/822127/2LBL_3/usrc/2LBL_3_fmo_input.F26.014
-rw-r--r-- 1 hazwong frank        0 Dec  6 11:47 /scratch/hazwong/822127/2LBL_3/usrc/2LBL_3_fmo_input.F26.015
-rw-r--r-- 1 hazwong frank        0 Dec  6 11:47 /scratch/hazwong/822127/2LBL_3/usrc/2LBL_3_fmo_input.F27.000
-rw-r--r-- 1 hazwong frank        0 Dec  6 11:47 /scratch/hazwong/822127/2LBL_3/usrc/2LBL_3_fmo_input.F27.001
-rw-r--r-- 1 hazwong frank        0 Dec  6 11:47 /scratch/hazwong/822127/2LBL_3/usrc/2LBL_3_fmo_input.F27.002
-rw-r--r-- 1 hazwong frank        0 Dec  6 11:47 /scratch/hazwong/822127/2LBL_3/usrc/2LBL_3_fmo_input.F27.003
-rw-r--r-- 1 hazwong frank        0 Dec  6 11:47 /scratch/hazwong/822127/2LBL_3/usrc/2LBL_3_fmo_input.F27.004
-rw-r--r-- 1 hazwong frank        0 Dec  6 11:47 /scratch/hazwong/822127/2LBL_3/usrc/2LBL_3_fmo_input.F27.005
-rw-r--r-- 1 hazwong frank        0 Dec  6 11:47 /scratch/hazwong/822127/2LBL_3/usrc/2LBL_3_fmo_input.F27.006
-rw-r--r-- 1 hazwong frank        0 Dec  6 11:47 /scratch/hazwong/822127/2LBL_3/usrc/2LBL_3_fmo_input.F27.007
-rw-r--r-- 1 hazwong frank        0 Dec  6 11:47 /scratch/hazwong/822127/2LBL_3/usrc/2LBL_3_fmo_input.F27.008
-rw-r--r-- 1 hazwong frank        0 Dec  6 11:47 /scratch/hazwong/822127/2LBL_3/usrc/2LBL_3_fmo_input.F27.009
-rw-r--r-- 1 hazwong frank        0 Dec  6 11:47 /scratch/hazwong/822127/2LBL_3/usrc/2LBL_3_fmo_input.F27.010
-rw-r--r-- 1 hazwong frank        0 Dec  6 11:47 /scratch/hazwong/822127/2LBL_3/usrc/2LBL_3_fmo_input.F27.011
-rw-r--r-- 1 hazwong frank        0 Dec  6 11:47 /scratch/hazwong/822127/2LBL_3/usrc/2LBL_3_fmo_input.F27.012
-rw-r--r-- 1 hazwong frank        0 Dec  6 11:47 /scratch/hazwong/822127/2LBL_3/usrc/2LBL_3_fmo_input.F27.013
-rw-r--r-- 1 hazwong frank        0 Dec  6 11:47 /scratch/hazwong/822127/2LBL_3/usrc/2LBL_3_fmo_input.F27.014
-rw-r--r-- 1 hazwong frank        0 Dec  6 11:47 /scratch/hazwong/822127/2LBL_3/usrc/2LBL_3_fmo_input.F27.015
-rw-r--r-- 1 hazwong frank 21610496 Dec  6 16:08 /scratch/hazwong/822127/2LBL_3/usrc/2LBL_3_fmo_input.F40.000
-rw-r--r-- 1 hazwong frank 21610496 Dec  6 16:08 /scratch/hazwong/822127/2LBL_3/usrc/2LBL_3_fmo_input.F40.001
-rw-r--r-- 1 hazwong frank 21610496 Dec  6 16:08 /scratch/hazwong/822127/2LBL_3/usrc/2LBL_3_fmo_input.F40.002
-rw-r--r-- 1 hazwong frank 21610496 Dec  6 16:08 /scratch/hazwong/822127/2LBL_3/usrc/2LBL_3_fmo_input.F40.003
-rw-r--r-- 1 hazwong frank 21610496 Dec  6 16:08 /scratch/hazwong/822127/2LBL_3/usrc/2LBL_3_fmo_input.F40.004
-rw-r--r-- 1 hazwong frank 21610496 Dec  6 16:08 /scratch/hazwong/822127/2LBL_3/usrc/2LBL_3_fmo_input.F40.005
-rw-r--r-- 1 hazwong frank 21610496 Dec  6 16:08 /scratch/hazwong/822127/2LBL_3/usrc/2LBL_3_fmo_input.F40.006
-rw-r--r-- 1 hazwong frank 21610496 Dec  6 16:08 /scratch/hazwong/822127/2LBL_3/usrc/2LBL_3_fmo_input.F40.007
-rw-r--r-- 1 hazwong frank 21610496 Dec  6 16:08 /scratch/hazwong/822127/2LBL_3/usrc/2LBL_3_fmo_input.F40.008
-rw-r--r-- 1 hazwong frank 21610496 Dec  6 16:08 /scratch/hazwong/822127/2LBL_3/usrc/2LBL_3_fmo_input.F40.009
-rw-r--r-- 1 hazwong frank 21610496 Dec  6 16:08 /scratch/hazwong/822127/2LBL_3/usrc/2LBL_3_fmo_input.F40.010
-rw-r--r-- 1 hazwong frank 21610496 Dec  6 16:08 /scratch/hazwong/822127/2LBL_3/usrc/2LBL_3_fmo_input.F40.011
-rw-r--r-- 1 hazwong frank 21610496 Dec  6 16:08 /scratch/hazwong/822127/2LBL_3/usrc/2LBL_3_fmo_input.F40.012
-rw-r--r-- 1 hazwong frank 21610496 Dec  6 16:08 /scratch/hazwong/822127/2LBL_3/usrc/2LBL_3_fmo_input.F40.013
-rw-r--r-- 1 hazwong frank 21610496 Dec  6 16:08 /scratch/hazwong/822127/2LBL_3/usrc/2LBL_3_fmo_input.F40.014
-rw-r--r-- 1 hazwong frank 21610496 Dec  6 16:08 /scratch/hazwong/822127/2LBL_3/usrc/2LBL_3_fmo_input.F40.015
ls: No match.
ls: No match.
ls: No match.
Fri Dec  6 23:31:55 EST 2019
0.186u 0.081s 11:44:04.86 0.0%	0+0k 1448+136io 24pf+0w
