‘2LBL_6_fmo_input.inp’ -> ‘/scratch/hazwong/822124/./2LBL_6_fmo_input.inp’
‘rungms’ -> ‘/scratch/hazwong/822124/./rungms’
‘gms-files.csh’ -> ‘/scratch/hazwong/822124/./gms-files.csh’
----- GAMESS execution script 'rungms' -----
This job is running on host gollum052.lsa.umich.edu
under operating system Linux at Fri Dec 6 11:47:51 EST 2019
Available scratch disk space (Kbyte units) at beginning of the job is
Filesystem     1K-blocks   Used Available Use% Mounted on
/dev/sda4      426933580 416968 426516612   1% /scratch
GAMESS temporary binary files will be written to /scratch/hazwong/822124/2LBL_6/usrc
GAMESS supplementary output files will be written to /scratch/hazwong/822124/2LBL_6/src
Copying input file 2LBL_6_fmo_input.inp to your run's scratch directory...
cp 2LBL_6_fmo_input.inp /scratch/hazwong/822124/2LBL_6/usrc/2LBL_6_fmo_input.F05
unset echo
This is a GDDI run, keeping various output files on local disks
setenv OUTPUT /scratch/hazwong/822124/2LBL_6/usrc/2LBL_6_fmo_input.F06
setenv PUNCH /scratch/hazwong/822124/2LBL_6/usrc/2LBL_6_fmo_input.F07
unset echo
 
Assuming a single but multicore node.
 
/export/apps/CentOS7/gamess/src/build//ddikick.x /export/apps/CentOS7/gamess/src/build//gamess.R3.x 2LBL_6_fmo_input -ddi 1 16 gollum052.lsa.umich.edu:cpus=16 -scr /scratch/hazwong/822124/2LBL_6/usrc

 Distributed Data Interface kickoff program.
 Initiating 16 compute processes on 1 nodes to run the following command:
 /export/apps/CentOS7/gamess/src/build//gamess.R3.x 2LBL_6_fmo_input 

          ******************************************************
          *         GAMESS VERSION = 30 SEP 2018 (R3)         *
          *             FROM IOWA STATE UNIVERSITY             *
          * M.W.SCHMIDT, K.K.BALDRIDGE, J.A.BOATZ, S.T.ELBERT, *
          *   M.S.GORDON, J.H.JENSEN, S.KOSEKI, N.MATSUNAGA,   *
          *          K.A.NGUYEN, S.J.SU, T.L.WINDUS,           *
          *       TOGETHER WITH M.DUPUIS, J.A.MONTGOMERY       *
          *         J.COMPUT.CHEM.  14, 1347-1363(1993)        *
          **************** 64 BIT LINUX VERSION ****************

  SINCE 1993, STUDENTS AND POSTDOCS WORKING AT IOWA STATE UNIVERSITY
  AND ALSO IN THEIR VARIOUS JOBS AFTER LEAVING ISU HAVE MADE IMPORTANT
  CONTRIBUTIONS TO THE CODE:
     IVANA ADAMOVIC, CHRISTINE AIKENS, YURI ALEXEEV, POOJA ARORA,
     ANDREY ASADCHEV, ROB BELL, PRADIPTA BANDYOPADHYAY, JONATHAN BENTZ,
     BRETT BODE, KURT BRORSEN, CALEB CARLIN, GALINA CHABAN, WEI CHEN,
     CHEOL HO CHOI, PAUL DAY, ALBERT DEFUSCO, NUWAN DESILVA, TIM DUDLEY,
     DMITRI FEDOROV, ALEX FINDLATER, GRAHAM FLETCHER, MARK FREITAG,
     KURT GLAESEMANN, ANASTASIA GUNINA,
     DAN KEMP, GRANT MERRILL, NORIYUKI MINEZAWA, JONATHAN MULLIN,
     TAKESHI NAGATA, SEAN NEDD, HEATHER NETZLOFF, BOSILJKA NJEGIC, RYAN OLSON,
     MIKE PAK, BUU PHAM,
     SPENCER PRUITT, LUKE ROSKOP, JIM SHOEMAKER, LYUDMILA SLIPCHENKO,
     TONY SMITH, SAROM SOK LEANG, JIE SONG, TETSUYA TAKETSUGU, SIMON WEBB,
     PENG XU, SOOHAENG YOO, FEDERICO ZAHARIEV

  ADDITIONAL CODE HAS BEEN PROVIDED BY COLLABORATORS IN OTHER GROUPS:
     IOWA STATE UNIVERSITY:
          JOE IVANIC, AARON WEST, LAIMUTIS BYTAUTAS, KLAUS RUEDENBERG
     UNIVERSITY OF TOKYO: KIMIHIKO HIRAO, TAKAHITO NAKAJIMA,
          TAKAO TSUNEDA, MUNEAKI KAMIYA, SUSUMU YANAGISAWA,
          KIYOSHI YAGI, MAHITO CHIBA, SEIKEN TOKURA, NAOAKI KAWAKAMI
     UNIVERSITY OF AARHUS: FRANK JENSEN
     UNIVERSITY OF IOWA: VISVALDAS KAIRYS, HUI LI
     NATIONAL INST. OF STANDARDS AND TECHNOLOGY: WALT STEVENS, DAVID GARMER
     UNIVERSITY OF PISA: BENEDETTA MENNUCCI, JACOPO TOMASI
     UNIVERSITY OF MEMPHIS: HENRY KURTZ, PRAKASHAN KORAMBATH
     UNIVERSITY OF ALBERTA: TOBY ZENG, MARIUSZ KLOBUKOWSKI
     UNIVERSITY OF NEW ENGLAND: MARK SPACKMAN
     MIE UNIVERSITY: HIROAKI UMEDA
     NAT. INST. OF ADVANCED INDUSTRIAL SCIENCE AND TECHNOLOGY: KAZUO KITAURA
     MICHIGAN STATE UNIVERSITY:
          KAROL KOWALSKI, MARTA WLOCH, JEFFREY GOUR, JESSE LUTZ,
          WEI LI, JUN SHEN, J. EMILIANO DEUSTUA, PIOTR PIECUCH
     UNIVERSITY OF MINNESOTA:
          YINAN SHU
     UNIVERSITY OF SILESIA: MONIKA MUSIAL, STANISLAW KUCHARSKI
     FACULTES UNIVERSITAIRES NOTRE-DAME DE LA PAIX:
          OLIVIER QUINET, BENOIT CHAMPAGNE
     UNIVERSITY OF CALIFORNIA - SANTA BARBARA: BERNARD KIRTMAN
     INSTITUTE FOR MOLECULAR SCIENCE:
          KAZUYA ISHIMURA, MICHIO KATOUDA, AND SHIGERU NAGASE
     UNIVERSITY OF NOTRE DAME: ANNA POMOGAEVA, DAN CHIPMAN
     KYUSHU UNIVERSITY:
          HARUYUKI NAKANO,
          FENG LONG GU, JACEK KORCHOWIEC, MARCIN MAKOWSKI, AND YURIKO AOKI,
          HIROTOSHI MORI AND EISAKU MIYOSHI
     PENNSYLVANIA STATE UNIVERSITY:
          TZVETELIN IORDANOV, CHET SWALINA, JONATHAN SKONE,
          SHARON HAMMES-SCHIFFER
     WASEDA UNIVERSITY:
          MASATO KOBAYASHI, TOMOKO AKAMA, TSUGUKI TOUMA,
          TAKESHI YOSHIKAWA, YASUHIRO IKABATA, JUNJI SEINO,
          YUYA NAKAJIMA, HIROMI NAKAI
     NANJING UNIVERSITY: SHUHUA LI
     UNIVERSITY OF NEBRASKA:
          PEIFENG SU, DEJUN SI, NANDUN THELLAMUREGE, YALI WANG, HUI LI
     UNIVERSITY OF ZURICH: ROBERTO PEVERATI, KIM BALDRIDGE
     N. COPERNICUS UNIVERSITY AND JACKSON STATE UNIVERSITY:
          MARIA BARYSZ
     UNIVERSITY OF COPENHAGEN: Jimmy Kromann, CASPER STEINMANN
     TOKYO INSTITUTE OF TECHNOLOGY: HIROYA NAKATA
     NAGOYA UNIVERSITY: YOSHIO NISHIMOTO, STEPHAN IRLE
     MOSCOW STATE UNIVERSITY: VLADIMIR MIRONOV


 PARALLEL VERSION RUNNING ON       16 PROCESSORS IN        1 NODES.

 EXECUTION OF GAMESS BEGUN Fri Dec  6 11:47:51 2019

            ECHO OF THE FIRST FEW INPUT CARDS -
 INPUT CARD>!*** FMO 5.3 (Gamess) INPUT generated by Facio 22.1.1.32 ***                    
 INPUT CARD> $CONTRL RUNTYP=ENERGY NPRINT=-5 ISPHER=1 MAXIT=200 $END                        
 INPUT CARD> $SYSTEM MWORDS=63 MEMDDI=63 $END                                               
 INPUT CARD> $GDDI NGROUP=1 $END                                                            
 INPUT CARD> $SCF DIRSCF=.TRUE. NPUNCH=0 $END                                               
 INPUT CARD>!*** NumCPU : 2  MemPerNode : 512MB                                             
 INPUT CARD> $PCM SOLVNT=WATER IEF=-10 ICOMP=2 ICAV=1 IDISP=1 IFMO=-1 $END                  
 INPUT CARD> $PCMCAV RADII=SUAHF $END                                                       
 INPUT CARD> $TESCAV NTSALL=60 $END                                                         
 INPUT CARD> $FMOPRP                                                                        
 INPUT CARD>    NAODIR=200                                                                  
 INPUT CARD>    NGRFMO(1)=1, 1, 0, 0, 0,   0, 0, 0, 0, 0                                    
 INPUT CARD>    IPIEDA=1                                                                    
 INPUT CARD>    NPRINT=9                                                                    
 INPUT CARD> $END                                                                           
 INPUT CARD> $FMO                                                                           
 INPUT CARD>      SCFTYP(1)=RHF                                                             
 INPUT CARD>      MODGRD=10                                                                 
 INPUT CARD>      MODMUL=0                                                                  
 INPUT CARD>      MAXCAO=5                                                                  
 INPUT CARD>      MAXBND=13                                                                 
 INPUT CARD>      NLAYER=1                                                                  
 INPUT CARD>      MPLEVL(1)=2                                                               
 INPUT CARD>      NFRAG=11                                                                  
 INPUT CARD>      ICHARG(1)=-1, -1, -1, -1, -1, -1, -1, -1, -1, -1, 0                       
 INPUT CARD>      FRGNAM(1)=F1, F2, F3, F4, F5, F6, F7, F8, F9, F10, F11                    
 INPUT CARD>      indat(1)=0                                                                
 INPUT CARD>               1   -35   0                                                      
 INPUT CARD>               36   -66   0                                                     
 INPUT CARD>               67   -97   0                                                     
 INPUT CARD>               98   -127   0                                                    
 INPUT CARD>               128   -157   0                                                   
 INPUT CARD>               158   -188   0                                                   
 INPUT CARD>               189   -219   0                                                   
 INPUT CARD>               220   -252   0                                                   
 INPUT CARD>               253   -285   0                                                   
 INPUT CARD>               286   -319   0                                                   
 INPUT CARD>               320   -346   0                                                   
 INPUT CARD> $END                                                                           
 INPUT CARD>                                                                                
 INPUT CARD> $FMOBND                                                                        
 INPUT CARD>   -36   35       6-31G*    MINI                                                
 INPUT CARD>   -67   66       6-31G*    MINI                                                
 INPUT CARD>   -98   97       6-31G*    MINI                                                
 INPUT CARD>   -128   127       6-31G*    MINI                                              
 INPUT CARD>   -158   157       6-31G*    MINI                                              
 INPUT CARD>   -189   188       6-31G*    MINI                                              
 INPUT CARD>   -220   219       6-31G*    MINI                                              
 INPUT CARD>   -253   252       6-31G*    MINI                                              
 INPUT CARD>   -286   285       6-31G*    MINI                                              


 -------------------------------------------------------------
 GROUP DDI, PROGRAMMED BY: RYAN M. OLSON AND DMITRI G. FEDOROV
        FEDOROV ET AL., J. COMPUT. CHEM., 25 (2004) 872.
 -------------------------------------------------------------

 -------------------------------------------------------
 GDDI: INITIALIZATION COMPLETED FOR GROUP     1 OF     1
 WITH    16 PROCESSES BALTYP=DLB   global rank=        0
 -------------------------------------------------------

   63000000 WORDS OF MEMORY AVAILABLE


     RUN TITLE
     ---------
  FMO calculation                                                                

 THE POINT GROUP OF THE MOLECULE IS C1      
 THE ORDER OF THE PRINCIPAL AXIS IS     0

 ATOM   ATOMIC CHARGE
 H.1-1       1.0
 O.1-1       8.0
 C.1-1       6.0
 N.1-1       7.0
 P.1-1      15.0

     ATOMIC BASIS SET LIBRARY
     ----------------
 THE CONTRACTED PRIMITIVE FUNCTIONS HAVE BEEN UNNORMALIZED
 THE CONTRACTED BASIS FUNCTIONS ARE NOW NORMALIZED TO UNITY

  SHELL TYPE  PRIMITIVE        EXPONENT          CONTRACTION COEFFICIENT(S)

 H.1-1     

      1   S       1            18.7311370    0.033494604338
      1   S       2             2.8253944    0.234726953484
      1   S       3             0.6401217    0.813757326146

      2   S       4             0.1612778    1.000000000000

 O.1-1     

      3   S       5          5484.6716600    0.001831074430
      3   S       6           825.2349460    0.013950172200
      3   S       7           188.0469580    0.068445078098
      3   S       8            52.9645000    0.232714335992
      3   S       9            16.8975704    0.470192897984
      3   S      10             5.7996353    0.358520852987

      4   L      11            15.5396162   -0.110777549525    0.070874268231
      4   L      12             3.5999336   -0.148026262701    0.339752839147
      4   L      13             1.0137618    1.130767015354    0.727158577316

      5   L      14             0.2700058    1.000000000000    1.000000000000

      6   D      15             0.8000000    1.000000000000

 C.1-1     

      7   S      16          3047.5248800    0.001834737132
      7   S      17           457.3695180    0.014037322813
      7   S      18           103.9486850    0.068842622264
      7   S      19            29.2101553    0.232184443216
      7   S      20             9.2866630    0.467941348435
      7   S      21             3.1639270    0.362311985337

      8   L      22             7.8682723   -0.119332419775    0.068999066591
      8   L      23             1.8812885   -0.160854151696    0.316423960957
      8   L      24             0.5442493    1.143456437840    0.744308290898

      9   L      25             0.1687145    1.000000000000    1.000000000000

     10   D      26             0.8000000    1.000000000000

 N.1-1     

     11   S      27          4173.5114600    0.001834772160
     11   S      28           627.4579110    0.013994627002
     11   S      29           142.9020930    0.068586551812
     11   S      30            40.2343293    0.232240873040
     11   S      31            12.8202129    0.469069948082
     11   S      32             4.3904370    0.360455199063

     12   L      33            11.6263619   -0.114961181702    0.067579743878
     12   L      34             2.7162798   -0.169117478561    0.323907295893
     12   L      35             0.7722184    1.145851947027    0.740895139755

     13   L      36             0.2120315    1.000000000000    1.000000000000

     14   D      37             0.8000000    1.000000000000

 P.1-1     

     15   S      38         19413.3000000    0.001851598923
     15   S      39          2909.4200000    0.014206191735
     15   S      40           661.3640000    0.069999459277
     15   S      41           185.7590000    0.240078860331
     15   S      42            59.1943000    0.484761717984
     15   S      43            20.0310000    0.335199804993

     16   L      44           339.4780000   -0.002782170105    0.004564616191
     16   L      45            81.0101000   -0.036049901354    0.033693571881
     16   L      46            25.8780000   -0.116631004382    0.139754883368
     16   L      47             9.4522100    0.096832803638    0.339361716786
     16   L      48             3.6656600    0.614418023082    0.450920623685
     16   L      49             1.4674600    0.403798015170    0.238585800889

     17   L      50             2.1562300   -0.252924113863   -0.017765312733
     17   L      51             0.7489970    0.032851844678    0.274058196433
     17   L      52             0.2831450    1.081254761783    0.785421562957

     18   L      53             0.0998317    1.000000000000    1.000000000000

     19   D      54             0.5500000    1.000000000000

 TOTAL NUMBER OF BASIS SET SHELLS             =   19
 NUMBER OF CARTESIAN GAUSSIAN BASIS FUNCTIONS =   66

     $CONTRL OPTIONS
     ---------------
 SCFTYP=RHF          RUNTYP=ENERGY       EXETYP=RUN     
 MPLEVL=       0     CITYP =NONE         CCTYP =NONE         VBTYP =NONE    
 DFTTYP=NONE         TDDFT =NONE    
 MULT  =       1     ICHARG=       0     NZVAR =       0     COORD =UNIQUE  
 PP    =NONE         RELWFN=NONE         LOCAL =NONE         NUMGRD=       F
 ISPHER=       1     NOSYM =       0     MAXIT =     200     UNITS =ANGS    
 PLTORB=       F     MOLPLT=       F     AIMPAC=       F     FRIEND=        
 NPRINT=      -5     IREST =       0     GEOM  =INPUT   
 NORMF =       0     NORMP =       0     ITOL  =      24     ICUT  =      12
 INTTYP=BEST         GRDTYP=BEST         QMTTOL= 1.0E-06

     $SYSTEM OPTIONS
     ---------------
  REPLICATED MEMORY=    63000000 WORDS (ON EVERY NODE).
 DISTRIBUTED MEMDDI=          63 MILLION WORDS IN AGGREGATE,
 MEMDDI DISTRIBUTED OVER  16 PROCESSORS IS     3937500 WORDS/PROCESSOR.
 TOTAL MEMORY REQUESTED ON EACH PROCESSOR=    66937500 WORDS.
 TIMLIM=      525600.00 MINUTES, OR     365.0 DAYS.
 PARALL= T  BALTYP=  DLB     KDIAG=    0  COREFL= F
 MXSEQ2=     300 MXSEQ3=     150  mem10=         0

 ** LOOKING UP INTERNALLY STORED DATA FOR SOLVENT=WATER    **
 OPTICAL AND PHYSICAL CONSTANTS:
 EPS= 78.390; EPSINF=  1.776; RSOLV=  1.385 A; VMOL=  18.070 ML/MOL;
 TCE= .25700E-03 1/K; STEN= 71.810 DYN/CM;  DSTEN=  0.6500; CMF=  1.2770


     -----------------------------------
     INPUT FOR PCM SOLVATION CALCULATION 
     -----------------------------------
     IEF   =     -10
     ICOMP =       2     IFIELD=       0     ICAV  =       1
     IDISP =       1     IREP  =       0     IDP   =       0

     SOLVNT=WATER        EPS   = 78.3900     EPSINF=  1.7760
     VMOL  = 18.0700     TCE   =  0.00025700 STEN  = 71.8100
     DSTEN =  0.6500     CMF   =  1.2770     RSOLV =  1.3850

     NESFP =       0
     OMEGA = 40.0000     RET   =100.0000     FRO   =  0.7000

     TABS  =298.0000     IPRINT=       0

     --------------------------------
     INPUT FOR ITERATIVE C-PCM METHOD 
     --------------------------------
     IPCMIT  =         1     MXDIIS  =        50
     MXITR1  =       200     MXITR2  =       200
     THRES   = 0.100E-09     IMUL    =         3
     RCUT(1) =   20.0000     RCUT(2) =   50.0000

     IDIRCT  =         1
     IMGABI  =         0     RABI    =    4.0000
     IMGASC  =         0     RASC    =   20.0000
     THRSLS  = 0.500E-03     DENSLS  =    0.0100
     IEFPOL  =         1     REFPOL  =    0.0000

     INPUT FOR ISOTROPIC DIELECTRICS
     -------------------------------
     EPS=    78.39

          ----------------
          PROPERTIES INPUT
          ----------------

     MOMENTS            FIELD           POTENTIAL          DENSITY
 IEMOM =       1   IEFLD =       0   IEPOT =       0   IEDEN =       0
 WHERE =COMASS     WHERE =NUCLEI     WHERE =NUCLEI     WHERE =NUCLEI  
 OUTPUT=BOTH       OUTPUT=BOTH       OUTPUT=NONE       OUTPUT=BOTH    
 IEMINT=       0   IEFINT=       0                     IEDINT=       0
                                                       MORB  =       0
          EXTRAPOLATION IN EFFECT
          SOSCF IN EFFECT
 ORBITAL PRINTING OPTION: NPREO=     1 32767     2     1

     -------------------------------
     INTEGRAL TRANSFORMATION OPTIONS
     -------------------------------
     NWORD  =            0
     CUTOFF = 1.0E-10     MPTRAN =       0
     DIRTRF =       T     AOINTS =DUP     

          ----------------------
          INTEGRAL INPUT OPTIONS
          ----------------------
 NOPK  =       1 NORDER=       0 SCHWRZ=       T

 ..... DONE SETTING UP THE RUN .....
 CPU     0: STEP CPU TIME=     0.03 TOTAL CPU TIME=          0.0 (      0.0 MIN)
 TOTAL WALL CLOCK TIME=          0.1 SECONDS, CPU UTILIZATION IS    50.00%
 CPU     0: STEP CPU TIME=     0.00 TOTAL CPU TIME=          0.0 (      0.0 MIN)
 TOTAL WALL CLOCK TIME=          0.1 SECONDS, CPU UTILIZATION IS    50.00%

                    ----------------------
                    AO INTEGRAL TECHNOLOGY
                    ----------------------
     S,P,L SHELL ROTATED AXIS INTEGRALS, REPROGRAMMED BY
        KAZUYA ISHIMURA (IMS) AND JOSE SIERRA (SYNSTAR).
     S,P,D,L SHELL ROTATED AXIS INTEGRALS PROGRAMMED BY
        KAZUYA ISHIMURA (INSTITUTE FOR MOLECULAR SCIENCE).
     S,P,D,F,G SHELL TO TOTAL QUARTET ANGULAR MOMENTUM SUM 5,
        ERIC PROGRAM BY GRAHAM FLETCHER (ELORET AND NASA ADVANCED
        SUPERCOMPUTING DIVISION, AMES RESEARCH CENTER).
     S,P,D,F,G,L SHELL GENERAL RYS QUADRATURE PROGRAMMED BY
        MICHEL DUPUIS (PACIFIC NORTHWEST NATIONAL LABORATORY).
 Setting modorb=1 flag...
 Setting modorb=1 flag...

          -----------------------
          MP2 CONTROL INFORMATION
          -----------------------
          NACORE =        8  NBCORE =        8
          LMOMP2 =        F  AOINTS = DUP     
          METHOD =        2  NWORD  =               0
          MP2PRP =        F  OSPT   = NONE    
          CUTOFF = 1.00E-12  CPHFBS = BASISAO 
          CODE   = IMS     

          NUMBER OF CORE -A-  ORBITALS =     8
          NUMBER OF CORE -B-  ORBITALS =     8
          NUMBER OF OCC. -A-  ORBITALS =    18
          NUMBER OF OCC. -B-  ORBITALS =    18
          NUMBER OF MOLECULAR ORBITALS =    66
          NUMBER OF   BASIS  FUNCTIONS =    66

 CPU     0: STEP CPU TIME=     0.03 TOTAL CPU TIME=          0.1 (      0.0 MIN)
 TOTAL WALL CLOCK TIME=          0.1 SECONDS, CPU UTILIZATION IS    66.67%
 CPU     0: STEP CPU TIME=     0.00 TOTAL CPU TIME=          0.1 (      0.0 MIN)
 TOTAL WALL CLOCK TIME=          0.1 SECONDS, CPU UTILIZATION IS    66.67%

     INPUT FOR CAVITY DEFINITION 
     ---------------------------
   ATOM               COORDINATES                RADIUS       EPS
      1     -3.9260     -4.7080      4.5800      0.0100     78.3900
      2     -3.1380     -4.8380      4.0170      1.5900     78.3900
      3     -3.5870     -4.8460      2.6530      1.7700     78.3900
      4     -4.1740     -3.9180      2.4660      0.0100     78.3900
      5     -4.2670     -5.7110      2.5020      0.0100     78.3900
      6     -2.4450     -4.9220      1.6240      1.7700     78.3900
      7     -2.8300     -4.7380      0.5990      0.0100     78.3900
      8     -1.4400     -3.9020      1.9010      1.5900     78.3900
      9     -0.1440     -4.4480      1.7210      1.7700     78.3900
     10      0.3740     -3.7920      0.9830      0.0100     78.3900
     11      0.6130     -4.4420      2.9830      1.6800     78.3900
     12      2.2430     -4.4410      4.4660      1.7700     78.3900
     13      1.0610     -4.3330      5.1890      1.6800     78.3900
     14      0.1250     -4.3410      4.2680      1.7700     78.3900
     15     -0.9450     -4.2520      4.4640      0.0100     78.3900
     16      4.5370     -4.6240      3.8840      1.6800     78.3900
     17      4.1210     -4.6900      2.6140      1.7700     78.3900
     18      4.9170     -4.7810      1.8680      0.0100     78.3900
     19      2.8790     -4.6260      2.1190      1.6800     78.3900
     20      1.9790     -4.5100      3.1080      1.7700     78.3900
     21      3.6000     -4.4960      4.8600      1.7700     78.3900
     22      4.0040     -4.4230      6.1430      1.6800     78.3900
     23      3.3470     -4.3790      6.9040      0.0100     78.3900
     24      4.9770     -4.5070      6.3620      0.0100     78.3900
     25     -0.2930     -5.8410      1.1300      1.7700     78.3900
     26      0.4840     -6.5430      1.5010      0.0100     78.3900
     27     -0.2400     -5.7890     -0.2800      1.5900     78.3900
     28     -0.3330     -6.7020     -0.5920      0.0100     78.3900
     29     -1.6790     -6.2530      1.6130      1.7700     78.3900
     30     -1.6200     -6.5850      2.6720      0.0100     78.3900
     31     -2.3610     -7.1960      0.7560      1.5900     78.3900
     32     -2.3600     -8.7380      1.0560      2.1000     78.3900
     33     -3.4310     -9.3640      0.2510      1.5900     78.3900
     34     -2.4080     -8.9430      2.5190      1.5900     78.3900
     35     -0.9760     -9.2430      0.5110      1.5900     78.3900
     36     -0.7150     -9.4400     -0.8970      1.7700     78.3900
     37     -1.2130     -8.6630     -1.5200      0.0100     78.3900
     38     -1.1370    -10.4180     -1.2100      0.0100     78.3900
     39      0.7930     -9.4120     -1.2600      1.7700     78.3900
     40      0.9170     -9.1800     -2.3400      0.0100     78.3900
     41      1.4820     -8.3580     -0.5270      1.5900     78.3900
     42      2.7480     -8.8290     -0.0730      1.7700     78.3900
     43      3.5000     -8.1030     -0.4620      0.0100     78.3900
     44      2.8540     -8.8710      1.4170      1.6800     78.3900
     45      1.7140     -8.8840      2.1840      1.7700     78.3900
     46      0.7830     -8.8130      1.6440      0.0100     78.3900
     47      1.7560     -8.9180      3.5180      1.7700     78.3900
     48      0.8540     -8.9190      4.1290      0.0100     78.3900
     49      4.0970     -8.9330      2.0440      1.7700     78.3900
     50      5.1270     -8.9510      1.3520      1.5900     78.3900
     51      4.1630     -8.9570      3.3960      1.6800     78.3900
     52      3.0380     -8.9440      4.1300      1.7700     78.3900
     53      3.1320     -8.9490      5.4540      1.6800     78.3900
     54      4.0550     -8.9510      5.8500      0.0100     78.3900
     55      2.3290     -8.9650      6.0530      0.0100     78.3900
     56      3.0030    -10.1840     -0.7120      1.7700     78.3900
     57      3.5390    -10.8750     -0.0270      0.0100     78.3900
     58      3.7410    -10.0410     -1.9110      1.5900     78.3900
     59      3.7300    -10.9120     -2.3300      0.0100     78.3900
     60      1.5900    -10.7000     -0.9870      1.7700     78.3900
     61      1.1550    -11.1190     -0.0480      0.0100     78.3900
     62      1.4970    -11.6030     -2.1290      1.5900     78.3900
     63      1.2620    -13.1450     -1.9010      2.1000     78.3900
     64      0.9900    -13.7610     -3.2160      1.5900     78.3900
     65      0.2430    -13.3250     -0.8470      1.5900     78.3900
     66      2.6510    -13.6710     -1.3740      1.5900     78.3900
     67      3.8000    -13.8120     -2.2440      1.7700     78.3900
     68      3.8440    -12.9880     -2.9920      0.0100     78.3900
     69      3.7280    -14.7690     -2.8090      0.0100     78.3900
     70      5.1460    -13.7970     -1.4810      1.7700     78.3900
     71      5.9860    -13.6020     -2.1840      0.0100     78.3900
     72      5.1600    -12.7180     -0.5000      1.5900     78.3900
     73      5.7610    -13.1660      0.7120      1.7700     78.3900
     74      6.5900    -12.4460      0.9090      0.0100     78.3900
     75      4.8320    -13.1500      1.8790      1.6800     78.3900
     76      3.4760    -13.1090      1.6760      1.7700     78.3900
     77      3.1550    -13.0380      0.6450      0.0100     78.3900
     78      2.6110    -13.1010      2.6940      1.7700     78.3900
     79      1.5340    -13.0530      2.5390      0.0100     78.3900
     80      5.3360    -13.2020      3.1780      1.7700     78.3900
     81      6.5670    -13.2560      3.3320      1.5900     78.3900
     82      4.4710    -13.1970      4.2270      1.6800     78.3900
     83      3.1460    -13.1460      4.0090      1.7700     78.3900
     84      2.3100    -13.1440      5.0410      1.6800     78.3900
     85      2.6800    -13.1510      5.9700      0.0100     78.3900
     86      1.3150    -13.1250      4.9250      0.0100     78.3900
     87      6.3550    -14.5400      0.4570      1.7700     78.3900
     88      6.2880    -15.2000      1.3470      0.0100     78.3900
     89      7.7090    -14.4230      0.0540      1.5900     78.3900
     90      7.9780    -15.2910     -0.2750      0.0100     78.3900
     91      5.4830    -15.0670     -0.6780      1.7700     78.3900
     92      4.5120    -15.4350     -0.2720      0.0100     78.3900
     93      6.1570    -16.0230     -1.5260      1.5900     78.3900
     94      5.7740    -17.5410     -1.5120      2.1000     78.3900
     95      6.5660    -18.2400     -2.5440      1.5900     78.3900
     96      4.3070    -17.6520     -1.6070      1.5900     78.3900
     97      6.2220    -18.0510     -0.0980      1.5900     78.3900
     98      7.6110    -18.2730      0.2300      1.7700     78.3900
     99      8.2630    -17.4580     -0.1640      0.0100     78.3900
    100      7.9520    -19.2320     -0.2220      0.0100     78.3900
    101      7.8430    -18.3720      1.7520      1.7700     78.3900
    102      8.9280    -18.3340      1.9860      0.0100     78.3900
    103      7.2220    -17.2640      2.4540      1.5900     78.3900
    104      6.6030    -17.7330      3.6430      1.7700     78.3900
    105      7.0420    -17.1270      4.4680      0.0100     78.3900
    106      5.1190    -17.5360      3.6140      1.6800     78.3900
    107      4.4560    -17.2700      2.4370      1.7700     78.3900
    108      5.0840    -17.1750      1.5590      0.0100     78.3900
    109      4.4340    -17.5660      4.8050      1.7700     78.3900
    110      4.9810    -17.7950      5.8760      1.5900     78.3900
    111      3.0840    -17.3290      4.7090      1.6800     78.3900
    112      2.5750    -17.3030      5.5770      0.0100     78.3900
    113      2.3520    -17.1210      3.5580      1.7700     78.3900
    114      1.1310    -16.9990      3.6130      1.5900     78.3900
    115      3.1320    -17.0810      2.3640      1.7700     78.3900
    116      2.6290    -16.9130      1.4140      0.0100     78.3900
    117      7.0200    -19.1890      3.8290      1.7700     78.3900
    118      6.2220    -19.7970      4.3070      0.0100     78.3900
    119      8.2040    -19.2780      4.6020      1.5900     78.3900
    120      8.4360    -20.2130      4.6310      0.0100     78.3900
    121      7.2690    -19.6380      2.3930      1.7700     78.3900
    122      6.3050    -19.8440      1.8750      0.0100     78.3900
    123      8.2240    -20.7070      2.2350      1.5900     78.3900
    124      7.7960    -22.2060      2.3400      2.1000     78.3900
    125      8.9650    -23.0440      1.9640      1.5900     78.3900
    126      6.5510    -22.4010      1.5650      1.5900     78.3900
    127      7.5110    -22.4210      3.8780      1.5900     78.3900
    128      6.2390    -22.9970      4.2610      1.7700     78.3900
    129      6.1580    -24.0480      3.9000      0.0100     78.3900
    130      5.3860    -22.4230      3.8270      0.0100     78.3900
    131      6.0880    -22.9870      5.7870      1.7700     78.3900
    132      7.0370    -23.2600      6.2930      0.0100     78.3900
    133      5.7210    -21.6530      6.2280      1.5900     78.3900
    134      4.7420    -21.7390      7.2480      1.7700     78.3900
    135      5.1610    -21.1840      8.1210      0.0100     78.3900
    136      3.4450    -21.1340      6.8330      1.6800     78.3900
    137      3.2010    -20.7350      5.5390      1.7700     78.3900
    138      4.0320    -20.8630      4.8430      0.0100     78.3900
    139      2.5260    -20.8820      7.8220      1.7700     78.3900
    140      2.7580    -21.0990      8.9980      1.5900     78.3900
    141      1.3360    -20.3510      7.4010      1.6800     78.3900
    142      0.6540    -20.2130      8.1330      0.0100     78.3900
    143      1.0260    -19.9120      6.1360      1.7700     78.3900
    144     -0.0550    -19.3690      5.9150      1.5900     78.3900
    145      2.0530    -20.1490      5.1650      1.7700     78.3900
    146      1.8920    -19.8100      4.1450      0.0100     78.3900
    147      4.5980    -23.2060      7.6150      1.7700     78.3900
    148      3.5610    -23.4710      7.9070      0.0100     78.3900
    149      5.4860    -23.5470      8.6570      1.5900     78.3900
    150      5.4080    -24.5020      8.7450      0.0100     78.3900
    151      4.9840    -23.9040      6.3200      1.7700     78.3900
    152      4.1500    -23.8560      5.5850      0.0100     78.3900
    153      5.4950    -25.2440      6.4780      1.5900     78.3900
    154      4.5190    -26.4480      6.7420      2.1000     78.3900
    155      5.0030    -27.5960      5.9450      1.5900     78.3900
    156      3.1190    -26.0200      6.5390      1.5900     78.3900
    157      4.7490    -26.7630      8.2630      1.5900     78.3900
    158      3.6990    -26.7920      9.2580      1.7700     78.3900
    159      3.1200    -27.7380      9.1470      0.0100     78.3900
    160      2.9850    -25.9440      9.1260      0.0100     78.3900
    161      4.2180    -26.7480     10.7240      1.7700     78.3900
    162      3.5480    -27.3330     11.3850      0.0100     78.3900
    163      5.5510    -27.3310     10.8340      1.5900     78.3900
    164      6.3610    -26.5380     11.6890      1.7700     78.3900
    165      6.7320    -27.2370     12.4750      0.0100     78.3900
    166      7.5280    -25.9210     10.9840      1.6800     78.3900
    167      7.4640    -25.6900      9.6340      1.7700     78.3900
    168      6.5520    -25.9950      9.1470      0.0100     78.3900
    169      8.4880    -25.1680      8.9530      1.7700     78.3900
    170      8.4440    -25.0040      7.8780      0.0100     78.3900
    171      8.6750    -25.5570     11.6860      1.7700     78.3900
    172      8.7200    -25.7740     12.9070      1.5900     78.3900
    173      9.7260    -25.0070     11.0200      1.6800     78.3900
    174      9.6620    -24.8370      9.6840      1.7700     78.3900
    175     10.7130    -24.3480      9.0280      1.6800     78.3900
    176     11.5290    -24.0790      9.5410      0.0100     78.3900
    177     10.6980    -24.2060      8.0400      0.0100     78.3900
    178      5.4680    -25.5100     12.3490      1.7700     78.3900
    179      6.0040    -24.5500     12.5070      0.0100     78.3900
    180      4.9700    -25.9920     13.5820      1.5900     78.3900
    181      4.3390    -25.3330     13.9100      0.0100     78.3900
    182      4.3390    -25.3380     11.3330      1.7700     78.3900
    183      4.6600    -24.6610     10.5230      0.0100     78.3900
    184      3.0650    -24.9230     11.8720      1.5900     78.3900
    185      2.7960    -23.4580     12.3900      2.1000     78.3900
    186      1.7760    -23.5130     13.4580      1.5900     78.3900
    187      2.4810    -22.6030     11.2400      1.5900     78.3900
    188      4.1360    -22.9910     13.0780      1.5900     78.3900
    189      4.9290    -21.9160     12.5420      1.7700     78.3900
    190      4.3210    -20.9830     12.4760      0.0100     78.3900
    191      5.2860    -22.1590     11.5140      0.0100     78.3900
    192      6.1260    -21.6350     13.4660      1.7700     78.3900
    193      5.8900    -21.8850     14.5220      0.0100     78.3900
    194      7.2660    -22.4410     13.0630      1.5900     78.3900
    195      8.4470    -21.6420     13.0920      1.7700     78.3900
    196      9.1570    -22.1870     13.7550      0.0100     78.3900
    197      9.0770    -21.4710     11.7540      1.6800     78.3900
    198      8.4270    -21.9040     10.6190      1.7700     78.3900
    199      7.4580    -22.3890     10.7630      0.0100     78.3900
    200      8.9780    -21.7640      9.4090      1.7700     78.3900
    201      8.4930    -22.1360      8.5090      0.0100     78.3900
    202     10.3400    -20.8850     11.6490      1.7700     78.3900
    203     10.9290    -20.5270     12.6810      1.5900     78.3900
    204     10.9100    -20.7300     10.4320      1.6800     78.3900
    205     10.2690    -21.1640      9.3310      1.7700     78.3900
    206     10.8710    -21.0540      8.1510      1.6800     78.3900
    207     11.7870    -20.6530      8.1090      0.0100     78.3900
    208     10.4730    -21.4220      7.3110      0.0100     78.3900
    209      8.0920    -20.3120     13.7350      1.7700     78.3900
    210      8.6590    -19.4680     13.2910      0.0100     78.3900
    211      8.3210    -20.3510     15.1300      1.5900     78.3900
    212      8.0070    -19.5060     15.4780      0.0100     78.3900
    213      6.6090    -20.1740     13.4180      1.7700     78.3900
    214      6.4750    -19.8350     12.3620      0.0100     78.3900
    215      5.8660    -19.3710     14.3690      1.5900     78.3900
    216      5.6420    -17.8380     14.1180      2.1000     78.3900
    217      4.9320    -17.2600     15.2810      1.5900     78.3900
    218      5.0120    -17.6770     12.7910      1.5900     78.3900
    219      7.0850    -17.2120     14.0720      1.5900     78.3900
    220      7.7670    -16.8640     15.3010      1.7700     78.3900
    221      7.7150    -17.6950     16.0450      0.0100     78.3900
    222      7.2930    -15.9650     15.7580      0.0100     78.3900
    223      9.2560    -16.5490     15.0780      1.7700     78.3900
    224      9.8280    -16.6270     16.0280      0.0100     78.3900
    225      9.8380    -17.4960     14.1320      1.5900     78.3900
    226     10.6860    -16.8210     13.2290      1.7700     78.3900
    227     11.6760    -17.3310     13.2720      0.0100     78.3900
    228     10.1780    -16.8730     11.8420      1.6800     78.3900
    229      9.9970    -16.7510      9.6480      1.7700     78.3900
    230      8.7650    -17.1840     10.1170      1.6800     78.3900
    231      8.9250    -17.2400     11.4160      1.7700     78.3900
    232      8.1620    -17.5650     12.1210      0.0100     78.3900
    233     11.7650    -16.0660      8.2290      1.6800     78.3900
    234     12.4910    -15.9030      9.3390      1.7700     78.3900
    235     13.5140    -15.5410      9.1740      0.0100     78.3900
    236     12.1560    -16.1520     10.6110      1.6800     78.3900
    237     10.8780    -16.5600     10.6990      1.7700     78.3900
    238     10.4800    -16.4940      8.3480      1.7700     78.3900
    239      9.7320    -16.6560      7.2410      1.6800     78.3900
    240      8.8110    -17.0390      7.2680      0.0100     78.3900
    241     10.1370    -16.4830      6.3440      0.0100     78.3900
    242     10.8280    -15.4060     13.7350      1.7700     78.3900
    243     10.8830    -14.7260     12.8900      0.0100     78.3900
    244     11.9660    -15.2600     14.5640      1.5900     78.3900
    245     11.9120    -14.3820     14.9660      0.0100     78.3900
    246      9.5240    -15.1630     14.4810      1.7700     78.3900
    247      8.6930    -14.9560     13.7690      0.0100     78.3900
    248      9.6170    -14.1770     15.5280      1.5900     78.3900
    249      9.2260    -12.6660     15.3540      2.1000     78.3900
    250      9.8370    -11.9170     16.4800      1.5900     78.3900
    251      7.7600    -12.5790     15.1970      1.5900     78.3900
    252      9.9030    -12.2000     14.0030      1.5900     78.3900
    253     11.2990    -11.8100     13.9520      1.7700     78.3900
    254     11.9250    -12.4920     14.5700      0.0100     78.3900
    255     11.4190    -10.7820     14.3640      0.0100     78.3900
    256     11.9020    -11.8230     12.5220      1.7700     78.3900
    257     13.0120    -11.8680     12.5740      0.0100     78.3900
    258     11.4760    -12.9890     11.7910      1.5900     78.3900
    259     11.1420    -12.6720     10.4700      1.7700     78.3900
    260     11.7220    -13.3720      9.8280      0.0100     78.3900
    261      9.7120    -12.8690     10.2180      1.6800     78.3900
    262      7.7720    -13.1090      9.2180      1.7700     78.3900
    263      7.5210    -13.2370     10.5760      1.6800     78.3900
    264      8.7010    -13.0910     11.1250      1.7700     78.3900
    265      8.9020    -13.1550     12.1940      0.0100     78.3900
    266      7.5050    -13.0060      6.8770      1.6800     78.3900
    267      8.8190    -12.8110      6.8090      1.7700     78.3900
    268      9.2170    -12.6940      5.7980      0.0100     78.3900
    269      9.7140    -12.7200      7.7970      1.6800     78.3900
    270      9.1190    -12.8900      8.9850      1.7700     78.3900
    271      6.9330    -13.1610      8.0910      1.7700     78.3900
    272      5.6090    -13.3730      8.1380      1.6800     78.3900
    273      5.0980    -13.4690      8.9960      0.0100     78.3900
    274      5.1370    -13.4060      7.2610      0.0100     78.3900
    275     11.5960    -11.2590     10.2230      1.7700     78.3900
    276     10.9360    -10.7160      9.5130      0.0100     78.3900
    277     12.9170    -11.2710      9.7190      1.5900     78.3900
    278     13.1150    -10.3610      9.4450      0.0100     78.3900
    279     11.5280    -10.6420     11.6250      1.7700     78.3900
    280     10.4790    -10.3710     11.8860      0.0100     78.3900
    281     12.4500     -9.5610     11.8740      1.5900     78.3900
    282     12.2190     -8.1460     11.2440      2.1000     78.3900
    283     13.2660     -7.2430     11.7680      1.5900     78.3900
    284     10.8140     -7.7570     11.4820      1.5900     78.3900
    285     12.4400     -8.3510      9.7000      1.5900     78.3900
    286     13.7430     -8.2760      9.0770      1.7700     78.3900
    287     14.4280     -9.0560      9.4880      0.0100     78.3900
    288     14.2140     -7.2870      9.2790      0.0100     78.3900
    289     13.6560     -8.4390      7.5440      1.7700     78.3900
    290     14.6440     -8.7270      7.1220      0.0100     78.3900
    291     12.7060     -9.4790      7.1780      1.5900     78.3900
    292     11.9620     -9.0730      6.0370      1.7700     78.3900
    293     12.1290     -9.8570      5.2650      0.0100     78.3900
    294     10.5180     -8.9780      6.3330      1.6800     78.3900
    295      9.4620     -9.0330      5.4470      1.7700     78.3900
    296      8.2050     -9.2930      2.2160      1.6800     78.3900
    297      7.3120     -9.2780      1.7700      0.0100     78.3900
    298      9.0320     -9.4000      1.6600      0.0100     78.3900
    299      9.5430     -9.1890      4.1080      1.6800     78.3900
    300      8.3360     -9.1790      3.5260      1.7700     78.3900
    301      7.1630     -9.0460      4.2230      1.6800     78.3900
    302      6.2920     -9.0870      3.7190      0.0100     78.3900
    303      7.0520     -8.9100      5.6000      1.7700     78.3900
    304      5.9640     -8.7980      6.1770      1.5900     78.3900
    305      8.3260     -8.8980      6.2260      1.7700     78.3900
    306      8.6550     -8.7730      7.5700      1.6800     78.3900
    307      9.9620     -8.8300      7.5840      1.7700     78.3900
    308     10.5810     -8.7890      8.4780      0.0100     78.3900
    309     12.5440     -7.7600      5.5440      1.7700     78.3900
    310     11.7670     -7.0760      5.1390      0.0100     78.3900
    311     13.5210     -7.9980      4.5480      1.5900     78.3900
    312     13.8550     -7.1260      4.3100      0.0100     78.3900
    313     13.1780     -7.1790      6.8070      1.7700     78.3900
    314     12.4030     -6.7100      7.4560      0.0100     78.3900
    315     14.3090     -6.3140      6.5750      1.5900     78.3900
    316     14.1870     -4.7640      6.4110      2.1000     78.3900
    317     15.5480     -4.2000      6.2670      1.5900     78.3900
    318     13.3530     -4.2390      7.5160      1.5900     78.3900
    319     13.4060     -4.5770      5.0570      1.5900     78.3900
    320     14.0230     -4.7310      3.7610      1.7700     78.3900
    321     14.5100     -5.7250      3.6610      0.0100     78.3900
    322     14.8110     -3.9560      3.6150      0.0100     78.3900
    323     13.0050     -4.5920      2.6090      1.7700     78.3900
    324     13.4880     -4.7970      1.6290      0.0100     78.3900
    325     11.9180     -5.5500      2.7670      1.5900     78.3900
    326     10.6820     -4.9520      2.3940      1.7700     78.3900
    327     10.2900     -5.5880      1.5640      0.0100     78.3900
    328      9.7160     -4.9320      3.5380      1.6800     78.3900
    329     10.1740     -4.8290      4.8280      1.7700     78.3900
    330     11.2500     -4.8090      4.9330      0.0100     78.3900
    331      8.3620     -4.9870      3.2850      1.7700     78.3900
    332      7.9080     -5.0480      2.1480      1.5900     78.3900
    333      7.5530     -4.9680      4.3990      1.6800     78.3900
    334      6.5570     -4.9610      4.2250      0.0100     78.3900
    335      7.9510     -4.8420      5.7150      1.7700     78.3900
    336      7.1150     -4.7860      6.6160      1.5900     78.3900
    337      9.3690     -4.7850      5.8960      1.7700     78.3900
    338      9.7660     -4.7080      6.9060      0.0100     78.3900
    339     10.9870     -3.5580      1.8490      1.7700     78.3900
    340     10.2100     -2.8250      2.1570      0.0100     78.3900
    341     11.0900     -3.5780      0.4320      1.5900     78.3900
    342     11.4560     -2.7270      0.1380      0.0100     78.3900
    343     12.3170     -3.2270      2.5270      1.7700     78.3900
    344     12.1450     -2.8830      3.5670      0.0100     78.3900
    345     13.1380     -2.2900      1.8050      1.5900     78.3900
    346     12.7130     -1.4110      1.7890      0.0100     78.3900

     ----------------------------
     INPUT FOR TESSERA DEFINITION
     ----------------------------
     NTSALL  =        60     MTHALL  =         4
     MTHAUT  =         0     AUTFRE  =    2.0000
     NTSFRZ  =        60     KEEPSM  =         0
     AREAKP  =   10.0000     BONDRY  =    1.0000
     AREATL  =    0.0100

     SPHERE     INITS       METHOD
          1        60       FIXPVA
          2        60       FIXPVA
          3        60       FIXPVA
          4        60       FIXPVA
          5        60       FIXPVA
          6        60       FIXPVA
          7        60       FIXPVA
          8        60       FIXPVA
          9        60       FIXPVA
         10        60       FIXPVA
         11        60       FIXPVA
         12        60       FIXPVA
         13        60       FIXPVA
         14        60       FIXPVA
         15        60       FIXPVA
         16        60       FIXPVA
         17        60       FIXPVA
         18        60       FIXPVA
         19        60       FIXPVA
         20        60       FIXPVA
         21        60       FIXPVA
         22        60       FIXPVA
         23        60       FIXPVA
         24        60       FIXPVA
         25        60       FIXPVA
         26        60       FIXPVA
         27        60       FIXPVA
         28        60       FIXPVA
         29        60       FIXPVA
         30        60       FIXPVA
         31        60       FIXPVA
         32        60       FIXPVA
         33        60       FIXPVA
         34        60       FIXPVA
         35        60       FIXPVA
         36        60       FIXPVA
         37        60       FIXPVA
         38        60       FIXPVA
         39        60       FIXPVA
         40        60       FIXPVA
         41        60       FIXPVA
         42        60       FIXPVA
         43        60       FIXPVA
         44        60       FIXPVA
         45        60       FIXPVA
         46        60       FIXPVA
         47        60       FIXPVA
         48        60       FIXPVA
         49        60       FIXPVA
         50        60       FIXPVA
         51        60       FIXPVA
         52        60       FIXPVA
         53        60       FIXPVA
         54        60       FIXPVA
         55        60       FIXPVA
         56        60       FIXPVA
         57        60       FIXPVA
         58        60       FIXPVA
         59        60       FIXPVA
         60        60       FIXPVA
         61        60       FIXPVA
         62        60       FIXPVA
         63        60       FIXPVA
         64        60       FIXPVA
         65        60       FIXPVA
         66        60       FIXPVA
         67        60       FIXPVA
         68        60       FIXPVA
         69        60       FIXPVA
         70        60       FIXPVA
         71        60       FIXPVA
         72        60       FIXPVA
         73        60       FIXPVA
         74        60       FIXPVA
         75        60       FIXPVA
         76        60       FIXPVA
         77        60       FIXPVA
         78        60       FIXPVA
         79        60       FIXPVA
         80        60       FIXPVA
         81        60       FIXPVA
         82        60       FIXPVA
         83        60       FIXPVA
         84        60       FIXPVA
         85        60       FIXPVA
         86        60       FIXPVA
         87        60       FIXPVA
         88        60       FIXPVA
         89        60       FIXPVA
         90        60       FIXPVA
         91        60       FIXPVA
         92        60       FIXPVA
         93        60       FIXPVA
         94        60       FIXPVA
         95        60       FIXPVA
         96        60       FIXPVA
         97        60       FIXPVA
         98        60       FIXPVA
         99        60       FIXPVA
        100        60       FIXPVA
        101        60       FIXPVA
        102        60       FIXPVA
        103        60       FIXPVA
        104        60       FIXPVA
        105        60       FIXPVA
        106        60       FIXPVA
        107        60       FIXPVA
        108        60       FIXPVA
        109        60       FIXPVA
        110        60       FIXPVA
        111        60       FIXPVA
        112        60       FIXPVA
        113        60       FIXPVA
        114        60       FIXPVA
        115        60       FIXPVA
        116        60       FIXPVA
        117        60       FIXPVA
        118        60       FIXPVA
        119        60       FIXPVA
        120        60       FIXPVA
        121        60       FIXPVA
        122        60       FIXPVA
        123        60       FIXPVA
        124        60       FIXPVA
        125        60       FIXPVA
        126        60       FIXPVA
        127        60       FIXPVA
        128        60       FIXPVA
        129        60       FIXPVA
        130        60       FIXPVA
        131        60       FIXPVA
        132        60       FIXPVA
        133        60       FIXPVA
        134        60       FIXPVA
        135        60       FIXPVA
        136        60       FIXPVA
        137        60       FIXPVA
        138        60       FIXPVA
        139        60       FIXPVA
        140        60       FIXPVA
        141        60       FIXPVA
        142        60       FIXPVA
        143        60       FIXPVA
        144        60       FIXPVA
        145        60       FIXPVA
        146        60       FIXPVA
        147        60       FIXPVA
        148        60       FIXPVA
        149        60       FIXPVA
        150        60       FIXPVA
        151        60       FIXPVA
        152        60       FIXPVA
        153        60       FIXPVA
        154        60       FIXPVA
        155        60       FIXPVA
        156        60       FIXPVA
        157        60       FIXPVA
        158        60       FIXPVA
        159        60       FIXPVA
        160        60       FIXPVA
        161        60       FIXPVA
        162        60       FIXPVA
        163        60       FIXPVA
        164        60       FIXPVA
        165        60       FIXPVA
        166        60       FIXPVA
        167        60       FIXPVA
        168        60       FIXPVA
        169        60       FIXPVA
        170        60       FIXPVA
        171        60       FIXPVA
        172        60       FIXPVA
        173        60       FIXPVA
        174        60       FIXPVA
        175        60       FIXPVA
        176        60       FIXPVA
        177        60       FIXPVA
        178        60       FIXPVA
        179        60       FIXPVA
        180        60       FIXPVA
        181        60       FIXPVA
        182        60       FIXPVA
        183        60       FIXPVA
        184        60       FIXPVA
        185        60       FIXPVA
        186        60       FIXPVA
        187        60       FIXPVA
        188        60       FIXPVA
        189        60       FIXPVA
        190        60       FIXPVA
        191        60       FIXPVA
        192        60       FIXPVA
        193        60       FIXPVA
        194        60       FIXPVA
        195        60       FIXPVA
        196        60       FIXPVA
        197        60       FIXPVA
        198        60       FIXPVA
        199        60       FIXPVA
        200        60       FIXPVA
        201        60       FIXPVA
        202        60       FIXPVA
        203        60       FIXPVA
        204        60       FIXPVA
        205        60       FIXPVA
        206        60       FIXPVA
        207        60       FIXPVA
        208        60       FIXPVA
        209        60       FIXPVA
        210        60       FIXPVA
        211        60       FIXPVA
        212        60       FIXPVA
        213        60       FIXPVA
        214        60       FIXPVA
        215        60       FIXPVA
        216        60       FIXPVA
        217        60       FIXPVA
        218        60       FIXPVA
        219        60       FIXPVA
        220        60       FIXPVA
        221        60       FIXPVA
        222        60       FIXPVA
        223        60       FIXPVA
        224        60       FIXPVA
        225        60       FIXPVA
        226        60       FIXPVA
        227        60       FIXPVA
        228        60       FIXPVA
        229        60       FIXPVA
        230        60       FIXPVA
        231        60       FIXPVA
        232        60       FIXPVA
        233        60       FIXPVA
        234        60       FIXPVA
        235        60       FIXPVA
        236        60       FIXPVA
        237        60       FIXPVA
        238        60       FIXPVA
        239        60       FIXPVA
        240        60       FIXPVA
        241        60       FIXPVA
        242        60       FIXPVA
        243        60       FIXPVA
        244        60       FIXPVA
        245        60       FIXPVA
        246        60       FIXPVA
        247        60       FIXPVA
        248        60       FIXPVA
        249        60       FIXPVA
        250        60       FIXPVA
        251        60       FIXPVA
        252        60       FIXPVA
        253        60       FIXPVA
        254        60       FIXPVA
        255        60       FIXPVA
        256        60       FIXPVA
        257        60       FIXPVA
        258        60       FIXPVA
        259        60       FIXPVA
        260        60       FIXPVA
        261        60       FIXPVA
        262        60       FIXPVA
        263        60       FIXPVA
        264        60       FIXPVA
        265        60       FIXPVA
        266        60       FIXPVA
        267        60       FIXPVA
        268        60       FIXPVA
        269        60       FIXPVA
        270        60       FIXPVA
        271        60       FIXPVA
        272        60       FIXPVA
        273        60       FIXPVA
        274        60       FIXPVA
        275        60       FIXPVA
        276        60       FIXPVA
        277        60       FIXPVA
        278        60       FIXPVA
        279        60       FIXPVA
        280        60       FIXPVA
        281        60       FIXPVA
        282        60       FIXPVA
        283        60       FIXPVA
        284        60       FIXPVA
        285        60       FIXPVA
        286        60       FIXPVA
        287        60       FIXPVA
        288        60       FIXPVA
        289        60       FIXPVA
        290        60       FIXPVA
        291        60       FIXPVA
        292        60       FIXPVA
        293        60       FIXPVA
        294        60       FIXPVA
        295        60       FIXPVA
        296        60       FIXPVA
        297        60       FIXPVA
        298        60       FIXPVA
        299        60       FIXPVA
        300        60       FIXPVA
        301        60       FIXPVA
        302        60       FIXPVA
        303        60       FIXPVA
        304        60       FIXPVA
        305        60       FIXPVA
        306        60       FIXPVA
        307        60       FIXPVA
        308        60       FIXPVA
        309        60       FIXPVA
        310        60       FIXPVA
        311        60       FIXPVA
        312        60       FIXPVA
        313        60       FIXPVA
        314        60       FIXPVA
        315        60       FIXPVA
        316        60       FIXPVA
        317        60       FIXPVA
        318        60       FIXPVA
        319        60       FIXPVA
        320        60       FIXPVA
        321        60       FIXPVA
        322        60       FIXPVA
        323        60       FIXPVA
        324        60       FIXPVA
        325        60       FIXPVA
        326        60       FIXPVA
        327        60       FIXPVA
        328        60       FIXPVA
        329        60       FIXPVA
        330        60       FIXPVA
        331        60       FIXPVA
        332        60       FIXPVA
        333        60       FIXPVA
        334        60       FIXPVA
        335        60       FIXPVA
        336        60       FIXPVA
        337        60       FIXPVA
        338        60       FIXPVA
        339        60       FIXPVA
        340        60       FIXPVA
        341        60       FIXPVA
        342        60       FIXPVA
        343        60       FIXPVA
        344        60       FIXPVA
        345        60       FIXPVA
        346        60       FIXPVA

     ------------------------------
      FIXPVA TESSELLATION FOR PCM
         PEIFENG SU AND HUI LI
     UNIVERSITY OF NEBRASKA-LINCOLN
     ------------------------------


 PCM DIMENSIONS: MXSP=   346, MXTS=     13840, MEMORY=        142209

     INPUT FOR CAVITY DEFINITION 
     ---------------------------
   ATOM               COORDINATES                RADIUS       EPS
      1     -3.9260     -4.7080      4.5800      0.0100     78.3900
      2     -3.1380     -4.8380      4.0170      1.5900     78.3900
      3     -3.5870     -4.8460      2.6530      1.7700     78.3900
      4     -4.1740     -3.9180      2.4660      0.0100     78.3900
      5     -4.2670     -5.7110      2.5020      0.0100     78.3900
      6     -2.4450     -4.9220      1.6240      1.7700     78.3900
      7     -2.8300     -4.7380      0.5990      0.0100     78.3900
      8     -1.4400     -3.9020      1.9010      1.5900     78.3900
      9     -0.1440     -4.4480      1.7210      1.7700     78.3900
     10      0.3740     -3.7920      0.9830      0.0100     78.3900
     11      0.6130     -4.4420      2.9830      1.6800     78.3900
     12      2.2430     -4.4410      4.4660      1.7700     78.3900
     13      1.0610     -4.3330      5.1890      1.6800     78.3900
     14      0.1250     -4.3410      4.2680      1.7700     78.3900
     15     -0.9450     -4.2520      4.4640      0.0100     78.3900
     16      4.5370     -4.6240      3.8840      1.6800     78.3900
     17      4.1210     -4.6900      2.6140      1.7700     78.3900
     18      4.9170     -4.7810      1.8680      0.0100     78.3900
     19      2.8790     -4.6260      2.1190      1.6800     78.3900
     20      1.9790     -4.5100      3.1080      1.7700     78.3900
     21      3.6000     -4.4960      4.8600      1.7700     78.3900
     22      4.0040     -4.4230      6.1430      1.6800     78.3900
     23      3.3470     -4.3790      6.9040      0.0100     78.3900
     24      4.9770     -4.5070      6.3620      0.0100     78.3900
     25     -0.2930     -5.8410      1.1300      1.7700     78.3900
     26      0.4840     -6.5430      1.5010      0.0100     78.3900
     27     -0.2400     -5.7890     -0.2800      1.5900     78.3900
     28     -0.3330     -6.7020     -0.5920      0.0100     78.3900
     29     -1.6790     -6.2530      1.6130      1.7700     78.3900
     30     -1.6200     -6.5850      2.6720      0.0100     78.3900
     31     -2.3610     -7.1960      0.7560      1.5900     78.3900
     32     -2.3600     -8.7380      1.0560      2.1000     78.3900
     33     -3.4310     -9.3640      0.2510      1.5900     78.3900
     34     -2.4080     -8.9430      2.5190      1.5900     78.3900
     35     -0.9760     -9.2430      0.5110      1.5900     78.3900
     36     -0.7150     -9.4400     -0.8970      1.7700     78.3900
     37     -1.2130     -8.6630     -1.5200      0.0100     78.3900
     38     -1.1370    -10.4180     -1.2100      0.0100     78.3900
     39      0.7930     -9.4120     -1.2600      1.7700     78.3900
     40      0.9170     -9.1800     -2.3400      0.0100     78.3900
     41      1.4820     -8.3580     -0.5270      1.5900     78.3900
     42      2.7480     -8.8290     -0.0730      1.7700     78.3900
     43      3.5000     -8.1030     -0.4620      0.0100     78.3900
     44      2.8540     -8.8710      1.4170      1.6800     78.3900
     45      1.7140     -8.8840      2.1840      1.7700     78.3900
     46      0.7830     -8.8130      1.6440      0.0100     78.3900
     47      1.7560     -8.9180      3.5180      1.7700     78.3900
     48      0.8540     -8.9190      4.1290      0.0100     78.3900
     49      4.0970     -8.9330      2.0440      1.7700     78.3900
     50      5.1270     -8.9510      1.3520      1.5900     78.3900
     51      4.1630     -8.9570      3.3960      1.6800     78.3900
     52      3.0380     -8.9440      4.1300      1.7700     78.3900
     53      3.1320     -8.9490      5.4540      1.6800     78.3900
     54      4.0550     -8.9510      5.8500      0.0100     78.3900
     55      2.3290     -8.9650      6.0530      0.0100     78.3900
     56      3.0030    -10.1840     -0.7120      1.7700     78.3900
     57      3.5390    -10.8750     -0.0270      0.0100     78.3900
     58      3.7410    -10.0410     -1.9110      1.5900     78.3900
     59      3.7300    -10.9120     -2.3300      0.0100     78.3900
     60      1.5900    -10.7000     -0.9870      1.7700     78.3900
     61      1.1550    -11.1190     -0.0480      0.0100     78.3900
     62      1.4970    -11.6030     -2.1290      1.5900     78.3900
     63      1.2620    -13.1450     -1.9010      2.1000     78.3900
     64      0.9900    -13.7610     -3.2160      1.5900     78.3900
     65      0.2430    -13.3250     -0.8470      1.5900     78.3900
     66      2.6510    -13.6710     -1.3740      1.5900     78.3900
     67      3.8000    -13.8120     -2.2440      1.7700     78.3900
     68      3.8440    -12.9880     -2.9920      0.0100     78.3900
     69      3.7280    -14.7690     -2.8090      0.0100     78.3900
     70      5.1460    -13.7970     -1.4810      1.7700     78.3900
     71      5.9860    -13.6020     -2.1840      0.0100     78.3900
     72      5.1600    -12.7180     -0.5000      1.5900     78.3900
     73      5.7610    -13.1660      0.7120      1.7700     78.3900
     74      6.5900    -12.4460      0.9090      0.0100     78.3900
     75      4.8320    -13.1500      1.8790      1.6800     78.3900
     76      3.4760    -13.1090      1.6760      1.7700     78.3900
     77      3.1550    -13.0380      0.6450      0.0100     78.3900
     78      2.6110    -13.1010      2.6940      1.7700     78.3900
     79      1.5340    -13.0530      2.5390      0.0100     78.3900
     80      5.3360    -13.2020      3.1780      1.7700     78.3900
     81      6.5670    -13.2560      3.3320      1.5900     78.3900
     82      4.4710    -13.1970      4.2270      1.6800     78.3900
     83      3.1460    -13.1460      4.0090      1.7700     78.3900
     84      2.3100    -13.1440      5.0410      1.6800     78.3900
     85      2.6800    -13.1510      5.9700      0.0100     78.3900
     86      1.3150    -13.1250      4.9250      0.0100     78.3900
     87      6.3550    -14.5400      0.4570      1.7700     78.3900
     88      6.2880    -15.2000      1.3470      0.0100     78.3900
     89      7.7090    -14.4230      0.0540      1.5900     78.3900
     90      7.9780    -15.2910     -0.2750      0.0100     78.3900
     91      5.4830    -15.0670     -0.6780      1.7700     78.3900
     92      4.5120    -15.4350     -0.2720      0.0100     78.3900
     93      6.1570    -16.0230     -1.5260      1.5900     78.3900
     94      5.7740    -17.5410     -1.5120      2.1000     78.3900
     95      6.5660    -18.2400     -2.5440      1.5900     78.3900
     96      4.3070    -17.6520     -1.6070      1.5900     78.3900
     97      6.2220    -18.0510     -0.0980      1.5900     78.3900
     98      7.6110    -18.2730      0.2300      1.7700     78.3900
     99      8.2630    -17.4580     -0.1640      0.0100     78.3900
    100      7.9520    -19.2320     -0.2220      0.0100     78.3900
    101      7.8430    -18.3720      1.7520      1.7700     78.3900
    102      8.9280    -18.3340      1.9860      0.0100     78.3900
    103      7.2220    -17.2640      2.4540      1.5900     78.3900
    104      6.6030    -17.7330      3.6430      1.7700     78.3900
    105      7.0420    -17.1270      4.4680      0.0100     78.3900
    106      5.1190    -17.5360      3.6140      1.6800     78.3900
    107      4.4560    -17.2700      2.4370      1.7700     78.3900
    108      5.0840    -17.1750      1.5590      0.0100     78.3900
    109      4.4340    -17.5660      4.8050      1.7700     78.3900
    110      4.9810    -17.7950      5.8760      1.5900     78.3900
    111      3.0840    -17.3290      4.7090      1.6800     78.3900
    112      2.5750    -17.3030      5.5770      0.0100     78.3900
    113      2.3520    -17.1210      3.5580      1.7700     78.3900
    114      1.1310    -16.9990      3.6130      1.5900     78.3900
    115      3.1320    -17.0810      2.3640      1.7700     78.3900
    116      2.6290    -16.9130      1.4140      0.0100     78.3900
    117      7.0200    -19.1890      3.8290      1.7700     78.3900
    118      6.2220    -19.7970      4.3070      0.0100     78.3900
    119      8.2040    -19.2780      4.6020      1.5900     78.3900
    120      8.4360    -20.2130      4.6310      0.0100     78.3900
    121      7.2690    -19.6380      2.3930      1.7700     78.3900
    122      6.3050    -19.8440      1.8750      0.0100     78.3900
    123      8.2240    -20.7070      2.2350      1.5900     78.3900
    124      7.7960    -22.2060      2.3400      2.1000     78.3900
    125      8.9650    -23.0440      1.9640      1.5900     78.3900
    126      6.5510    -22.4010      1.5650      1.5900     78.3900
    127      7.5110    -22.4210      3.8780      1.5900     78.3900
    128      6.2390    -22.9970      4.2610      1.7700     78.3900
    129      6.1580    -24.0480      3.9000      0.0100     78.3900
    130      5.3860    -22.4230      3.8270      0.0100     78.3900
    131      6.0880    -22.9870      5.7870      1.7700     78.3900
    132      7.0370    -23.2600      6.2930      0.0100     78.3900
    133      5.7210    -21.6530      6.2280      1.5900     78.3900
    134      4.7420    -21.7390      7.2480      1.7700     78.3900
    135      5.1610    -21.1840      8.1210      0.0100     78.3900
    136      3.4450    -21.1340      6.8330      1.6800     78.3900
    137      3.2010    -20.7350      5.5390      1.7700     78.3900
    138      4.0320    -20.8630      4.8430      0.0100     78.3900
    139      2.5260    -20.8820      7.8220      1.7700     78.3900
    140      2.7580    -21.0990      8.9980      1.5900     78.3900
    141      1.3360    -20.3510      7.4010      1.6800     78.3900
    142      0.6540    -20.2130      8.1330      0.0100     78.3900
    143      1.0260    -19.9120      6.1360      1.7700     78.3900
    144     -0.0550    -19.3690      5.9150      1.5900     78.3900
    145      2.0530    -20.1490      5.1650      1.7700     78.3900
    146      1.8920    -19.8100      4.1450      0.0100     78.3900
    147      4.5980    -23.2060      7.6150      1.7700     78.3900
    148      3.5610    -23.4710      7.9070      0.0100     78.3900
    149      5.4860    -23.5470      8.6570      1.5900     78.3900
    150      5.4080    -24.5020      8.7450      0.0100     78.3900
    151      4.9840    -23.9040      6.3200      1.7700     78.3900
    152      4.1500    -23.8560      5.5850      0.0100     78.3900
    153      5.4950    -25.2440      6.4780      1.5900     78.3900
    154      4.5190    -26.4480      6.7420      2.1000     78.3900
    155      5.0030    -27.5960      5.9450      1.5900     78.3900
    156      3.1190    -26.0200      6.5390      1.5900     78.3900
    157      4.7490    -26.7630      8.2630      1.5900     78.3900
    158      3.6990    -26.7920      9.2580      1.7700     78.3900
    159      3.1200    -27.7380      9.1470      0.0100     78.3900
    160      2.9850    -25.9440      9.1260      0.0100     78.3900
    161      4.2180    -26.7480     10.7240      1.7700     78.3900
    162      3.5480    -27.3330     11.3850      0.0100     78.3900
    163      5.5510    -27.3310     10.8340      1.5900     78.3900
    164      6.3610    -26.5380     11.6890      1.7700     78.3900
    165      6.7320    -27.2370     12.4750      0.0100     78.3900
    166      7.5280    -25.9210     10.9840      1.6800     78.3900
    167      7.4640    -25.6900      9.6340      1.7700     78.3900
    168      6.5520    -25.9950      9.1470      0.0100     78.3900
    169      8.4880    -25.1680      8.9530      1.7700     78.3900
    170      8.4440    -25.0040      7.8780      0.0100     78.3900
    171      8.6750    -25.5570     11.6860      1.7700     78.3900
    172      8.7200    -25.7740     12.9070      1.5900     78.3900
    173      9.7260    -25.0070     11.0200      1.6800     78.3900
    174      9.6620    -24.8370      9.6840      1.7700     78.3900
    175     10.7130    -24.3480      9.0280      1.6800     78.3900
    176     11.5290    -24.0790      9.5410      0.0100     78.3900
    177     10.6980    -24.2060      8.0400      0.0100     78.3900
    178      5.4680    -25.5100     12.3490      1.7700     78.3900
    179      6.0040    -24.5500     12.5070      0.0100     78.3900
    180      4.9700    -25.9920     13.5820      1.5900     78.3900
    181      4.3390    -25.3330     13.9100      0.0100     78.3900
    182      4.3390    -25.3380     11.3330      1.7700     78.3900
    183      4.6600    -24.6610     10.5230      0.0100     78.3900
    184      3.0650    -24.9230     11.8720      1.5900     78.3900
    185      2.7960    -23.4580     12.3900      2.1000     78.3900
    186      1.7760    -23.5130     13.4580      1.5900     78.3900
    187      2.4810    -22.6030     11.2400      1.5900     78.3900
    188      4.1360    -22.9910     13.0780      1.5900     78.3900
    189      4.9290    -21.9160     12.5420      1.7700     78.3900
    190      4.3210    -20.9830     12.4760      0.0100     78.3900
    191      5.2860    -22.1590     11.5140      0.0100     78.3900
    192      6.1260    -21.6350     13.4660      1.7700     78.3900
    193      5.8900    -21.8850     14.5220      0.0100     78.3900
    194      7.2660    -22.4410     13.0630      1.5900     78.3900
    195      8.4470    -21.6420     13.0920      1.7700     78.3900
    196      9.1570    -22.1870     13.7550      0.0100     78.3900
    197      9.0770    -21.4710     11.7540      1.6800     78.3900
    198      8.4270    -21.9040     10.6190      1.7700     78.3900
    199      7.4580    -22.3890     10.7630      0.0100     78.3900
    200      8.9780    -21.7640      9.4090      1.7700     78.3900
    201      8.4930    -22.1360      8.5090      0.0100     78.3900
    202     10.3400    -20.8850     11.6490      1.7700     78.3900
    203     10.9290    -20.5270     12.6810      1.5900     78.3900
    204     10.9100    -20.7300     10.4320      1.6800     78.3900
    205     10.2690    -21.1640      9.3310      1.7700     78.3900
    206     10.8710    -21.0540      8.1510      1.6800     78.3900
    207     11.7870    -20.6530      8.1090      0.0100     78.3900
    208     10.4730    -21.4220      7.3110      0.0100     78.3900
    209      8.0920    -20.3120     13.7350      1.7700     78.3900
    210      8.6590    -19.4680     13.2910      0.0100     78.3900
    211      8.3210    -20.3510     15.1300      1.5900     78.3900
    212      8.0070    -19.5060     15.4780      0.0100     78.3900
    213      6.6090    -20.1740     13.4180      1.7700     78.3900
    214      6.4750    -19.8350     12.3620      0.0100     78.3900
    215      5.8660    -19.3710     14.3690      1.5900     78.3900
    216      5.6420    -17.8380     14.1180      2.1000     78.3900
    217      4.9320    -17.2600     15.2810      1.5900     78.3900
    218      5.0120    -17.6770     12.7910      1.5900     78.3900
    219      7.0850    -17.2120     14.0720      1.5900     78.3900
    220      7.7670    -16.8640     15.3010      1.7700     78.3900
    221      7.7150    -17.6950     16.0450      0.0100     78.3900
    222      7.2930    -15.9650     15.7580      0.0100     78.3900
    223      9.2560    -16.5490     15.0780      1.7700     78.3900
    224      9.8280    -16.6270     16.0280      0.0100     78.3900
    225      9.8380    -17.4960     14.1320      1.5900     78.3900
    226     10.6860    -16.8210     13.2290      1.7700     78.3900
    227     11.6760    -17.3310     13.2720      0.0100     78.3900
    228     10.1780    -16.8730     11.8420      1.6800     78.3900
    229      9.9970    -16.7510      9.6480      1.7700     78.3900
    230      8.7650    -17.1840     10.1170      1.6800     78.3900
    231      8.9250    -17.2400     11.4160      1.7700     78.3900
    232      8.1620    -17.5650     12.1210      0.0100     78.3900
    233     11.7650    -16.0660      8.2290      1.6800     78.3900
    234     12.4910    -15.9030      9.3390      1.7700     78.3900
    235     13.5140    -15.5410      9.1740      0.0100     78.3900
    236     12.1560    -16.1520     10.6110      1.6800     78.3900
    237     10.8780    -16.5600     10.6990      1.7700     78.3900
    238     10.4800    -16.4940      8.3480      1.7700     78.3900
    239      9.7320    -16.6560      7.2410      1.6800     78.3900
    240      8.8110    -17.0390      7.2680      0.0100     78.3900
    241     10.1370    -16.4830      6.3440      0.0100     78.3900
    242     10.8280    -15.4060     13.7350      1.7700     78.3900
    243     10.8830    -14.7260     12.8900      0.0100     78.3900
    244     11.9660    -15.2600     14.5640      1.5900     78.3900
    245     11.9120    -14.3820     14.9660      0.0100     78.3900
    246      9.5240    -15.1630     14.4810      1.7700     78.3900
    247      8.6930    -14.9560     13.7690      0.0100     78.3900
    248      9.6170    -14.1770     15.5280      1.5900     78.3900
    249      9.2260    -12.6660     15.3540      2.1000     78.3900
    250      9.8370    -11.9170     16.4800      1.5900     78.3900
    251      7.7600    -12.5790     15.1970      1.5900     78.3900
    252      9.9030    -12.2000     14.0030      1.5900     78.3900
    253     11.2990    -11.8100     13.9520      1.7700     78.3900
    254     11.9250    -12.4920     14.5700      0.0100     78.3900
    255     11.4190    -10.7820     14.3640      0.0100     78.3900
    256     11.9020    -11.8230     12.5220      1.7700     78.3900
    257     13.0120    -11.8680     12.5740      0.0100     78.3900
    258     11.4760    -12.9890     11.7910      1.5900     78.3900
    259     11.1420    -12.6720     10.4700      1.7700     78.3900
    260     11.7220    -13.3720      9.8280      0.0100     78.3900
    261      9.7120    -12.8690     10.2180      1.6800     78.3900
    262      7.7720    -13.1090      9.2180      1.7700     78.3900
    263      7.5210    -13.2370     10.5760      1.6800     78.3900
    264      8.7010    -13.0910     11.1250      1.7700     78.3900
    265      8.9020    -13.1550     12.1940      0.0100     78.3900
    266      7.5050    -13.0060      6.8770      1.6800     78.3900
    267      8.8190    -12.8110      6.8090      1.7700     78.3900
    268      9.2170    -12.6940      5.7980      0.0100     78.3900
    269      9.7140    -12.7200      7.7970      1.6800     78.3900
    270      9.1190    -12.8900      8.9850      1.7700     78.3900
    271      6.9330    -13.1610      8.0910      1.7700     78.3900
    272      5.6090    -13.3730      8.1380      1.6800     78.3900
    273      5.0980    -13.4690      8.9960      0.0100     78.3900
    274      5.1370    -13.4060      7.2610      0.0100     78.3900
    275     11.5960    -11.2590     10.2230      1.7700     78.3900
    276     10.9360    -10.7160      9.5130      0.0100     78.3900
    277     12.9170    -11.2710      9.7190      1.5900     78.3900
    278     13.1150    -10.3610      9.4450      0.0100     78.3900
    279     11.5280    -10.6420     11.6250      1.7700     78.3900
    280     10.4790    -10.3710     11.8860      0.0100     78.3900
    281     12.4500     -9.5610     11.8740      1.5900     78.3900
    282     12.2190     -8.1460     11.2440      2.1000     78.3900
    283     13.2660     -7.2430     11.7680      1.5900     78.3900
    284     10.8140     -7.7570     11.4820      1.5900     78.3900
    285     12.4400     -8.3510      9.7000      1.5900     78.3900
    286     13.7430     -8.2760      9.0770      1.7700     78.3900
    287     14.4280     -9.0560      9.4880      0.0100     78.3900
    288     14.2140     -7.2870      9.2790      0.0100     78.3900
    289     13.6560     -8.4390      7.5440      1.7700     78.3900
    290     14.6440     -8.7270      7.1220      0.0100     78.3900
    291     12.7060     -9.4790      7.1780      1.5900     78.3900
    292     11.9620     -9.0730      6.0370      1.7700     78.3900
    293     12.1290     -9.8570      5.2650      0.0100     78.3900
    294     10.5180     -8.9780      6.3330      1.6800     78.3900
    295      9.4620     -9.0330      5.4470      1.7700     78.3900
    296      8.2050     -9.2930      2.2160      1.6800     78.3900
    297      7.3120     -9.2780      1.7700      0.0100     78.3900
    298      9.0320     -9.4000      1.6600      0.0100     78.3900
    299      9.5430     -9.1890      4.1080      1.6800     78.3900
    300      8.3360     -9.1790      3.5260      1.7700     78.3900
    301      7.1630     -9.0460      4.2230      1.6800     78.3900
    302      6.2920     -9.0870      3.7190      0.0100     78.3900
    303      7.0520     -8.9100      5.6000      1.7700     78.3900
    304      5.9640     -8.7980      6.1770      1.5900     78.3900
    305      8.3260     -8.8980      6.2260      1.7700     78.3900
    306      8.6550     -8.7730      7.5700      1.6800     78.3900
    307      9.9620     -8.8300      7.5840      1.7700     78.3900
    308     10.5810     -8.7890      8.4780      0.0100     78.3900
    309     12.5440     -7.7600      5.5440      1.7700     78.3900
    310     11.7670     -7.0760      5.1390      0.0100     78.3900
    311     13.5210     -7.9980      4.5480      1.5900     78.3900
    312     13.8550     -7.1260      4.3100      0.0100     78.3900
    313     13.1780     -7.1790      6.8070      1.7700     78.3900
    314     12.4030     -6.7100      7.4560      0.0100     78.3900
    315     14.3090     -6.3140      6.5750      1.5900     78.3900
    316     14.1870     -4.7640      6.4110      2.1000     78.3900
    317     15.5480     -4.2000      6.2670      1.5900     78.3900
    318     13.3530     -4.2390      7.5160      1.5900     78.3900
    319     13.4060     -4.5770      5.0570      1.5900     78.3900
    320     14.0230     -4.7310      3.7610      1.7700     78.3900
    321     14.5100     -5.7250      3.6610      0.0100     78.3900
    322     14.8110     -3.9560      3.6150      0.0100     78.3900
    323     13.0050     -4.5920      2.6090      1.7700     78.3900
    324     13.4880     -4.7970      1.6290      0.0100     78.3900
    325     11.9180     -5.5500      2.7670      1.5900     78.3900
    326     10.6820     -4.9520      2.3940      1.7700     78.3900
    327     10.2900     -5.5880      1.5640      0.0100     78.3900
    328      9.7160     -4.9320      3.5380      1.6800     78.3900
    329     10.1740     -4.8290      4.8280      1.7700     78.3900
    330     11.2500     -4.8090      4.9330      0.0100     78.3900
    331      8.3620     -4.9870      3.2850      1.7700     78.3900
    332      7.9080     -5.0480      2.1480      1.5900     78.3900
    333      7.5530     -4.9680      4.3990      1.6800     78.3900
[...]
   294   10   7.0   0.00    0.0    0.000000   -0.807208   -0.816239
   295   10   6.0   0.02    0.0    0.000499    0.702858    0.707775
   296   10   7.0  16.31   31.9   -0.121411   -0.991342   -1.016749
   297   10   1.0   0.00    0.0    0.000000    0.465490    0.470846
   298   10   1.0   0.00    0.0    0.000000    0.456105    0.455204
   299   10   7.0   7.85   15.4    0.109563   -0.756623   -0.755802
   300   10   6.0   0.66    1.2    0.003482    0.990304    0.988371
   301   10   7.0   0.38    0.7    0.002534   -0.948475   -0.996090
   302   10   1.0   0.00    0.0    0.000000    0.486087    0.513220
   303   10   6.0   0.03    0.0    0.002920    0.889719    0.882837
   304   10   8.0   9.00   19.7    0.169446   -0.757519   -0.739852
   305   10   6.0   0.00    0.0    0.000000   -0.046940   -0.047132
   306   10   7.0   8.24   16.1    0.162794   -0.599169   -0.607915
   307   10   6.0   3.21    5.7    0.013846    0.282442    0.270566
   308   10   1.0   0.00    0.0    0.000000    0.284452    0.307194
   309   10   6.0   0.08    0.1    0.002194    0.115082    0.088739
   310   10   1.0   0.00    0.0    0.000000    0.203935    0.223165
   311   10   8.0  16.47   36.0    0.119157   -0.822247   -0.837398
   312   10   1.0   0.00    0.0    0.000000    0.503069    0.525015
   313   10   6.0   1.82    3.2   -0.035741    0.146060    0.118369
   314   10   1.0   0.00    0.0    0.000000    0.238983    0.244526
   315   10   8.0   4.58   10.0    0.062846   -0.782429   -0.788457
   316   10  15.0  10.63   13.3    0.114776    1.594400    1.645340
   317   10   8.0  17.82   39.0    0.360174   -0.892421   -0.887086
   318   10   8.0  14.22   31.1    0.315180   -0.895276   -0.894725
   319   10   8.0   1.55    3.4    0.018821   -0.986355   -0.799475
   320   11   6.0  14.55   25.7   -0.115428    0.190866   -0.041912
   321   11   1.0   0.00    0.0    0.000000    0.163473    0.185261
   322   11   1.0   0.00    0.0    0.000000    0.254298    0.238676
   323   11   6.0   6.62   11.7   -0.050739    0.092497    0.152526
   324   11   1.0   0.00    0.0    0.000000    0.258193    0.230865
   325   11   8.0   3.06    6.7    0.038230   -0.723657   -0.731891
   326   11   6.0   4.58    8.1   -0.051091    0.398450    0.397968
   327   11   1.0   0.00    0.0    0.000000    0.270002    0.267773
   328   11   7.0   0.00    0.0    0.000000   -0.823221   -0.830824
   329   11   6.0   4.00    7.1   -0.008899    0.176677    0.166182
   330   11   1.0   0.00    0.0    0.000000    0.326398    0.349035
   331   11   6.0   2.86    5.0   -0.013433    1.112599    1.113845
   332   11   8.0  13.62   29.8    0.177428   -0.681879   -0.686242
   333   11   7.0   2.81    5.5    0.001474   -0.948687   -0.998585
   334   11   1.0   0.00    0.0    0.000000    0.483370    0.515370
   335   11   6.0   2.83    5.0   -0.007718    0.880136    0.879622
   336   11   8.0  13.59   29.7    0.170830   -0.717175   -0.705814
   337   11   6.0   9.73   17.2   -0.027782   -0.453511   -0.460694
   338   11   1.0   0.00    0.0    0.000000    0.275992    0.275551
   339   11   6.0   6.08   10.7   -0.067430    0.119683    0.120103
   340   11   1.0   0.00    0.0    0.000000    0.228335    0.227596
   341   11   8.0  20.37   44.5    0.054694   -0.833434   -0.834539
   342   11   1.0   0.00    0.0    0.000000    0.500694    0.500981
   343   11   6.0   5.68   10.0   -0.062034    0.158133    0.141149
   344   11   1.0   0.00    0.0    0.000000    0.221321    0.225829
   345   11   8.0  20.60   45.0   -0.037210   -0.848498   -0.851870
   346   11   1.0   0.00    0.0    0.000000    0.510317    0.510313

 Done with FMO properties.
 CPU     0: STEP CPU TIME=     0.00 TOTAL CPU TIME=      16244.0 (    270.7 MIN)
 TOTAL WALL CLOCK TIME=      40431.0 SECONDS, CPU UTILIZATION IS    40.18%
 CPU     0: STEP CPU TIME=     0.00 TOTAL CPU TIME=      16244.0 (    270.7 MIN)
 TOTAL WALL CLOCK TIME=      40431.1 SECONDS, CPU UTILIZATION IS    40.18%

 Total timing statistics in pairs (CPU,wall) for each rank, sec

    Rank   total     SCF    corr     DFT    CPHF     EFP    solv     ESP    geom
 -------------------------------------------------------------------------------
       1   16244.0   4681.3   6021.8      0.0    0.0   0.0  167.7  5041.1    0.0
       1   40431.1  10220.0  18676.7      0.0    0.0   0.0  471.7 10209.8    0.0
       2   16056.7   4644.0   5919.2      0.0    0.0   0.0  169.1  4999.2    0.0
       2   40431.1  10196.4  18690.3      0.0    0.0   0.0  471.4 10209.0    0.0
       3   16152.5   4694.6   5875.2      0.0    0.0   0.0  170.2  5086.9    0.0
       3   40431.1  10196.1  18690.3      0.0    0.0   0.0  471.3 10209.3    0.0
       4   16546.6   4683.6   6257.9      0.0    0.0   0.0  169.1  5095.7    0.0
       4   40431.1  10197.1  18690.3      0.0    0.0   0.0  470.3 10209.1    0.0
       5   16402.0   4696.6   6079.6      0.0    0.0   0.0  168.8  5129.1    0.0
       5   40431.1  10196.4  18690.3      0.0    0.0   0.0  471.3 10209.4    0.0
       6   16766.0   4712.7   6487.9      0.0    0.0   0.0  169.1  5068.0    0.0
       6   40431.1  10197.5  18690.3      0.0    0.0   0.0  470.0 10209.3    0.0
       7   16317.9   4690.0   6023.4      0.0    0.0   0.0  170.1  5108.3    0.0
       7   40431.1  10196.7  18690.3      0.0    0.0   0.0  470.7 10209.2    0.0
       8   16732.6   4695.2   6422.6      0.0    0.0   0.0  168.7  5123.0    0.0
       8   40431.1  10197.4  18690.3      0.0    0.0   0.0  469.6 10209.1    0.0
       9   16103.3   4634.4   5976.1      0.0    0.0   0.0  166.3  4996.9    0.0
       9   40431.1  10198.0  18690.3      0.0    0.0   0.0  469.9 10209.1    0.0
      10   16527.4   4682.5   6297.7      0.0    0.0   0.0  166.8  5060.0    0.0
      10   40431.1  10197.9  18690.3      0.0    0.0   0.0  470.0 10209.0    0.0
      11   16065.9   4660.2   5931.0      0.0    0.0   0.0  167.5  4978.8    0.0
      11   40431.1  10197.9  18690.3      0.0    0.0   0.0  470.1 10208.9    0.0
      12   16280.7   4655.8   6115.2      0.0    0.0   0.0  167.4  5016.4    0.0
      12   40431.1  10198.4  18690.3      0.0    0.0   0.0  469.3 10208.8    0.0
      13   16227.0   4677.8   6076.5      0.0    0.0   0.0  165.9  4978.0    0.0
      13   40431.1  10198.3  18690.3      0.0    0.0   0.0  469.7 10208.9    0.0
      14   16298.1   4725.1   6057.2      0.0    0.0   0.0  167.0  5019.2    0.0
      14   40431.1  10198.5  18690.3      0.0    0.0   0.0  469.1 10208.9    0.0
      15   16124.8   4653.6   5986.4      0.0    0.0   0.0  167.1  4993.6    0.0
      15   40431.1  10198.7  18690.3      0.0    0.0   0.0  468.9 10208.8    0.0
      16   16159.2   4690.6   5849.7      0.0    0.0   0.0  167.4  5123.2    0.0
      16   40431.1  10198.9  18690.2      0.0    0.0   0.0  468.2 10208.6    0.0
averaged   16312.8   4679.9   6086.1      0.0    0.0   0.0  168.0  5051.1    0.0
averaged   40431.1  10199.0  18689.4      0.0    0.0   0.0  470.1 10209.1    0.0

  FMO  timing statistics in pairs (CPU,wall) for each rank, sec

    Rank  FMOini FMOscf1  FMOdm1 FMOsyn1 FMOscf2  FMOes2 FMOsyn2 FMOscf3 FMOsyn3
 -------------------------------------------------------------------------------
       1    2.1    6474.5    0.3    0.0    9537.8     229.4    0.0    0.0    0.0
       1    5.8   13699.7    5.5    0.0   26251.0     468.8    0.0    0.0    0.0
       2    1.5    6430.8    0.1    0.0    9398.7     225.6    0.0    0.0    0.0
       2    5.8   13699.7    5.5    0.0   26253.5     466.2    0.0    0.0    0.0
       3    1.7    6520.0    0.1    0.0    9405.0     225.7    0.0    0.0    0.0
       3    5.8   13699.7    5.5    0.0   26253.2     466.6    0.0    0.0    0.0
       4    1.5    6541.4    0.1    0.0    9761.7     241.9    0.0    0.0    0.0
       4    5.8   13699.7    5.5    0.0   26253.2     466.5    0.0    0.0    0.0
       5    1.8    6476.6    0.2    0.0    9696.8     226.5    0.0    0.0    0.0
       5    5.8   13699.7    5.5    0.0   26252.8     466.9    0.0    0.0    0.0
       6    1.6    6518.6    0.1    0.0   10017.0     228.7    0.0    0.0    0.0
       6    5.8   13699.7    5.5    0.0   26252.9     466.8    0.0    0.0    0.0
       7    1.7    6533.0    0.2    0.0    9556.9     226.1    0.0    0.0    0.0
       7    5.8   13699.7    5.5    0.0   26253.4     466.3    0.0    0.0    0.0
       8    1.5    6567.6    0.1    0.0    9939.0     224.4    0.0    0.0    0.0
       8    5.8   13699.7    5.5    0.0   26252.9     466.8    0.0    0.0    0.0
       9    1.8    6389.1    0.2    0.0    9482.1     230.1    0.0    0.0    0.0
       9    5.8   13699.7    5.5    0.0   26253.4     466.4    0.0    0.0    0.0
      10    1.4    6455.9    0.0    0.0    9846.8     223.2    0.0    0.0    0.0
      10    5.8   13699.7    5.5    0.0   26253.1     466.7    0.0    0.0    0.0
      11    1.5    6442.5    0.1    0.0    9391.7     230.0    0.0    0.0    0.0
      11    5.8   13699.7    5.5    0.0   26252.7     467.0    0.0    0.0    0.0
      12    1.4    6448.3    0.1    0.0    9603.0     227.9    0.0    0.0    0.0
      12    5.8   13699.7    5.5    0.0   26253.8     465.9    0.0    0.0    0.0
      13    1.7    6467.4    0.1    0.0    9527.0     230.7    0.0    0.0    0.0
      13    5.8   13699.7    5.5    0.0   26253.5     466.2    0.0    0.0    0.0
      14    1.4    6492.7    0.1    0.0    9570.7     233.3    0.0    0.0    0.0
      14    5.8   13699.7    5.5    0.0   26253.8     465.9    0.0    0.0    0.0
      15    1.5    6463.0    0.1    0.0    9433.6     226.5    0.0    0.0    0.0
      15    5.8   13699.7    5.5    0.0   26253.8     465.9    0.0    0.0    0.0
      16    1.5    6519.9    0.1    0.0    9405.7     232.1    0.0    0.0    0.0
      16    5.8   13699.7    5.5    0.0   26253.3     466.4    0.0    0.0    0.0
averaged    1.6    6483.8    0.1    0.0    9598.4     228.9    0.0    0.0    0.0
averaged    5.8   13699.7    5.5    0.0   26253.1     466.6    0.0    0.0    0.0
             62770576  WORDS OF DYNAMIC MEMORY USED
 EXECUTION OF GAMESS TERMINATED NORMALLY Fri Dec  6 23:01:42 2019
 DDI: 263640 bytes (0.3 MB / 0 MWords) used by master data server.

 ----------------------------------------
 CPU timing information for all processes
 ========================================
 0: 15856.744 + 387.334 = 16244.78
 1: 15713.408 + 343.393 = 16056.801
 2: 15801.906 + 350.680 = 16152.587
 3: 16176.255 + 370.370 = 16546.625
 4: 16022.846 + 379.256 = 16402.103
 5: 16402.701 + 363.277 = 16765.978
 6: 15963.822 + 354.78 = 16317.901
 7: 16362.968 + 369.636 = 16732.604
 8: 15730.261 + 373.114 = 16103.375
 9: 16168.879 + 358.522 = 16527.402
 10: 15709.742 + 356.232 = 16065.975
 11: 15936.648 + 344.131 = 16280.780
 12: 15850.14 + 377.18 = 16227.32
 13: 15958.687 + 339.425 = 16298.112
 14: 15763.526 + 361.311 = 16124.837
 15: 15814.265 + 344.985 = 16159.251
 ----------------------------------------
 ddikick.x: exited gracefully.
unset echo
----- accounting info -----
Files used on the master node gollum052.lsa.umich.edu were:
-rw-r--r-- 1 hazwong frank    17551 Dec  6 11:47 /scratch/hazwong/822124/2LBL_6/usrc/2LBL_6_fmo_input.F05
-rw-r--r-- 1 hazwong frank      634 Dec  6 23:01 /scratch/hazwong/822124/2LBL_6/usrc/2LBL_6_fmo_input.F06.001
-rw-r--r-- 1 hazwong frank      634 Dec  6 23:01 /scratch/hazwong/822124/2LBL_6/usrc/2LBL_6_fmo_input.F06.002
-rw-r--r-- 1 hazwong frank      634 Dec  6 23:01 /scratch/hazwong/822124/2LBL_6/usrc/2LBL_6_fmo_input.F06.003
-rw-r--r-- 1 hazwong frank      634 Dec  6 23:01 /scratch/hazwong/822124/2LBL_6/usrc/2LBL_6_fmo_input.F06.004
-rw-r--r-- 1 hazwong frank      634 Dec  6 23:01 /scratch/hazwong/822124/2LBL_6/usrc/2LBL_6_fmo_input.F06.005
-rw-r--r-- 1 hazwong frank      634 Dec  6 23:01 /scratch/hazwong/822124/2LBL_6/usrc/2LBL_6_fmo_input.F06.006
-rw-r--r-- 1 hazwong frank      634 Dec  6 23:01 /scratch/hazwong/822124/2LBL_6/usrc/2LBL_6_fmo_input.F06.007
-rw-r--r-- 1 hazwong frank      634 Dec  6 23:01 /scratch/hazwong/822124/2LBL_6/usrc/2LBL_6_fmo_input.F06.008
-rw-r--r-- 1 hazwong frank      634 Dec  6 23:01 /scratch/hazwong/822124/2LBL_6/usrc/2LBL_6_fmo_input.F06.009
-rw-r--r-- 1 hazwong frank      634 Dec  6 23:01 /scratch/hazwong/822124/2LBL_6/usrc/2LBL_6_fmo_input.F06.010
-rw-r--r-- 1 hazwong frank      634 Dec  6 23:01 /scratch/hazwong/822124/2LBL_6/usrc/2LBL_6_fmo_input.F06.011
-rw-r--r-- 1 hazwong frank      634 Dec  6 23:01 /scratch/hazwong/822124/2LBL_6/usrc/2LBL_6_fmo_input.F06.012
-rw-r--r-- 1 hazwong frank      634 Dec  6 23:01 /scratch/hazwong/822124/2LBL_6/usrc/2LBL_6_fmo_input.F06.013
-rw-r--r-- 1 hazwong frank      634 Dec  6 23:01 /scratch/hazwong/822124/2LBL_6/usrc/2LBL_6_fmo_input.F06.014
-rw-r--r-- 1 hazwong frank      634 Dec  6 23:01 /scratch/hazwong/822124/2LBL_6/usrc/2LBL_6_fmo_input.F06.015
-rw-r--r-- 1 hazwong frank    10850 Dec  6 23:01 /scratch/hazwong/822124/2LBL_6/usrc/2LBL_6_fmo_input.F07
-rw-r--r-- 1 hazwong frank        0 Dec  6 11:47 /scratch/hazwong/822124/2LBL_6/usrc/2LBL_6_fmo_input.F07.001
-rw-r--r-- 1 hazwong frank        0 Dec  6 11:47 /scratch/hazwong/822124/2LBL_6/usrc/2LBL_6_fmo_input.F07.002
-rw-r--r-- 1 hazwong frank        0 Dec  6 11:47 /scratch/hazwong/822124/2LBL_6/usrc/2LBL_6_fmo_input.F07.003
-rw-r--r-- 1 hazwong frank        0 Dec  6 11:47 /scratch/hazwong/822124/2LBL_6/usrc/2LBL_6_fmo_input.F07.004
-rw-r--r-- 1 hazwong frank        0 Dec  6 11:47 /scratch/hazwong/822124/2LBL_6/usrc/2LBL_6_fmo_input.F07.005
-rw-r--r-- 1 hazwong frank        0 Dec  6 11:47 /scratch/hazwong/822124/2LBL_6/usrc/2LBL_6_fmo_input.F07.006
-rw-r--r-- 1 hazwong frank        0 Dec  6 11:47 /scratch/hazwong/822124/2LBL_6/usrc/2LBL_6_fmo_input.F07.007
-rw-r--r-- 1 hazwong frank        0 Dec  6 11:47 /scratch/hazwong/822124/2LBL_6/usrc/2LBL_6_fmo_input.F07.008
-rw-r--r-- 1 hazwong frank        0 Dec  6 11:47 /scratch/hazwong/822124/2LBL_6/usrc/2LBL_6_fmo_input.F07.009
-rw-r--r-- 1 hazwong frank        0 Dec  6 11:47 /scratch/hazwong/822124/2LBL_6/usrc/2LBL_6_fmo_input.F07.010
-rw-r--r-- 1 hazwong frank        0 Dec  6 11:47 /scratch/hazwong/822124/2LBL_6/usrc/2LBL_6_fmo_input.F07.011
-rw-r--r-- 1 hazwong frank        0 Dec  6 11:47 /scratch/hazwong/822124/2LBL_6/usrc/2LBL_6_fmo_input.F07.012
-rw-r--r-- 1 hazwong frank        0 Dec  6 11:47 /scratch/hazwong/822124/2LBL_6/usrc/2LBL_6_fmo_input.F07.013
-rw-r--r-- 1 hazwong frank        0 Dec  6 11:47 /scratch/hazwong/822124/2LBL_6/usrc/2LBL_6_fmo_input.F07.014
-rw-r--r-- 1 hazwong frank        0 Dec  6 11:47 /scratch/hazwong/822124/2LBL_6/usrc/2LBL_6_fmo_input.F07.015
-rw-r--r-- 1 hazwong frank    65440 Dec  6 23:01 /scratch/hazwong/822124/2LBL_6/usrc/2LBL_6_fmo_input.F10.000
-rw-r--r-- 1 hazwong frank        0 Dec  6 11:47 /scratch/hazwong/822124/2LBL_6/usrc/2LBL_6_fmo_input.F26.000
-rw-r--r-- 1 hazwong frank        0 Dec  6 11:47 /scratch/hazwong/822124/2LBL_6/usrc/2LBL_6_fmo_input.F26.001
-rw-r--r-- 1 hazwong frank        0 Dec  6 11:47 /scratch/hazwong/822124/2LBL_6/usrc/2LBL_6_fmo_input.F26.002
-rw-r--r-- 1 hazwong frank        0 Dec  6 11:47 /scratch/hazwong/822124/2LBL_6/usrc/2LBL_6_fmo_input.F26.003
-rw-r--r-- 1 hazwong frank        0 Dec  6 11:47 /scratch/hazwong/822124/2LBL_6/usrc/2LBL_6_fmo_input.F26.004
-rw-r--r-- 1 hazwong frank        0 Dec  6 11:47 /scratch/hazwong/822124/2LBL_6/usrc/2LBL_6_fmo_input.F26.005
-rw-r--r-- 1 hazwong frank        0 Dec  6 11:47 /scratch/hazwong/822124/2LBL_6/usrc/2LBL_6_fmo_input.F26.006
-rw-r--r-- 1 hazwong frank        0 Dec  6 11:47 /scratch/hazwong/822124/2LBL_6/usrc/2LBL_6_fmo_input.F26.007
-rw-r--r-- 1 hazwong frank        0 Dec  6 11:47 /scratch/hazwong/822124/2LBL_6/usrc/2LBL_6_fmo_input.F26.008
-rw-r--r-- 1 hazwong frank        0 Dec  6 11:47 /scratch/hazwong/822124/2LBL_6/usrc/2LBL_6_fmo_input.F26.009
-rw-r--r-- 1 hazwong frank        0 Dec  6 11:47 /scratch/hazwong/822124/2LBL_6/usrc/2LBL_6_fmo_input.F26.010
-rw-r--r-- 1 hazwong frank        0 Dec  6 11:47 /scratch/hazwong/822124/2LBL_6/usrc/2LBL_6_fmo_input.F26.011
-rw-r--r-- 1 hazwong frank        0 Dec  6 11:47 /scratch/hazwong/822124/2LBL_6/usrc/2LBL_6_fmo_input.F26.012
-rw-r--r-- 1 hazwong frank        0 Dec  6 11:47 /scratch/hazwong/822124/2LBL_6/usrc/2LBL_6_fmo_input.F26.013
-rw-r--r-- 1 hazwong frank        0 Dec  6 11:47 /scratch/hazwong/822124/2LBL_6/usrc/2LBL_6_fmo_input.F26.014
-rw-r--r-- 1 hazwong frank        0 Dec  6 11:47 /scratch/hazwong/822124/2LBL_6/usrc/2LBL_6_fmo_input.F26.015
-rw-r--r-- 1 hazwong frank        0 Dec  6 11:47 /scratch/hazwong/822124/2LBL_6/usrc/2LBL_6_fmo_input.F27.000
-rw-r--r-- 1 hazwong frank        0 Dec  6 11:47 /scratch/hazwong/822124/2LBL_6/usrc/2LBL_6_fmo_input.F27.001
-rw-r--r-- 1 hazwong frank        0 Dec  6 11:47 /scratch/hazwong/822124/2LBL_6/usrc/2LBL_6_fmo_input.F27.002
-rw-r--r-- 1 hazwong frank        0 Dec  6 11:47 /scratch/hazwong/822124/2LBL_6/usrc/2LBL_6_fmo_input.F27.003
-rw-r--r-- 1 hazwong frank        0 Dec  6 11:47 /scratch/hazwong/822124/2LBL_6/usrc/2LBL_6_fmo_input.F27.004
-rw-r--r-- 1 hazwong frank        0 Dec  6 11:47 /scratch/hazwong/822124/2LBL_6/usrc/2LBL_6_fmo_input.F27.005
-rw-r--r-- 1 hazwong frank        0 Dec  6 11:47 /scratch/hazwong/822124/2LBL_6/usrc/2LBL_6_fmo_input.F27.006
-rw-r--r-- 1 hazwong frank        0 Dec  6 11:47 /scratch/hazwong/822124/2LBL_6/usrc/2LBL_6_fmo_input.F27.007
-rw-r--r-- 1 hazwong frank        0 Dec  6 11:47 /scratch/hazwong/822124/2LBL_6/usrc/2LBL_6_fmo_input.F27.008
-rw-r--r-- 1 hazwong frank        0 Dec  6 11:47 /scratch/hazwong/822124/2LBL_6/usrc/2LBL_6_fmo_input.F27.009
-rw-r--r-- 1 hazwong frank        0 Dec  6 11:47 /scratch/hazwong/822124/2LBL_6/usrc/2LBL_6_fmo_input.F27.010
-rw-r--r-- 1 hazwong frank        0 Dec  6 11:47 /scratch/hazwong/822124/2LBL_6/usrc/2LBL_6_fmo_input.F27.011
-rw-r--r-- 1 hazwong frank        0 Dec  6 11:47 /scratch/hazwong/822124/2LBL_6/usrc/2LBL_6_fmo_input.F27.012
-rw-r--r-- 1 hazwong frank        0 Dec  6 11:47 /scratch/hazwong/822124/2LBL_6/usrc/2LBL_6_fmo_input.F27.013
-rw-r--r-- 1 hazwong frank        0 Dec  6 11:47 /scratch/hazwong/822124/2LBL_6/usrc/2LBL_6_fmo_input.F27.014
-rw-r--r-- 1 hazwong frank        0 Dec  6 11:47 /scratch/hazwong/822124/2LBL_6/usrc/2LBL_6_fmo_input.F27.015
-rw-r--r-- 1 hazwong frank 21610496 Dec  6 15:36 /scratch/hazwong/822124/2LBL_6/usrc/2LBL_6_fmo_input.F40.000
-rw-r--r-- 1 hazwong frank 21610496 Dec  6 15:36 /scratch/hazwong/822124/2LBL_6/usrc/2LBL_6_fmo_input.F40.001
-rw-r--r-- 1 hazwong frank 21610496 Dec  6 15:36 /scratch/hazwong/822124/2LBL_6/usrc/2LBL_6_fmo_input.F40.002
-rw-r--r-- 1 hazwong frank 21610496 Dec  6 15:36 /scratch/hazwong/822124/2LBL_6/usrc/2LBL_6_fmo_input.F40.003
-rw-r--r-- 1 hazwong frank 21610496 Dec  6 15:36 /scratch/hazwong/822124/2LBL_6/usrc/2LBL_6_fmo_input.F40.004
-rw-r--r-- 1 hazwong frank 21610496 Dec  6 15:36 /scratch/hazwong/822124/2LBL_6/usrc/2LBL_6_fmo_input.F40.005
-rw-r--r-- 1 hazwong frank 21610496 Dec  6 15:36 /scratch/hazwong/822124/2LBL_6/usrc/2LBL_6_fmo_input.F40.006
-rw-r--r-- 1 hazwong frank 21610496 Dec  6 15:36 /scratch/hazwong/822124/2LBL_6/usrc/2LBL_6_fmo_input.F40.007
-rw-r--r-- 1 hazwong frank 21610496 Dec  6 15:36 /scratch/hazwong/822124/2LBL_6/usrc/2LBL_6_fmo_input.F40.008
-rw-r--r-- 1 hazwong frank 21610496 Dec  6 15:36 /scratch/hazwong/822124/2LBL_6/usrc/2LBL_6_fmo_input.F40.009
-rw-r--r-- 1 hazwong frank 21610496 Dec  6 15:36 /scratch/hazwong/822124/2LBL_6/usrc/2LBL_6_fmo_input.F40.010
-rw-r--r-- 1 hazwong frank 21610496 Dec  6 15:36 /scratch/hazwong/822124/2LBL_6/usrc/2LBL_6_fmo_input.F40.011
-rw-r--r-- 1 hazwong frank 21610496 Dec  6 15:36 /scratch/hazwong/822124/2LBL_6/usrc/2LBL_6_fmo_input.F40.012
-rw-r--r-- 1 hazwong frank 21610496 Dec  6 15:36 /scratch/hazwong/822124/2LBL_6/usrc/2LBL_6_fmo_input.F40.013
-rw-r--r-- 1 hazwong frank 21610496 Dec  6 15:36 /scratch/hazwong/822124/2LBL_6/usrc/2LBL_6_fmo_input.F40.014
-rw-r--r-- 1 hazwong frank 21610496 Dec  6 15:36 /scratch/hazwong/822124/2LBL_6/usrc/2LBL_6_fmo_input.F40.015
ls: No match.
ls: No match.
ls: No match.
Fri Dec  6 23:01:45 EST 2019
0.183u 0.089s 11:13:54.73 0.0%	0+0k 1416+144io 26pf+0w
