‘2LBL_4_fmo_input.inp’ -> ‘/scratch/hazwong/822128/./2LBL_4_fmo_input.inp’
‘rungms’ -> ‘/scratch/hazwong/822128/./rungms’
‘gms-files.csh’ -> ‘/scratch/hazwong/822128/./gms-files.csh’
----- GAMESS execution script 'rungms' -----
This job is running on host gollum068.lsa.umich.edu
under operating system Linux at Fri Dec 6 11:47:50 EST 2019
Available scratch disk space (Kbyte units) at beginning of the job is
Filesystem     1K-blocks   Used Available Use% Mounted on
/dev/sda4      426933580 402120 426531460   1% /scratch
GAMESS temporary binary files will be written to /scratch/hazwong/822128/2LBL_4/usrc
GAMESS supplementary output files will be written to /scratch/hazwong/822128/2LBL_4/src
Copying input file 2LBL_4_fmo_input.inp to your run's scratch directory...
cp 2LBL_4_fmo_input.inp /scratch/hazwong/822128/2LBL_4/usrc/2LBL_4_fmo_input.F05
unset echo
This is a GDDI run, keeping various output files on local disks
setenv OUTPUT /scratch/hazwong/822128/2LBL_4/usrc/2LBL_4_fmo_input.F06
setenv PUNCH /scratch/hazwong/822128/2LBL_4/usrc/2LBL_4_fmo_input.F07
unset echo
 
Assuming a single but multicore node.
 
/export/apps/CentOS7/gamess/src/build//ddikick.x /export/apps/CentOS7/gamess/src/build//gamess.R3.x 2LBL_4_fmo_input -ddi 1 16 gollum068.lsa.umich.edu:cpus=16 -scr /scratch/hazwong/822128/2LBL_4/usrc

 Distributed Data Interface kickoff program.
 Initiating 16 compute processes on 1 nodes to run the following command:
 /export/apps/CentOS7/gamess/src/build//gamess.R3.x 2LBL_4_fmo_input 

          ******************************************************
          *         GAMESS VERSION = 30 SEP 2018 (R3)         *
          *             FROM IOWA STATE UNIVERSITY             *
          * M.W.SCHMIDT, K.K.BALDRIDGE, J.A.BOATZ, S.T.ELBERT, *
          *   M.S.GORDON, J.H.JENSEN, S.KOSEKI, N.MATSUNAGA,   *
          *          K.A.NGUYEN, S.J.SU, T.L.WINDUS,           *
          *       TOGETHER WITH M.DUPUIS, J.A.MONTGOMERY       *
          *         J.COMPUT.CHEM.  14, 1347-1363(1993)        *
          **************** 64 BIT LINUX VERSION ****************

  SINCE 1993, STUDENTS AND POSTDOCS WORKING AT IOWA STATE UNIVERSITY
  AND ALSO IN THEIR VARIOUS JOBS AFTER LEAVING ISU HAVE MADE IMPORTANT
  CONTRIBUTIONS TO THE CODE:
     IVANA ADAMOVIC, CHRISTINE AIKENS, YURI ALEXEEV, POOJA ARORA,
     ANDREY ASADCHEV, ROB BELL, PRADIPTA BANDYOPADHYAY, JONATHAN BENTZ,
     BRETT BODE, KURT BRORSEN, CALEB CARLIN, GALINA CHABAN, WEI CHEN,
     CHEOL HO CHOI, PAUL DAY, ALBERT DEFUSCO, NUWAN DESILVA, TIM DUDLEY,
     DMITRI FEDOROV, ALEX FINDLATER, GRAHAM FLETCHER, MARK FREITAG,
     KURT GLAESEMANN, ANASTASIA GUNINA,
     DAN KEMP, GRANT MERRILL, NORIYUKI MINEZAWA, JONATHAN MULLIN,
     TAKESHI NAGATA, SEAN NEDD, HEATHER NETZLOFF, BOSILJKA NJEGIC, RYAN OLSON,
     MIKE PAK, BUU PHAM,
     SPENCER PRUITT, LUKE ROSKOP, JIM SHOEMAKER, LYUDMILA SLIPCHENKO,
     TONY SMITH, SAROM SOK LEANG, JIE SONG, TETSUYA TAKETSUGU, SIMON WEBB,
     PENG XU, SOOHAENG YOO, FEDERICO ZAHARIEV

  ADDITIONAL CODE HAS BEEN PROVIDED BY COLLABORATORS IN OTHER GROUPS:
     IOWA STATE UNIVERSITY:
          JOE IVANIC, AARON WEST, LAIMUTIS BYTAUTAS, KLAUS RUEDENBERG
     UNIVERSITY OF TOKYO: KIMIHIKO HIRAO, TAKAHITO NAKAJIMA,
          TAKAO TSUNEDA, MUNEAKI KAMIYA, SUSUMU YANAGISAWA,
          KIYOSHI YAGI, MAHITO CHIBA, SEIKEN TOKURA, NAOAKI KAWAKAMI
     UNIVERSITY OF AARHUS: FRANK JENSEN
     UNIVERSITY OF IOWA: VISVALDAS KAIRYS, HUI LI
     NATIONAL INST. OF STANDARDS AND TECHNOLOGY: WALT STEVENS, DAVID GARMER
     UNIVERSITY OF PISA: BENEDETTA MENNUCCI, JACOPO TOMASI
     UNIVERSITY OF MEMPHIS: HENRY KURTZ, PRAKASHAN KORAMBATH
     UNIVERSITY OF ALBERTA: TOBY ZENG, MARIUSZ KLOBUKOWSKI
     UNIVERSITY OF NEW ENGLAND: MARK SPACKMAN
     MIE UNIVERSITY: HIROAKI UMEDA
     NAT. INST. OF ADVANCED INDUSTRIAL SCIENCE AND TECHNOLOGY: KAZUO KITAURA
     MICHIGAN STATE UNIVERSITY:
          KAROL KOWALSKI, MARTA WLOCH, JEFFREY GOUR, JESSE LUTZ,
          WEI LI, JUN SHEN, J. EMILIANO DEUSTUA, PIOTR PIECUCH
     UNIVERSITY OF MINNESOTA:
          YINAN SHU
     UNIVERSITY OF SILESIA: MONIKA MUSIAL, STANISLAW KUCHARSKI
     FACULTES UNIVERSITAIRES NOTRE-DAME DE LA PAIX:
          OLIVIER QUINET, BENOIT CHAMPAGNE
     UNIVERSITY OF CALIFORNIA - SANTA BARBARA: BERNARD KIRTMAN
     INSTITUTE FOR MOLECULAR SCIENCE:
          KAZUYA ISHIMURA, MICHIO KATOUDA, AND SHIGERU NAGASE
     UNIVERSITY OF NOTRE DAME: ANNA POMOGAEVA, DAN CHIPMAN
     KYUSHU UNIVERSITY:
          HARUYUKI NAKANO,
          FENG LONG GU, JACEK KORCHOWIEC, MARCIN MAKOWSKI, AND YURIKO AOKI,
          HIROTOSHI MORI AND EISAKU MIYOSHI
     PENNSYLVANIA STATE UNIVERSITY:
          TZVETELIN IORDANOV, CHET SWALINA, JONATHAN SKONE,
          SHARON HAMMES-SCHIFFER
     WASEDA UNIVERSITY:
          MASATO KOBAYASHI, TOMOKO AKAMA, TSUGUKI TOUMA,
          TAKESHI YOSHIKAWA, YASUHIRO IKABATA, JUNJI SEINO,
          YUYA NAKAJIMA, HIROMI NAKAI
     NANJING UNIVERSITY: SHUHUA LI
     UNIVERSITY OF NEBRASKA:
          PEIFENG SU, DEJUN SI, NANDUN THELLAMUREGE, YALI WANG, HUI LI
     UNIVERSITY OF ZURICH: ROBERTO PEVERATI, KIM BALDRIDGE
     N. COPERNICUS UNIVERSITY AND JACKSON STATE UNIVERSITY:
          MARIA BARYSZ
     UNIVERSITY OF COPENHAGEN: Jimmy Kromann, CASPER STEINMANN
     TOKYO INSTITUTE OF TECHNOLOGY: HIROYA NAKATA
     NAGOYA UNIVERSITY: YOSHIO NISHIMOTO, STEPHAN IRLE
     MOSCOW STATE UNIVERSITY: VLADIMIR MIRONOV


 PARALLEL VERSION RUNNING ON       16 PROCESSORS IN        1 NODES.

 EXECUTION OF GAMESS BEGUN Fri Dec  6 11:47:51 2019

            ECHO OF THE FIRST FEW INPUT CARDS -
 INPUT CARD>!*** FMO 5.3 (Gamess) INPUT generated by Facio 22.1.1.32 ***                    
 INPUT CARD> $CONTRL RUNTYP=ENERGY NPRINT=-5 ISPHER=1 MAXIT=200 $END                        
 INPUT CARD> $SYSTEM MWORDS=63 MEMDDI=63 $END                                               
 INPUT CARD> $GDDI NGROUP=1 $END                                                            
 INPUT CARD> $SCF DIRSCF=.TRUE. NPUNCH=0 $END                                               
 INPUT CARD>!*** NumCPU : 2  MemPerNode : 512MB                                             
 INPUT CARD> $PCM SOLVNT=WATER IEF=-10 ICOMP=2 ICAV=1 IDISP=1 IFMO=-1 $END                  
 INPUT CARD> $PCMCAV RADII=SUAHF $END                                                       
 INPUT CARD> $TESCAV NTSALL=60 $END                                                         
 INPUT CARD> $FMOPRP                                                                        
 INPUT CARD>    NAODIR=200                                                                  
 INPUT CARD>    NGRFMO(1)=1, 1, 0, 0, 0,   0, 0, 0, 0, 0                                    
 INPUT CARD>    IPIEDA=1                                                                    
 INPUT CARD>    NPRINT=9                                                                    
 INPUT CARD> $END                                                                           
 INPUT CARD> $FMO                                                                           
 INPUT CARD>      SCFTYP(1)=RHF                                                             
 INPUT CARD>      MODGRD=10                                                                 
 INPUT CARD>      MODMUL=0                                                                  
 INPUT CARD>      MAXCAO=5                                                                  
 INPUT CARD>      MAXBND=13                                                                 
 INPUT CARD>      NLAYER=1                                                                  
 INPUT CARD>      MPLEVL(1)=2                                                               
 INPUT CARD>      NFRAG=11                                                                  
 INPUT CARD>      ICHARG(1)=-1, -1, -1, -1, -1, -1, -1, -1, -1, -1, 0                       
 INPUT CARD>      FRGNAM(1)=F1, F2, F3, F4, F5, F6, F7, F8, F9, F10, F11                    
 INPUT CARD>      indat(1)=0                                                                
 INPUT CARD>               1   -35   0                                                      
 INPUT CARD>               36   -66   0                                                     
 INPUT CARD>               67   -97   0                                                     
 INPUT CARD>               98   -127   0                                                    
 INPUT CARD>               128   -157   0                                                   
 INPUT CARD>               158   -188   0                                                   
 INPUT CARD>               189   -219   0                                                   
 INPUT CARD>               220   -252   0                                                   
 INPUT CARD>               253   -285   0                                                   
 INPUT CARD>               286   -319   0                                                   
 INPUT CARD>               320   -346   0                                                   
 INPUT CARD> $END                                                                           
 INPUT CARD>                                                                                
 INPUT CARD> $FMOBND                                                                        
 INPUT CARD>   -36   35       6-31G*    MINI                                                
 INPUT CARD>   -67   66       6-31G*    MINI                                                
 INPUT CARD>   -98   97       6-31G*    MINI                                                
 INPUT CARD>   -128   127       6-31G*    MINI                                              
 INPUT CARD>   -158   157       6-31G*    MINI                                              
 INPUT CARD>   -189   188       6-31G*    MINI                                              
 INPUT CARD>   -220   219       6-31G*    MINI                                              
 INPUT CARD>   -253   252       6-31G*    MINI                                              
 INPUT CARD>   -286   285       6-31G*    MINI                                              


 -------------------------------------------------------------
 GROUP DDI, PROGRAMMED BY: RYAN M. OLSON AND DMITRI G. FEDOROV
        FEDOROV ET AL., J. COMPUT. CHEM., 25 (2004) 872.
 -------------------------------------------------------------

 -------------------------------------------------------
 GDDI: INITIALIZATION COMPLETED FOR GROUP     1 OF     1
 WITH    16 PROCESSES BALTYP=DLB   global rank=        0
 -------------------------------------------------------

   63000000 WORDS OF MEMORY AVAILABLE


     RUN TITLE
     ---------
  FMO calculation                                                                

 THE POINT GROUP OF THE MOLECULE IS C1      
 THE ORDER OF THE PRINCIPAL AXIS IS     0

 ATOM   ATOMIC CHARGE
 H.1-1       1.0
 O.1-1       8.0
 C.1-1       6.0
 N.1-1       7.0
 P.1-1      15.0

     ATOMIC BASIS SET LIBRARY
     ----------------
 THE CONTRACTED PRIMITIVE FUNCTIONS HAVE BEEN UNNORMALIZED
 THE CONTRACTED BASIS FUNCTIONS ARE NOW NORMALIZED TO UNITY

  SHELL TYPE  PRIMITIVE        EXPONENT          CONTRACTION COEFFICIENT(S)

 H.1-1     

      1   S       1            18.7311370    0.033494604338
      1   S       2             2.8253944    0.234726953484
      1   S       3             0.6401217    0.813757326146

      2   S       4             0.1612778    1.000000000000

 O.1-1     

      3   S       5          5484.6716600    0.001831074430
      3   S       6           825.2349460    0.013950172200
      3   S       7           188.0469580    0.068445078098
      3   S       8            52.9645000    0.232714335992
      3   S       9            16.8975704    0.470192897984
      3   S      10             5.7996353    0.358520852987

      4   L      11            15.5396162   -0.110777549525    0.070874268231
      4   L      12             3.5999336   -0.148026262701    0.339752839147
      4   L      13             1.0137618    1.130767015354    0.727158577316

      5   L      14             0.2700058    1.000000000000    1.000000000000

      6   D      15             0.8000000    1.000000000000

 C.1-1     

      7   S      16          3047.5248800    0.001834737132
      7   S      17           457.3695180    0.014037322813
      7   S      18           103.9486850    0.068842622264
      7   S      19            29.2101553    0.232184443216
      7   S      20             9.2866630    0.467941348435
      7   S      21             3.1639270    0.362311985337

      8   L      22             7.8682723   -0.119332419775    0.068999066591
      8   L      23             1.8812885   -0.160854151696    0.316423960957
      8   L      24             0.5442493    1.143456437840    0.744308290898

      9   L      25             0.1687145    1.000000000000    1.000000000000

     10   D      26             0.8000000    1.000000000000

 N.1-1     

     11   S      27          4173.5114600    0.001834772160
     11   S      28           627.4579110    0.013994627002
     11   S      29           142.9020930    0.068586551812
     11   S      30            40.2343293    0.232240873040
     11   S      31            12.8202129    0.469069948082
     11   S      32             4.3904370    0.360455199063

     12   L      33            11.6263619   -0.114961181702    0.067579743878
     12   L      34             2.7162798   -0.169117478561    0.323907295893
     12   L      35             0.7722184    1.145851947027    0.740895139755

     13   L      36             0.2120315    1.000000000000    1.000000000000

     14   D      37             0.8000000    1.000000000000

 P.1-1     

     15   S      38         19413.3000000    0.001851598923
     15   S      39          2909.4200000    0.014206191735
     15   S      40           661.3640000    0.069999459277
     15   S      41           185.7590000    0.240078860331
     15   S      42            59.1943000    0.484761717984
     15   S      43            20.0310000    0.335199804993

     16   L      44           339.4780000   -0.002782170105    0.004564616191
     16   L      45            81.0101000   -0.036049901354    0.033693571881
     16   L      46            25.8780000   -0.116631004382    0.139754883368
     16   L      47             9.4522100    0.096832803638    0.339361716786
     16   L      48             3.6656600    0.614418023082    0.450920623685
     16   L      49             1.4674600    0.403798015170    0.238585800889

     17   L      50             2.1562300   -0.252924113863   -0.017765312733
     17   L      51             0.7489970    0.032851844678    0.274058196433
     17   L      52             0.2831450    1.081254761783    0.785421562957

     18   L      53             0.0998317    1.000000000000    1.000000000000

     19   D      54             0.5500000    1.000000000000

 TOTAL NUMBER OF BASIS SET SHELLS             =   19
 NUMBER OF CARTESIAN GAUSSIAN BASIS FUNCTIONS =   66

     $CONTRL OPTIONS
     ---------------
 SCFTYP=RHF          RUNTYP=ENERGY       EXETYP=RUN     
 MPLEVL=       0     CITYP =NONE         CCTYP =NONE         VBTYP =NONE    
 DFTTYP=NONE         TDDFT =NONE    
 MULT  =       1     ICHARG=       0     NZVAR =       0     COORD =UNIQUE  
 PP    =NONE         RELWFN=NONE         LOCAL =NONE         NUMGRD=       F
 ISPHER=       1     NOSYM =       0     MAXIT =     200     UNITS =ANGS    
 PLTORB=       F     MOLPLT=       F     AIMPAC=       F     FRIEND=        
 NPRINT=      -5     IREST =       0     GEOM  =INPUT   
 NORMF =       0     NORMP =       0     ITOL  =      24     ICUT  =      12
 INTTYP=BEST         GRDTYP=BEST         QMTTOL= 1.0E-06

     $SYSTEM OPTIONS
     ---------------
  REPLICATED MEMORY=    63000000 WORDS (ON EVERY NODE).
 DISTRIBUTED MEMDDI=          63 MILLION WORDS IN AGGREGATE,
 MEMDDI DISTRIBUTED OVER  16 PROCESSORS IS     3937500 WORDS/PROCESSOR.
 TOTAL MEMORY REQUESTED ON EACH PROCESSOR=    66937500 WORDS.
 TIMLIM=      525600.00 MINUTES, OR     365.0 DAYS.
 PARALL= T  BALTYP=  DLB     KDIAG=    0  COREFL= F
 MXSEQ2=     300 MXSEQ3=     150  mem10=         0

 ** LOOKING UP INTERNALLY STORED DATA FOR SOLVENT=WATER    **
 OPTICAL AND PHYSICAL CONSTANTS:
 EPS= 78.390; EPSINF=  1.776; RSOLV=  1.385 A; VMOL=  18.070 ML/MOL;
 TCE= .25700E-03 1/K; STEN= 71.810 DYN/CM;  DSTEN=  0.6500; CMF=  1.2770


     -----------------------------------
     INPUT FOR PCM SOLVATION CALCULATION 
     -----------------------------------
     IEF   =     -10
     ICOMP =       2     IFIELD=       0     ICAV  =       1
     IDISP =       1     IREP  =       0     IDP   =       0

     SOLVNT=WATER        EPS   = 78.3900     EPSINF=  1.7760
     VMOL  = 18.0700     TCE   =  0.00025700 STEN  = 71.8100
     DSTEN =  0.6500     CMF   =  1.2770     RSOLV =  1.3850

     NESFP =       0
     OMEGA = 40.0000     RET   =100.0000     FRO   =  0.7000

     TABS  =298.0000     IPRINT=       0

     --------------------------------
     INPUT FOR ITERATIVE C-PCM METHOD 
     --------------------------------
     IPCMIT  =         1     MXDIIS  =        50
     MXITR1  =       200     MXITR2  =       200
     THRES   = 0.100E-09     IMUL    =         3
     RCUT(1) =   20.0000     RCUT(2) =   50.0000

     IDIRCT  =         1
     IMGABI  =         0     RABI    =    4.0000
     IMGASC  =         0     RASC    =   20.0000
     THRSLS  = 0.500E-03     DENSLS  =    0.0100
     IEFPOL  =         1     REFPOL  =    0.0000

     INPUT FOR ISOTROPIC DIELECTRICS
     -------------------------------
     EPS=    78.39

          ----------------
          PROPERTIES INPUT
          ----------------

     MOMENTS            FIELD           POTENTIAL          DENSITY
 IEMOM =       1   IEFLD =       0   IEPOT =       0   IEDEN =       0
 WHERE =COMASS     WHERE =NUCLEI     WHERE =NUCLEI     WHERE =NUCLEI  
 OUTPUT=BOTH       OUTPUT=BOTH       OUTPUT=NONE       OUTPUT=BOTH    
 IEMINT=       0   IEFINT=       0                     IEDINT=       0
                                                       MORB  =       0
          EXTRAPOLATION IN EFFECT
          SOSCF IN EFFECT
 ORBITAL PRINTING OPTION: NPREO=     1 32767     2     1

     -------------------------------
     INTEGRAL TRANSFORMATION OPTIONS
     -------------------------------
     NWORD  =            0
     CUTOFF = 1.0E-10     MPTRAN =       0
     DIRTRF =       T     AOINTS =DUP     

          ----------------------
          INTEGRAL INPUT OPTIONS
          ----------------------
 NOPK  =       1 NORDER=       0 SCHWRZ=       T

 ..... DONE SETTING UP THE RUN .....
 CPU     0: STEP CPU TIME=     0.04 TOTAL CPU TIME=          0.0 (      0.0 MIN)
 TOTAL WALL CLOCK TIME=          0.1 SECONDS, CPU UTILIZATION IS    50.00%
 CPU     0: STEP CPU TIME=     0.00 TOTAL CPU TIME=          0.0 (      0.0 MIN)
 TOTAL WALL CLOCK TIME=          0.1 SECONDS, CPU UTILIZATION IS    50.00%

                    ----------------------
                    AO INTEGRAL TECHNOLOGY
                    ----------------------
     S,P,L SHELL ROTATED AXIS INTEGRALS, REPROGRAMMED BY
        KAZUYA ISHIMURA (IMS) AND JOSE SIERRA (SYNSTAR).
     S,P,D,L SHELL ROTATED AXIS INTEGRALS PROGRAMMED BY
        KAZUYA ISHIMURA (INSTITUTE FOR MOLECULAR SCIENCE).
     S,P,D,F,G SHELL TO TOTAL QUARTET ANGULAR MOMENTUM SUM 5,
        ERIC PROGRAM BY GRAHAM FLETCHER (ELORET AND NASA ADVANCED
        SUPERCOMPUTING DIVISION, AMES RESEARCH CENTER).
     S,P,D,F,G,L SHELL GENERAL RYS QUADRATURE PROGRAMMED BY
        MICHEL DUPUIS (PACIFIC NORTHWEST NATIONAL LABORATORY).
 Setting modorb=1 flag...
 Setting modorb=1 flag...

          -----------------------
          MP2 CONTROL INFORMATION
          -----------------------
          NACORE =        8  NBCORE =        8
          LMOMP2 =        F  AOINTS = DUP     
          METHOD =        2  NWORD  =               0
          MP2PRP =        F  OSPT   = NONE    
          CUTOFF = 1.00E-12  CPHFBS = BASISAO 
          CODE   = IMS     

          NUMBER OF CORE -A-  ORBITALS =     8
          NUMBER OF CORE -B-  ORBITALS =     8
          NUMBER OF OCC. -A-  ORBITALS =    18
          NUMBER OF OCC. -B-  ORBITALS =    18
          NUMBER OF MOLECULAR ORBITALS =    66
          NUMBER OF   BASIS  FUNCTIONS =    66

 CPU     0: STEP CPU TIME=     0.02 TOTAL CPU TIME=          0.1 (      0.0 MIN)
 TOTAL WALL CLOCK TIME=          0.1 SECONDS, CPU UTILIZATION IS    54.55%
 CPU     0: STEP CPU TIME=     0.00 TOTAL CPU TIME=          0.1 (      0.0 MIN)
 TOTAL WALL CLOCK TIME=          0.1 SECONDS, CPU UTILIZATION IS    54.55%

     INPUT FOR CAVITY DEFINITION 
     ---------------------------
   ATOM               COORDINATES                RADIUS       EPS
      1     -4.7350    -14.8260      9.5910      0.0100     78.3900
      2     -4.2700    -14.2590      8.9460      1.5900     78.3900
      3     -5.2020    -14.0090      7.8850      1.7700     78.3900
      4     -6.1000    -13.4970      8.3000      0.0100     78.3900
      5     -5.5300    -14.9780      7.4590      0.0100     78.3900
      6     -4.6170    -13.1440      6.7610      1.7700     78.3900
      7     -5.3590    -13.0070      5.9440      0.0100     78.3900
      8     -4.3020    -11.8150      7.2820      1.5900     78.3900
      9     -3.1030    -11.3500      6.6820      1.7700     78.3900
     10     -3.3460    -10.3620      6.2210      0.0100     78.3900
     11     -2.0470    -11.1680      7.6830      1.6800     78.3900
     12     -0.2440    -10.4840      8.7410      1.7700     78.3900
     13     -0.9360    -11.2940      9.6370      1.6800     78.3900
     14     -1.9980    -11.6720      8.9630      1.7700     78.3900
     15     -2.7970    -12.3100      9.3500      0.0100     78.3900
     16      1.3610     -9.0370      7.7690      1.6800     78.3900
     17      0.6270     -9.1000      6.6520      1.7700     78.3900
     18      1.0110     -8.5250      5.8010      0.0100     78.3900
     19     -0.5260     -9.7430      6.4340      1.6800     78.3900
     20     -0.9130    -10.4130      7.5310      1.7700     78.3900
     21      0.9470     -9.7330      8.8580      1.7700     78.3900
     22      1.6710     -9.6660      9.9920      1.6800     78.3900
     23      1.4230    -10.2130     10.7930      0.0100     78.3900
     24      2.5640     -9.2100     10.0000      0.0100     78.3900
     25     -2.7150    -12.3340      5.6020      1.7700     78.3900
     26     -1.6160    -12.4120      5.4680      0.0100     78.3900
     27     -3.3210    -11.9760      4.3740      1.5900     78.3900
     28     -3.1210    -12.6960      3.7650      0.0100     78.3900
     29     -3.2940    -13.6340      6.1440      1.7700     78.3900
     30     -2.6740    -14.0030      6.9960      0.0100     78.3900
     31     -3.5420    -14.6410      5.1310      1.5900     78.3900
     32     -2.4770    -15.7910      4.9310      2.1000     78.3900
     33     -1.9840    -16.2360      6.2520      1.5900     78.3900
     34     -3.0850    -16.8150      4.0500      1.5900     78.3900
     35     -1.3260    -15.0420      4.1550      1.5900     78.3900
     36     -1.5630    -14.5010      2.8290      1.7700     78.3900
     37     -2.4950    -13.8920      2.7940      0.0100     78.3900
     38     -1.6700    -15.3290      2.0840      0.0100     78.3900
     39     -0.4040    -13.6020      2.3670      1.7700     78.3900
     40     -0.6210    -13.1450      1.3770      0.0100     78.3900
     41     -0.2010    -12.5160      3.3110      1.5900     78.3900
     42      1.1910    -12.2510      3.4280      1.7700     78.3900
     43      1.3060    -11.1860      3.1190      0.0100     78.3900
     44      1.6960    -12.3950      4.8160      1.6800     78.3900
     45      1.0110    -13.1580      5.7320      1.7700     78.3900
     46      0.1150    -13.6550      5.3570      0.0100     78.3900
     47      1.4200    -13.2460      7.0060      1.7700     78.3900
     48      0.8700    -13.8110      7.7610      0.0100     78.3900
     49      2.8720    -11.7540      5.1880      1.7700     78.3900
     50      3.4850    -11.0790      4.3440      1.5900     78.3900
     51      3.3030    -11.8320      6.4610      1.6800     78.3900
     52      2.6060    -12.5330      7.3660      1.7700     78.3900
     53      3.0380    -12.5430      8.6180      1.6800     78.3900
     54      3.9340    -12.1270      8.7880      0.0100     78.3900
     55      2.8160    -13.3370      9.1890      0.0100     78.3900
     56      1.9250    -13.1280      2.4320      1.7700     78.3900
     57      2.9140    -13.4680      2.8000      0.0100     78.3900
     58      2.0860    -12.4290      1.2110      1.5900     78.3900
     59      2.3800    -13.0690      0.5420      0.0100     78.3900
     60      0.9600    -14.2960      2.2940      1.7700     78.3900
     61      1.0170    -14.9450      3.2020      0.0100     78.3900
     62      1.0740    -15.0240      1.0530      1.5900     78.3900
     63      1.9520    -16.3270      1.0160      2.1000     78.3900
     64      1.8840    -16.9820      2.3380      1.5900     78.3900
     65      1.5430    -17.1150     -0.1670      1.5900     78.3900
     66      3.4150    -15.7930      0.7540      1.5900     78.3900
     67      4.4550    -16.7810      0.5060      1.7700     78.3900
     68      4.2080    -17.4260     -0.3680      0.0100     78.3900
     69      4.5810    -17.4410      1.3970      0.0100     78.3900
     70      5.7990    -16.0970      0.2180      1.7700     78.3900
     71      5.7130    -15.4160     -0.6560      0.0100     78.3900
     72      6.1590    -15.2950      1.3610      1.5900     78.3900
     73      7.5470    -15.3860      1.6130      1.7700     78.3900
     74      7.9050    -14.3290      1.5920      0.0100     78.3900
     75      7.8350    -15.9930      2.9380      1.6800     78.3900
     76      7.0870    -17.0580      3.3970      1.7700     78.3900
     77      6.2670    -17.4060      2.7630      0.0100     78.3900
     78      7.3200    -17.5980      4.6000      1.7700     78.3900
     79      6.7210    -18.4140      4.9960      0.0100     78.3900
     80      8.8590    -15.4740      3.7270      1.7700     78.3900
     81      9.5150    -14.5100      3.3030      1.5900     78.3900
     82      9.1060    -16.0210      4.9370      1.6800     78.3900
     83      8.3700    -17.0480      5.3860      1.7700     78.3900
     84      8.6400    -17.5610      6.5780      1.6800     78.3900
     85      9.3270    -17.1010      7.1520      0.0100     78.3900
     86      8.1230    -18.3230      6.9600      0.0100     78.3900
     87      8.1760    -16.1300      0.4640      1.7700     78.3900
     88      9.0400    -16.7470      0.7760      0.0100     78.3900
     89      8.5880    -15.2180     -0.5430      1.5900     78.3900
     90      7.8060    -14.7650     -0.9000      0.0100     78.3900
     91      7.0170    -17.0130      0.0170      1.7700     78.3900
     92      6.8740    -17.8530      0.7340      0.0100     78.3900
     93      7.1090    -17.4380     -1.3470      1.5900     78.3900
     94      7.5550    -18.8820     -1.7650      2.1000     78.3900
     95      6.3510    -19.5740     -2.2700      1.5900     78.3900
     96      8.7070    -18.8030     -2.6930      1.5900     78.3900
     97      8.0510    -19.5910     -0.4360      1.5900     78.3900
     98      7.8900    -21.0270     -0.3080      1.7700     78.3900
     99      8.5840    -21.5590     -0.9970      0.0100     78.3900
    100      6.8590    -21.3360     -0.5800      0.0100     78.3900
    101      8.1600    -21.5310      1.1230      1.7700     78.3900
    102      7.9040    -22.6100      1.2160      0.0100     78.3900
    103      9.5920    -21.4170      1.3860      1.5900     78.3900
    104      9.8100    -20.9350      2.7010      1.7700     78.3900
    105     10.4930    -21.6700      3.1870      0.0100     78.3900
    106     10.4520    -19.5850      2.7150      1.6800     78.3900
    107     10.6010    -18.8560      1.5550      1.7700     78.3900
    108     10.1630    -19.2980      0.6590      0.0100     78.3900
    109     10.9600    -19.1130      3.9090      1.7700     78.3900
    110     10.8800    -19.7440      4.9570      1.5900     78.3900
    111     11.5730    -17.8880      3.8360      1.6800     78.3900
    112     12.0050    -17.5650      4.6830      0.0100     78.3900
    113     11.8040    -17.1350      2.7060      1.7700     78.3900
    114     12.4460    -16.0900      2.7760      1.5900     78.3900
    115     11.2500    -17.6850      1.5090      1.7700     78.3900
    116     11.3850    -17.1410      0.5790      0.0100     78.3900
    117      8.4760    -20.9520      3.4120      1.7700     78.3900
    118      8.3860    -20.1200      4.1440      0.0100     78.3900
    119      8.2620    -22.1820      4.0770      1.5900     78.3900
    120      7.3530    -22.1040      4.4140      0.0100     78.3900
    121      7.4710    -20.7620      2.2700      1.7700     78.3900
    122      7.4430    -19.6910      1.9710      0.0100     78.3900
    123      6.1260    -21.2830      2.5050      1.5900     78.3900
    124      5.2850    -20.6670      3.6960      2.1000     78.3900
    125      6.1190    -20.6760      4.9160      1.5900     78.3900
    126      4.7200    -19.3880      3.2340      1.5900     78.3900
    127      4.1780    -21.7500      3.9170      1.5900     78.3900
    128      3.0650    -21.9880      3.0450      1.7700     78.3900
    129      3.3900    -22.3660      2.0430      0.0100     78.3900
    130      2.4990    -21.0440      2.8930      0.0100     78.3900
    131      2.1110    -23.0230      3.6590      1.7700     78.3900
    132      1.2370    -23.2010      2.9980      0.0100     78.3900
    133      2.7970    -24.3000      3.7830      1.5900     78.3900
    134      2.4080    -24.9450      4.9820      1.7700     78.3900
    135      1.9780    -25.9250      4.6560      0.0100     78.3900
    136      3.5660    -25.1740      5.8920      1.6800     78.3900
    137      4.7210    -24.4310      5.7710      1.7700     78.3900
    138      4.7270    -23.6960      4.9680      0.0100     78.3900
    139      3.4660    -26.1660      6.8430      1.7700     78.3900
    140      2.4560    -26.8500      6.9800      1.5900     78.3900
    141      4.5850    -26.3410      7.6170      1.6800     78.3900
    142      4.5510    -27.0990      8.2870      0.0100     78.3900
    143      5.7840    -25.6650      7.5220      1.7700     78.3900
    144      6.7340    -25.9910      8.2320      1.5900     78.3900
    145      5.8030    -24.6300      6.5340      1.7700     78.3900
    146      6.7210    -24.0680      6.3820      0.0100     78.3900
    147      1.3050    -24.1070      5.6190      1.7700     78.3900
    148      1.3640    -24.1120      6.7280      0.0100     78.3900
    149      0.0320    -24.5780      5.2050      1.5900     78.3900
    150     -0.6240    -23.9070      5.4560      0.0100     78.3900
    151      1.6030    -22.7110      5.0760      1.7700     78.3900
    152      2.4690    -22.2810      5.6260      0.0100     78.3900
    153      0.4580    -21.8180      5.0230      1.5900     78.3900
    154      0.2550    -20.7800      6.1970      2.1000     78.3900
    155     -0.9740    -20.0190      5.8880      1.5900     78.3900
    156      0.2540    -21.5220      7.4770      1.5900     78.3900
    157      1.4890    -19.7960      6.1560      1.5900     78.3900
    158      1.4180    -18.5310      6.8680      1.7700     78.3900
    159      0.4350    -18.3650      7.3690      0.0100     78.3900
    160      1.5400    -17.6920      6.1490      0.0100     78.3900
    161      2.5160    -18.4680      7.9450      1.7700     78.3900
    162      2.6290    -19.4610      8.4300      0.0100     78.3900
    163      3.7780    -18.0720      7.3510      1.5900     78.3900
    164      4.0710    -16.7340      7.7020      1.7700     78.3900
    165      4.9060    -16.8140      8.4360      0.0100     78.3900
    166      4.4700    -15.9080      6.5320      1.6800     78.3900
    167      3.9310    -16.1600      5.2830      1.7700     78.3900
    168      3.2460    -17.0120      5.2000      0.0100     78.3900
    169      4.2750    -15.4170      4.2190      1.7700     78.3900
    170      3.8910    -15.6160      3.2210      0.0100     78.3900
    171      5.3570    -14.8480      6.6970      1.7700     78.3900
    172      5.8360    -14.6210      7.8180      1.5900     78.3900
    173      5.6920    -14.0900      5.6290      1.6800     78.3900
    174      5.1840    -14.3410      4.4290      1.7700     78.3900
    175      5.5780    -13.5530      3.4330      1.6800     78.3900
    176      6.2910    -12.8870      3.6330      0.0100     78.3900
    177      5.5210    -13.9060      2.4950      0.0100     78.3900
    178      2.8610    -16.1680      8.4100      1.7700     78.3900
    179      2.1430    -15.7390      7.6760      0.0100     78.3900
    180      3.2150    -15.2090      9.3780      1.5900     78.3900
    181      3.3870    -15.6960     10.1980      0.0100     78.3900
    182      2.2560    -17.4190      9.0440      1.7700     78.3900
    183      1.1510    -17.2950      9.1360      0.0100     78.3900
    184      2.8430    -17.8240     10.3080      1.5900     78.3900
    185      2.2340    -17.3660     11.6820      2.1000     78.3900
    186      2.3450    -15.8990     11.8070      1.5900     78.3900
    187      0.8860    -17.9540     11.8340      1.5900     78.3900
    188      3.2030    -18.0120     12.7410      1.5900     78.3900
    189      3.2940    -19.4400     12.8750      1.7700     78.3900
    190      2.8320    -19.9880     12.0190      0.0100     78.3900
    191      2.7430    -19.7510     13.7920      0.0100     78.3900
    192      4.7570    -19.8510     13.0330      1.7700     78.3900
    193      5.1820    -19.4190     13.9620      0.0100     78.3900
    194      4.8170    -21.2970     13.1100      1.5900     78.3900
    195      5.3750    -21.8090     11.9090      1.7700     78.3900
    196      6.4190    -22.0730     12.1930      0.0100     78.3900
    197      4.6350    -22.9930     11.4310      1.6800     78.3900
    198      3.2760    -22.8960     11.2730      1.7700     78.3900
    199      2.8280    -21.9330     11.5160      0.0100     78.3900
    200      2.5470    -23.9460     10.8780      1.7700     78.3900
    201      1.4670    -23.8910     10.7640      0.0100     78.3900
    202      5.2900    -24.1890     11.1410      1.7700     78.3900
    203      6.5250    -24.2510     11.2600      1.5900     78.3900
    204      4.5620    -25.2700     10.7740      1.6800     78.3900
    205      3.2270    -25.1750     10.6410      1.7700     78.3900
    206      2.5310    -26.2560     10.2950      1.6800     78.3900
    207      3.0070    -27.1270     10.1640      0.0100     78.3900
    208      1.5340    -26.2390     10.2070      0.0100     78.3900
    209      5.4310    -20.6760     10.9050      1.7700     78.3900
    210      4.4680    -20.5550     10.3620      0.0100     78.3900
    211      6.5000    -20.8220      9.9980      1.5900     78.3900
    212      7.3140    -20.6490     10.4950      0.0100     78.3900
    213      5.6540    -19.4820     11.8330      1.7700     78.3900
    214      5.2070    -18.5930     11.3250      0.0100     78.3900
    215      7.0500    -19.2730     12.2280      1.5900     78.3900
    216      7.5650    -17.7810     12.2820      2.1000     78.3900
    217      7.0670    -17.0670     11.0960      1.5900     78.3900
    218      7.2300    -17.2210     13.6080      1.5900     78.3900
    219      9.1280    -17.9320     12.1640      1.5900     78.3900
    220      9.9680    -18.1610     13.3220      1.7700     78.3900
    221     10.1540    -19.2530     13.4380      0.0100     78.3900
    222      9.5040    -17.8020     14.2700      0.0100     78.3900
    223     11.3280    -17.4500     13.1970      1.7700     78.3900
    224     11.9920    -17.7240     14.0490      0.0100     78.3900
    225     11.9980    -17.8500     11.9660      1.5900     78.3900
    226     12.6410    -16.7200     11.3960      1.7700     78.3900
    227     13.7110    -17.0000     11.2640      0.0100     78.3900
    228     12.0790    -16.3840     10.0840      1.6800     78.3900
    229     11.8280    -15.5920      8.0490      1.7700     78.3900
    230     10.7090    -16.3750      8.2990      1.6800     78.3900
    231     10.9050    -16.8250      9.5170      1.7700     78.3900
    232     10.2310    -17.4910     10.0600      0.0100     78.3900
    233     13.4420    -14.2230      6.9830      1.6800     78.3900
    234     14.1180    -14.2560      8.1330      1.7700     78.3900
    235     15.0610    -13.6970      8.1320      0.0100     78.3900
    236     13.8500    -14.9410      9.2500      1.6800     78.3900
    237     12.6730    -15.5820      9.1450      1.7700     78.3900
    238     12.2590    -14.8810      6.9100      1.7700     78.3900
    239     11.6020    -14.8600      5.7430      1.6800     78.3900
    240     10.6630    -15.2120      5.6220      0.0100     78.3900
    241     11.9560    -14.2980      4.9990      0.0100     78.3900
    242     12.5400    -15.5790     12.3850      1.7700     78.3900
    243     12.4560    -14.5880     11.8890      0.0100     78.3900
    244     13.6570    -15.5960     13.2560      1.5900     78.3900
    245     13.5080    -14.9050     13.9210      0.0100     78.3900
    246     11.2460    -15.9160     13.1210      1.7700     78.3900
    247     10.3610    -15.6840     12.4860      0.0100     78.3900
    248     11.1340    -15.3540     14.4480      1.5900     78.3900
    249     10.7040    -13.8440     14.6250      2.1000     78.3900
    250      9.5420    -13.5770     13.7550      1.5900     78.3900
    251     10.5350    -13.5770     16.0690      1.5900     78.3900
    252     11.9280    -13.0010     14.1220      1.5900     78.3900
    253     11.8180    -11.5680     13.9040      1.7700     78.3900
    254     12.1780    -11.0240     14.8040      0.0100     78.3900
    255     10.7610    -11.2470     13.7330      0.0100     78.3900
    256     12.6570    -11.0720     12.7030      1.7700     78.3900
    257     13.6960    -10.8380     13.0170      0.0100     78.3900
    258     12.7570    -12.1190     11.6940      1.5900     78.3900
    259     12.5730    -11.5800     10.4090      1.7700     78.3900
    260     13.4250    -11.9330      9.7820      0.0100     78.3900
    261     11.3200    -12.0480      9.8230      1.6800     78.3900
    262      9.7500    -12.5290      8.3780      1.7700     78.3900
    263      9.3000    -12.9930      9.6050      1.6800     78.3900
    264     10.2640    -12.6870     10.4340      1.7700     78.3900
    265     10.2720    -12.9120     11.5040      0.0100     78.3900
    266      9.9020    -12.0010      6.0720      1.6800     78.3900
    267     11.0900    -11.4680      6.3560      1.7700     78.3900
    268     11.6300    -11.0360      5.5090      0.0100     78.3900
    269     11.7150    -11.3750      7.5320      1.6800     78.3900
    270     10.9880    -11.9420      8.5040      1.7700     78.3900
    271      9.1940    -12.5550      7.0860      1.7700     78.3900
    272      7.9940    -13.0800      6.8700      1.6800     78.3900
    273      7.4770    -13.5430      7.5920      0.0100     78.3900
    274      7.6130    -13.2450      5.9630      0.0100     78.3900
    275     12.6210    -10.0810     10.5400      1.7700     78.3900
    276     11.9790     -9.5770      9.7920      0.0100     78.3900
    277     13.9610     -9.6310     10.4150      1.5900     78.3900
    278     14.0030     -8.7230     10.7480      0.0100     78.3900
    279     12.0670     -9.8700     11.9390      1.7700     78.3900
    280     10.9590    -10.0020     11.9380      0.0100     78.3900
    281     12.4820     -8.6310     12.5410      1.5900     78.3900
    282     11.5350     -7.3800     12.6070      2.1000     78.3900
    283     10.3110     -7.7710     13.3400      1.5900     78.3900
    284     12.3160     -6.2480     13.1500      1.5900     78.3900
    285     11.1410     -7.0640     11.1120      1.5900     78.3900
    286     12.1130     -6.5250     10.1850      1.7700     78.3900
    287     13.0540     -7.1200     10.1890      0.0100     78.3900
    288     12.3700     -5.4770     10.4630      0.0100     78.3900
    289     11.5850     -6.5140      8.7400      1.7700     78.3900
    290     12.3390     -6.0760      8.0510      0.0100     78.3900
    291     11.3540     -7.8770      8.2860      1.5900     78.3900
    292     10.1520     -7.9340      7.5390      1.7700     78.3900
    293     10.3920     -8.4500      6.5820      0.0100     78.3900
    294      9.1130     -8.6960      8.2460      1.6800     78.3900
    295      7.9890     -9.2500      7.6940      1.7700     78.3900
    296      6.0380     -9.9940      4.9350      1.6800     78.3900
    297      6.5080     -9.5160      4.1920      0.0100     78.3900
    298      5.1610    -10.4440      4.7510      0.0100     78.3900
    299      7.6280     -9.1820      6.4010      1.6800     78.3900
    300      6.5300     -9.8990      6.1540      1.7700     78.3900
    301      5.8240    -10.5580      7.1260      1.6800     78.3900
    302      5.0050    -11.0780      6.8510      0.0100     78.3900
    303      6.1650    -10.6320      8.4680      1.7700     78.3900
    304      5.4820    -11.2560      9.2880      1.5900     78.3900
    305      7.3420     -9.8860      8.7380      1.7700     78.3900
    306      8.0290     -9.7040      9.9280      1.6800     78.3900
    307      9.0720     -8.9960      9.5880      1.7700     78.3900
    308      9.8620     -8.6830     10.2650      0.0100     78.3900
    309      9.7340     -6.5100      7.2690      1.7700     78.3900
    310      8.6380     -6.4040      7.1510      0.0100     78.3900
    311     10.3810     -6.0470      6.1020      1.5900     78.3900
    312     10.1720     -5.1100      6.0160      0.0100     78.3900
    313     10.2480     -5.7970      8.5170      1.7700     78.3900
    314      9.6110     -6.0510      9.3960      0.0100     78.3900
    315     10.4750     -4.3730      8.3680      1.5900     78.3900
    316      9.3460     -3.3750      8.8260      2.1000     78.3900
    317      8.8410     -3.7770     10.1530      1.5900     78.3900
    318      9.8470     -1.9910      8.6880      1.5900     78.3900
    319      8.1940     -3.6000      7.7740      1.5900     78.3900
    320      8.4160     -3.2450      6.3860      1.7700     78.3900
    321      9.3290     -3.7260      5.9770      0.0100     78.3900
    322      8.5510     -2.1420      6.2860      0.0100     78.3900
    323      7.2310     -3.6540      5.5000      1.7700     78.3900
    324      7.3860     -3.3300      4.4510      0.0100     78.3900
    325      7.0790     -5.1050      5.4790      1.5900     78.3900
    326      5.6900     -5.4280      5.4970      1.7700     78.3900
    327      5.5190     -6.0720      4.6010      0.0100     78.3900
    328      5.3090     -6.1730      6.7320      1.6800     78.3900
    329      6.0900     -6.1240      7.8660      1.7700     78.3900
    330      6.9780     -5.5020      7.7920      0.0100     78.3900
    331      4.1550     -6.9220      6.7090      1.7700     78.3900
    332      3.4180     -6.9700      5.7310      1.5900     78.3900
    333      3.8860     -7.6080      7.8650      1.6800     78.3900
    334      3.0300     -8.1510      7.8550      0.0100     78.3900
    335      4.6140     -7.5970      9.0350      1.7700     78.3900
    336      4.2180     -8.2300     10.0100      1.5900     78.3900
    337      5.8010     -6.8000      8.9850      1.7700     78.3900
    338      6.4340     -6.7470      9.8700      0.0100     78.3900
    339      4.9190     -4.1240      5.3280      1.7700     78.3900
    340      3.9460     -4.1490      5.8620      0.0100     78.3900
    341      4.7160     -3.8520      3.9470      1.5900     78.3900
    342      4.3770     -2.9460      3.8480      0.0100     78.3900
    343      5.8740     -3.1310      5.9800      1.7700     78.3900
    344      5.8320     -3.2230      7.0860      0.0100     78.3900
    345      5.6890     -1.7650      5.5710      1.5900     78.3900
    346      4.8390     -1.4350      5.9040      0.0100     78.3900

     ----------------------------
     INPUT FOR TESSERA DEFINITION
     ----------------------------
     NTSALL  =        60     MTHALL  =         4
     MTHAUT  =         0     AUTFRE  =    2.0000
     NTSFRZ  =        60     KEEPSM  =         0
     AREAKP  =   10.0000     BONDRY  =    1.0000
     AREATL  =    0.0100

     SPHERE     INITS       METHOD
          1        60       FIXPVA
          2        60       FIXPVA
          3        60       FIXPVA
          4        60       FIXPVA
          5        60       FIXPVA
          6        60       FIXPVA
          7        60       FIXPVA
          8        60       FIXPVA
          9        60       FIXPVA
         10        60       FIXPVA
         11        60       FIXPVA
         12        60       FIXPVA
         13        60       FIXPVA
         14        60       FIXPVA
         15        60       FIXPVA
         16        60       FIXPVA
         17        60       FIXPVA
         18        60       FIXPVA
         19        60       FIXPVA
         20        60       FIXPVA
         21        60       FIXPVA
         22        60       FIXPVA
         23        60       FIXPVA
         24        60       FIXPVA
         25        60       FIXPVA
         26        60       FIXPVA
         27        60       FIXPVA
         28        60       FIXPVA
         29        60       FIXPVA
         30        60       FIXPVA
         31        60       FIXPVA
         32        60       FIXPVA
         33        60       FIXPVA
         34        60       FIXPVA
         35        60       FIXPVA
         36        60       FIXPVA
         37        60       FIXPVA
         38        60       FIXPVA
         39        60       FIXPVA
         40        60       FIXPVA
         41        60       FIXPVA
         42        60       FIXPVA
         43        60       FIXPVA
         44        60       FIXPVA
         45        60       FIXPVA
         46        60       FIXPVA
         47        60       FIXPVA
         48        60       FIXPVA
         49        60       FIXPVA
         50        60       FIXPVA
         51        60       FIXPVA
         52        60       FIXPVA
         53        60       FIXPVA
         54        60       FIXPVA
         55        60       FIXPVA
         56        60       FIXPVA
         57        60       FIXPVA
         58        60       FIXPVA
         59        60       FIXPVA
         60        60       FIXPVA
         61        60       FIXPVA
         62        60       FIXPVA
         63        60       FIXPVA
         64        60       FIXPVA
         65        60       FIXPVA
         66        60       FIXPVA
         67        60       FIXPVA
         68        60       FIXPVA
         69        60       FIXPVA
         70        60       FIXPVA
         71        60       FIXPVA
         72        60       FIXPVA
         73        60       FIXPVA
         74        60       FIXPVA
         75        60       FIXPVA
         76        60       FIXPVA
         77        60       FIXPVA
         78        60       FIXPVA
         79        60       FIXPVA
         80        60       FIXPVA
         81        60       FIXPVA
         82        60       FIXPVA
         83        60       FIXPVA
         84        60       FIXPVA
         85        60       FIXPVA
         86        60       FIXPVA
         87        60       FIXPVA
         88        60       FIXPVA
         89        60       FIXPVA
         90        60       FIXPVA
         91        60       FIXPVA
         92        60       FIXPVA
         93        60       FIXPVA
         94        60       FIXPVA
         95        60       FIXPVA
         96        60       FIXPVA
         97        60       FIXPVA
         98        60       FIXPVA
         99        60       FIXPVA
        100        60       FIXPVA
        101        60       FIXPVA
        102        60       FIXPVA
        103        60       FIXPVA
        104        60       FIXPVA
        105        60       FIXPVA
        106        60       FIXPVA
        107        60       FIXPVA
        108        60       FIXPVA
        109        60       FIXPVA
        110        60       FIXPVA
        111        60       FIXPVA
        112        60       FIXPVA
        113        60       FIXPVA
        114        60       FIXPVA
        115        60       FIXPVA
        116        60       FIXPVA
        117        60       FIXPVA
        118        60       FIXPVA
        119        60       FIXPVA
        120        60       FIXPVA
        121        60       FIXPVA
        122        60       FIXPVA
        123        60       FIXPVA
        124        60       FIXPVA
        125        60       FIXPVA
        126        60       FIXPVA
        127        60       FIXPVA
        128        60       FIXPVA
        129        60       FIXPVA
        130        60       FIXPVA
        131        60       FIXPVA
        132        60       FIXPVA
        133        60       FIXPVA
        134        60       FIXPVA
        135        60       FIXPVA
        136        60       FIXPVA
        137        60       FIXPVA
        138        60       FIXPVA
        139        60       FIXPVA
        140        60       FIXPVA
        141        60       FIXPVA
        142        60       FIXPVA
        143        60       FIXPVA
        144        60       FIXPVA
        145        60       FIXPVA
        146        60       FIXPVA
        147        60       FIXPVA
        148        60       FIXPVA
        149        60       FIXPVA
        150        60       FIXPVA
        151        60       FIXPVA
        152        60       FIXPVA
        153        60       FIXPVA
        154        60       FIXPVA
        155        60       FIXPVA
        156        60       FIXPVA
        157        60       FIXPVA
        158        60       FIXPVA
        159        60       FIXPVA
        160        60       FIXPVA
        161        60       FIXPVA
        162        60       FIXPVA
        163        60       FIXPVA
        164        60       FIXPVA
        165        60       FIXPVA
        166        60       FIXPVA
        167        60       FIXPVA
        168        60       FIXPVA
        169        60       FIXPVA
        170        60       FIXPVA
        171        60       FIXPVA
        172        60       FIXPVA
        173        60       FIXPVA
        174        60       FIXPVA
        175        60       FIXPVA
        176        60       FIXPVA
        177        60       FIXPVA
        178        60       FIXPVA
        179        60       FIXPVA
        180        60       FIXPVA
        181        60       FIXPVA
        182        60       FIXPVA
        183        60       FIXPVA
        184        60       FIXPVA
        185        60       FIXPVA
        186        60       FIXPVA
        187        60       FIXPVA
        188        60       FIXPVA
        189        60       FIXPVA
        190        60       FIXPVA
        191        60       FIXPVA
        192        60       FIXPVA
        193        60       FIXPVA
        194        60       FIXPVA
        195        60       FIXPVA
        196        60       FIXPVA
        197        60       FIXPVA
        198        60       FIXPVA
        199        60       FIXPVA
        200        60       FIXPVA
        201        60       FIXPVA
        202        60       FIXPVA
        203        60       FIXPVA
        204        60       FIXPVA
        205        60       FIXPVA
        206        60       FIXPVA
        207        60       FIXPVA
        208        60       FIXPVA
        209        60       FIXPVA
        210        60       FIXPVA
        211        60       FIXPVA
        212        60       FIXPVA
        213        60       FIXPVA
        214        60       FIXPVA
        215        60       FIXPVA
        216        60       FIXPVA
        217        60       FIXPVA
        218        60       FIXPVA
        219        60       FIXPVA
        220        60       FIXPVA
        221        60       FIXPVA
        222        60       FIXPVA
        223        60       FIXPVA
        224        60       FIXPVA
        225        60       FIXPVA
        226        60       FIXPVA
        227        60       FIXPVA
        228        60       FIXPVA
        229        60       FIXPVA
        230        60       FIXPVA
        231        60       FIXPVA
        232        60       FIXPVA
        233        60       FIXPVA
        234        60       FIXPVA
        235        60       FIXPVA
        236        60       FIXPVA
        237        60       FIXPVA
        238        60       FIXPVA
        239        60       FIXPVA
        240        60       FIXPVA
        241        60       FIXPVA
        242        60       FIXPVA
        243        60       FIXPVA
        244        60       FIXPVA
        245        60       FIXPVA
        246        60       FIXPVA
        247        60       FIXPVA
        248        60       FIXPVA
        249        60       FIXPVA
        250        60       FIXPVA
        251        60       FIXPVA
        252        60       FIXPVA
        253        60       FIXPVA
        254        60       FIXPVA
        255        60       FIXPVA
        256        60       FIXPVA
        257        60       FIXPVA
        258        60       FIXPVA
        259        60       FIXPVA
        260        60       FIXPVA
        261        60       FIXPVA
        262        60       FIXPVA
        263        60       FIXPVA
        264        60       FIXPVA
        265        60       FIXPVA
        266        60       FIXPVA
        267        60       FIXPVA
        268        60       FIXPVA
        269        60       FIXPVA
        270        60       FIXPVA
        271        60       FIXPVA
        272        60       FIXPVA
        273        60       FIXPVA
        274        60       FIXPVA
        275        60       FIXPVA
        276        60       FIXPVA
        277        60       FIXPVA
        278        60       FIXPVA
        279        60       FIXPVA
        280        60       FIXPVA
        281        60       FIXPVA
        282        60       FIXPVA
        283        60       FIXPVA
        284        60       FIXPVA
        285        60       FIXPVA
        286        60       FIXPVA
        287        60       FIXPVA
        288        60       FIXPVA
        289        60       FIXPVA
        290        60       FIXPVA
        291        60       FIXPVA
        292        60       FIXPVA
        293        60       FIXPVA
        294        60       FIXPVA
        295        60       FIXPVA
        296        60       FIXPVA
        297        60       FIXPVA
        298        60       FIXPVA
        299        60       FIXPVA
        300        60       FIXPVA
        301        60       FIXPVA
        302        60       FIXPVA
        303        60       FIXPVA
        304        60       FIXPVA
        305        60       FIXPVA
        306        60       FIXPVA
        307        60       FIXPVA
        308        60       FIXPVA
        309        60       FIXPVA
        310        60       FIXPVA
        311        60       FIXPVA
        312        60       FIXPVA
        313        60       FIXPVA
        314        60       FIXPVA
        315        60       FIXPVA
        316        60       FIXPVA
        317        60       FIXPVA
        318        60       FIXPVA
        319        60       FIXPVA
        320        60       FIXPVA
        321        60       FIXPVA
        322        60       FIXPVA
        323        60       FIXPVA
        324        60       FIXPVA
        325        60       FIXPVA
        326        60       FIXPVA
        327        60       FIXPVA
        328        60       FIXPVA
        329        60       FIXPVA
        330        60       FIXPVA
        331        60       FIXPVA
        332        60       FIXPVA
        333        60       FIXPVA
        334        60       FIXPVA
        335        60       FIXPVA
        336        60       FIXPVA
        337        60       FIXPVA
        338        60       FIXPVA
        339        60       FIXPVA
        340        60       FIXPVA
        341        60       FIXPVA
        342        60       FIXPVA
        343        60       FIXPVA
        344        60       FIXPVA
        345        60       FIXPVA
        346        60       FIXPVA

     ------------------------------
      FIXPVA TESSELLATION FOR PCM
         PEIFENG SU AND HUI LI
     UNIVERSITY OF NEBRASKA-LINCOLN
     ------------------------------


 PCM DIMENSIONS: MXSP=   346, MXTS=     13840, MEMORY=        142209

     INPUT FOR CAVITY DEFINITION 
     ---------------------------
   ATOM               COORDINATES                RADIUS       EPS
      1     -4.7350    -14.8260      9.5910      0.0100     78.3900
      2     -4.2700    -14.2590      8.9460      1.5900     78.3900
      3     -5.2020    -14.0090      7.8850      1.7700     78.3900
      4     -6.1000    -13.4970      8.3000      0.0100     78.3900
      5     -5.5300    -14.9780      7.4590      0.0100     78.3900
      6     -4.6170    -13.1440      6.7610      1.7700     78.3900
      7     -5.3590    -13.0070      5.9440      0.0100     78.3900
      8     -4.3020    -11.8150      7.2820      1.5900     78.3900
      9     -3.1030    -11.3500      6.6820      1.7700     78.3900
     10     -3.3460    -10.3620      6.2210      0.0100     78.3900
     11     -2.0470    -11.1680      7.6830      1.6800     78.3900
     12     -0.2440    -10.4840      8.7410      1.7700     78.3900
     13     -0.9360    -11.2940      9.6370      1.6800     78.3900
     14     -1.9980    -11.6720      8.9630      1.7700     78.3900
     15     -2.7970    -12.3100      9.3500      0.0100     78.3900
     16      1.3610     -9.0370      7.7690      1.6800     78.3900
     17      0.6270     -9.1000      6.6520      1.7700     78.3900
     18      1.0110     -8.5250      5.8010      0.0100     78.3900
     19     -0.5260     -9.7430      6.4340      1.6800     78.3900
     20     -0.9130    -10.4130      7.5310      1.7700     78.3900
     21      0.9470     -9.7330      8.8580      1.7700     78.3900
     22      1.6710     -9.6660      9.9920      1.6800     78.3900
     23      1.4230    -10.2130     10.7930      0.0100     78.3900
     24      2.5640     -9.2100     10.0000      0.0100     78.3900
     25     -2.7150    -12.3340      5.6020      1.7700     78.3900
     26     -1.6160    -12.4120      5.4680      0.0100     78.3900
     27     -3.3210    -11.9760      4.3740      1.5900     78.3900
     28     -3.1210    -12.6960      3.7650      0.0100     78.3900
     29     -3.2940    -13.6340      6.1440      1.7700     78.3900
     30     -2.6740    -14.0030      6.9960      0.0100     78.3900
     31     -3.5420    -14.6410      5.1310      1.5900     78.3900
     32     -2.4770    -15.7910      4.9310      2.1000     78.3900
     33     -1.9840    -16.2360      6.2520      1.5900     78.3900
     34     -3.0850    -16.8150      4.0500      1.5900     78.3900
     35     -1.3260    -15.0420      4.1550      1.5900     78.3900
     36     -1.5630    -14.5010      2.8290      1.7700     78.3900
     37     -2.4950    -13.8920      2.7940      0.0100     78.3900
     38     -1.6700    -15.3290      2.0840      0.0100     78.3900
     39     -0.4040    -13.6020      2.3670      1.7700     78.3900
     40     -0.6210    -13.1450      1.3770      0.0100     78.3900
     41     -0.2010    -12.5160      3.3110      1.5900     78.3900
     42      1.1910    -12.2510      3.4280      1.7700     78.3900
     43      1.3060    -11.1860      3.1190      0.0100     78.3900
     44      1.6960    -12.3950      4.8160      1.6800     78.3900
     45      1.0110    -13.1580      5.7320      1.7700     78.3900
     46      0.1150    -13.6550      5.3570      0.0100     78.3900
     47      1.4200    -13.2460      7.0060      1.7700     78.3900
     48      0.8700    -13.8110      7.7610      0.0100     78.3900
     49      2.8720    -11.7540      5.1880      1.7700     78.3900
     50      3.4850    -11.0790      4.3440      1.5900     78.3900
     51      3.3030    -11.8320      6.4610      1.6800     78.3900
     52      2.6060    -12.5330      7.3660      1.7700     78.3900
     53      3.0380    -12.5430      8.6180      1.6800     78.3900
     54      3.9340    -12.1270      8.7880      0.0100     78.3900
     55      2.8160    -13.3370      9.1890      0.0100     78.3900
     56      1.9250    -13.1280      2.4320      1.7700     78.3900
     57      2.9140    -13.4680      2.8000      0.0100     78.3900
     58      2.0860    -12.4290      1.2110      1.5900     78.3900
     59      2.3800    -13.0690      0.5420      0.0100     78.3900
     60      0.9600    -14.2960      2.2940      1.7700     78.3900
     61      1.0170    -14.9450      3.2020      0.0100     78.3900
     62      1.0740    -15.0240      1.0530      1.5900     78.3900
     63      1.9520    -16.3270      1.0160      2.1000     78.3900
     64      1.8840    -16.9820      2.3380      1.5900     78.3900
     65      1.5430    -17.1150     -0.1670      1.5900     78.3900
     66      3.4150    -15.7930      0.7540      1.5900     78.3900
     67      4.4550    -16.7810      0.5060      1.7700     78.3900
     68      4.2080    -17.4260     -0.3680      0.0100     78.3900
     69      4.5810    -17.4410      1.3970      0.0100     78.3900
     70      5.7990    -16.0970      0.2180      1.7700     78.3900
     71      5.7130    -15.4160     -0.6560      0.0100     78.3900
     72      6.1590    -15.2950      1.3610      1.5900     78.3900
     73      7.5470    -15.3860      1.6130      1.7700     78.3900
     74      7.9050    -14.3290      1.5920      0.0100     78.3900
     75      7.8350    -15.9930      2.9380      1.6800     78.3900
     76      7.0870    -17.0580      3.3970      1.7700     78.3900
     77      6.2670    -17.4060      2.7630      0.0100     78.3900
     78      7.3200    -17.5980      4.6000      1.7700     78.3900
     79      6.7210    -18.4140      4.9960      0.0100     78.3900
     80      8.8590    -15.4740      3.7270      1.7700     78.3900
     81      9.5150    -14.5100      3.3030      1.5900     78.3900
     82      9.1060    -16.0210      4.9370      1.6800     78.3900
     83      8.3700    -17.0480      5.3860      1.7700     78.3900
     84      8.6400    -17.5610      6.5780      1.6800     78.3900
     85      9.3270    -17.1010      7.1520      0.0100     78.3900
     86      8.1230    -18.3230      6.9600      0.0100     78.3900
     87      8.1760    -16.1300      0.4640      1.7700     78.3900
     88      9.0400    -16.7470      0.7760      0.0100     78.3900
     89      8.5880    -15.2180     -0.5430      1.5900     78.3900
     90      7.8060    -14.7650     -0.9000      0.0100     78.3900
     91      7.0170    -17.0130      0.0170      1.7700     78.3900
     92      6.8740    -17.8530      0.7340      0.0100     78.3900
     93      7.1090    -17.4380     -1.3470      1.5900     78.3900
     94      7.5550    -18.8820     -1.7650      2.1000     78.3900
     95      6.3510    -19.5740     -2.2700      1.5900     78.3900
     96      8.7070    -18.8030     -2.6930      1.5900     78.3900
     97      8.0510    -19.5910     -0.4360      1.5900     78.3900
     98      7.8900    -21.0270     -0.3080      1.7700     78.3900
     99      8.5840    -21.5590     -0.9970      0.0100     78.3900
    100      6.8590    -21.3360     -0.5800      0.0100     78.3900
    101      8.1600    -21.5310      1.1230      1.7700     78.3900
    102      7.9040    -22.6100      1.2160      0.0100     78.3900
    103      9.5920    -21.4170      1.3860      1.5900     78.3900
    104      9.8100    -20.9350      2.7010      1.7700     78.3900
    105     10.4930    -21.6700      3.1870      0.0100     78.3900
    106     10.4520    -19.5850      2.7150      1.6800     78.3900
    107     10.6010    -18.8560      1.5550      1.7700     78.3900
    108     10.1630    -19.2980      0.6590      0.0100     78.3900
    109     10.9600    -19.1130      3.9090      1.7700     78.3900
    110     10.8800    -19.7440      4.9570      1.5900     78.3900
    111     11.5730    -17.8880      3.8360      1.6800     78.3900
    112     12.0050    -17.5650      4.6830      0.0100     78.3900
    113     11.8040    -17.1350      2.7060      1.7700     78.3900
    114     12.4460    -16.0900      2.7760      1.5900     78.3900
    115     11.2500    -17.6850      1.5090      1.7700     78.3900
    116     11.3850    -17.1410      0.5790      0.0100     78.3900
    117      8.4760    -20.9520      3.4120      1.7700     78.3900
    118      8.3860    -20.1200      4.1440      0.0100     78.3900
    119      8.2620    -22.1820      4.0770      1.5900     78.3900
    120      7.3530    -22.1040      4.4140      0.0100     78.3900
    121      7.4710    -20.7620      2.2700      1.7700     78.3900
    122      7.4430    -19.6910      1.9710      0.0100     78.3900
    123      6.1260    -21.2830      2.5050      1.5900     78.3900
    124      5.2850    -20.6670      3.6960      2.1000     78.3900
    125      6.1190    -20.6760      4.9160      1.5900     78.3900
    126      4.7200    -19.3880      3.2340      1.5900     78.3900
    127      4.1780    -21.7500      3.9170      1.5900     78.3900
    128      3.0650    -21.9880      3.0450      1.7700     78.3900
    129      3.3900    -22.3660      2.0430      0.0100     78.3900
    130      2.4990    -21.0440      2.8930      0.0100     78.3900
    131      2.1110    -23.0230      3.6590      1.7700     78.3900
    132      1.2370    -23.2010      2.9980      0.0100     78.3900
    133      2.7970    -24.3000      3.7830      1.5900     78.3900
    134      2.4080    -24.9450      4.9820      1.7700     78.3900
    135      1.9780    -25.9250      4.6560      0.0100     78.3900
    136      3.5660    -25.1740      5.8920      1.6800     78.3900
    137      4.7210    -24.4310      5.7710      1.7700     78.3900
    138      4.7270    -23.6960      4.9680      0.0100     78.3900
    139      3.4660    -26.1660      6.8430      1.7700     78.3900
    140      2.4560    -26.8500      6.9800      1.5900     78.3900
    141      4.5850    -26.3410      7.6170      1.6800     78.3900
    142      4.5510    -27.0990      8.2870      0.0100     78.3900
    143      5.7840    -25.6650      7.5220      1.7700     78.3900
    144      6.7340    -25.9910      8.2320      1.5900     78.3900
    145      5.8030    -24.6300      6.5340      1.7700     78.3900
    146      6.7210    -24.0680      6.3820      0.0100     78.3900
    147      1.3050    -24.1070      5.6190      1.7700     78.3900
    148      1.3640    -24.1120      6.7280      0.0100     78.3900
    149      0.0320    -24.5780      5.2050      1.5900     78.3900
    150     -0.6240    -23.9070      5.4560      0.0100     78.3900
    151      1.6030    -22.7110      5.0760      1.7700     78.3900
    152      2.4690    -22.2810      5.6260      0.0100     78.3900
    153      0.4580    -21.8180      5.0230      1.5900     78.3900
    154      0.2550    -20.7800      6.1970      2.1000     78.3900
    155     -0.9740    -20.0190      5.8880      1.5900     78.3900
    156      0.2540    -21.5220      7.4770      1.5900     78.3900
    157      1.4890    -19.7960      6.1560      1.5900     78.3900
    158      1.4180    -18.5310      6.8680      1.7700     78.3900
    159      0.4350    -18.3650      7.3690      0.0100     78.3900
    160      1.5400    -17.6920      6.1490      0.0100     78.3900
    161      2.5160    -18.4680      7.9450      1.7700     78.3900
    162      2.6290    -19.4610      8.4300      0.0100     78.3900
    163      3.7780    -18.0720      7.3510      1.5900     78.3900
    164      4.0710    -16.7340      7.7020      1.7700     78.3900
    165      4.9060    -16.8140      8.4360      0.0100     78.3900
    166      4.4700    -15.9080      6.5320      1.6800     78.3900
    167      3.9310    -16.1600      5.2830      1.7700     78.3900
    168      3.2460    -17.0120      5.2000      0.0100     78.3900
    169      4.2750    -15.4170      4.2190      1.7700     78.3900
    170      3.8910    -15.6160      3.2210      0.0100     78.3900
    171      5.3570    -14.8480      6.6970      1.7700     78.3900
    172      5.8360    -14.6210      7.8180      1.5900     78.3900
    173      5.6920    -14.0900      5.6290      1.6800     78.3900
    174      5.1840    -14.3410      4.4290      1.7700     78.3900
    175      5.5780    -13.5530      3.4330      1.6800     78.3900
    176      6.2910    -12.8870      3.6330      0.0100     78.3900
    177      5.5210    -13.9060      2.4950      0.0100     78.3900
    178      2.8610    -16.1680      8.4100      1.7700     78.3900
    179      2.1430    -15.7390      7.6760      0.0100     78.3900
    180      3.2150    -15.2090      9.3780      1.5900     78.3900
    181      3.3870    -15.6960     10.1980      0.0100     78.3900
    182      2.2560    -17.4190      9.0440      1.7700     78.3900
    183      1.1510    -17.2950      9.1360      0.0100     78.3900
    184      2.8430    -17.8240     10.3080      1.5900     78.3900
    185      2.2340    -17.3660     11.6820      2.1000     78.3900
    186      2.3450    -15.8990     11.8070      1.5900     78.3900
    187      0.8860    -17.9540     11.8340      1.5900     78.3900
    188      3.2030    -18.0120     12.7410      1.5900     78.3900
    189      3.2940    -19.4400     12.8750      1.7700     78.3900
    190      2.8320    -19.9880     12.0190      0.0100     78.3900
    191      2.7430    -19.7510     13.7920      0.0100     78.3900
    192      4.7570    -19.8510     13.0330      1.7700     78.3900
    193      5.1820    -19.4190     13.9620      0.0100     78.3900
    194      4.8170    -21.2970     13.1100      1.5900     78.3900
    195      5.3750    -21.8090     11.9090      1.7700     78.3900
    196      6.4190    -22.0730     12.1930      0.0100     78.3900
    197      4.6350    -22.9930     11.4310      1.6800     78.3900
    198      3.2760    -22.8960     11.2730      1.7700     78.3900
    199      2.8280    -21.9330     11.5160      0.0100     78.3900
    200      2.5470    -23.9460     10.8780      1.7700     78.3900
    201      1.4670    -23.8910     10.7640      0.0100     78.3900
    202      5.2900    -24.1890     11.1410      1.7700     78.3900
    203      6.5250    -24.2510     11.2600      1.5900     78.3900
    204      4.5620    -25.2700     10.7740      1.6800     78.3900
    205      3.2270    -25.1750     10.6410      1.7700     78.3900
    206      2.5310    -26.2560     10.2950      1.6800     78.3900
    207      3.0070    -27.1270     10.1640      0.0100     78.3900
    208      1.5340    -26.2390     10.2070      0.0100     78.3900
    209      5.4310    -20.6760     10.9050      1.7700     78.3900
    210      4.4680    -20.5550     10.3620      0.0100     78.3900
    211      6.5000    -20.8220      9.9980      1.5900     78.3900
    212      7.3140    -20.6490     10.4950      0.0100     78.3900
    213      5.6540    -19.4820     11.8330      1.7700     78.3900
    214      5.2070    -18.5930     11.3250      0.0100     78.3900
    215      7.0500    -19.2730     12.2280      1.5900     78.3900
    216      7.5650    -17.7810     12.2820      2.1000     78.3900
    217      7.0670    -17.0670     11.0960      1.5900     78.3900
    218      7.2300    -17.2210     13.6080      1.5900     78.3900
    219      9.1280    -17.9320     12.1640      1.5900     78.3900
    220      9.9680    -18.1610     13.3220      1.7700     78.3900
    221     10.1540    -19.2530     13.4380      0.0100     78.3900
    222      9.5040    -17.8020     14.2700      0.0100     78.3900
    223     11.3280    -17.4500     13.1970      1.7700     78.3900
    224     11.9920    -17.7240     14.0490      0.0100     78.3900
    225     11.9980    -17.8500     11.9660      1.5900     78.3900
    226     12.6410    -16.7200     11.3960      1.7700     78.3900
    227     13.7110    -17.0000     11.2640      0.0100     78.3900
    228     12.0790    -16.3840     10.0840      1.6800     78.3900
    229     11.8280    -15.5920      8.0490      1.7700     78.3900
    230     10.7090    -16.3750      8.2990      1.6800     78.3900
    231     10.9050    -16.8250      9.5170      1.7700     78.3900
    232     10.2310    -17.4910     10.0600      0.0100     78.3900
    233     13.4420    -14.2230      6.9830      1.6800     78.3900
    234     14.1180    -14.2560      8.1330      1.7700     78.3900
    235     15.0610    -13.6970      8.1320      0.0100     78.3900
    236     13.8500    -14.9410      9.2500      1.6800     78.3900
    237     12.6730    -15.5820      9.1450      1.7700     78.3900
    238     12.2590    -14.8810      6.9100      1.7700     78.3900
    239     11.6020    -14.8600      5.7430      1.6800     78.3900
    240     10.6630    -15.2120      5.6220      0.0100     78.3900
    241     11.9560    -14.2980      4.9990      0.0100     78.3900
    242     12.5400    -15.5790     12.3850      1.7700     78.3900
    243     12.4560    -14.5880     11.8890      0.0100     78.3900
    244     13.6570    -15.5960     13.2560      1.5900     78.3900
    245     13.5080    -14.9050     13.9210      0.0100     78.3900
    246     11.2460    -15.9160     13.1210      1.7700     78.3900
    247     10.3610    -15.6840     12.4860      0.0100     78.3900
    248     11.1340    -15.3540     14.4480      1.5900     78.3900
    249     10.7040    -13.8440     14.6250      2.1000     78.3900
    250      9.5420    -13.5770     13.7550      1.5900     78.3900
    251     10.5350    -13.5770     16.0690      1.5900     78.3900
    252     11.9280    -13.0010     14.1220      1.5900     78.3900
    253     11.8180    -11.5680     13.9040      1.7700     78.3900
    254     12.1780    -11.0240     14.8040      0.0100     78.3900
    255     10.7610    -11.2470     13.7330      0.0100     78.3900
    256     12.6570    -11.0720     12.7030      1.7700     78.3900
    257     13.6960    -10.8380     13.0170      0.0100     78.3900
    258     12.7570    -12.1190     11.6940      1.5900     78.3900
    259     12.5730    -11.5800     10.4090      1.7700     78.3900
    260     13.4250    -11.9330      9.7820      0.0100     78.3900
    261     11.3200    -12.0480      9.8230      1.6800     78.3900
    262      9.7500    -12.5290      8.3780      1.7700     78.3900
    263      9.3000    -12.9930      9.6050      1.6800     78.3900
    264     10.2640    -12.6870     10.4340      1.7700     78.3900
    265     10.2720    -12.9120     11.5040      0.0100     78.3900
    266      9.9020    -12.0010      6.0720      1.6800     78.3900
    267     11.0900    -11.4680      6.3560      1.7700     78.3900
    268     11.6300    -11.0360      5.5090      0.0100     78.3900
    269     11.7150    -11.3750      7.5320      1.6800     78.3900
    270     10.9880    -11.9420      8.5040      1.7700     78.3900
    271      9.1940    -12.5550      7.0860      1.7700     78.3900
    272      7.9940    -13.0800      6.8700      1.6800     78.3900
    273      7.4770    -13.5430      7.5920      0.0100     78.3900
    274      7.6130    -13.2450      5.9630      0.0100     78.3900
    275     12.6210    -10.0810     10.5400      1.7700     78.3900
    276     11.9790     -9.5770      9.7920      0.0100     78.3900
    277     13.9610     -9.6310     10.4150      1.5900     78.3900
    278     14.0030     -8.7230     10.7480      0.0100     78.3900
    279     12.0670     -9.8700     11.9390      1.7700     78.3900
    280     10.9590    -10.0020     11.9380      0.0100     78.3900
    281     12.4820     -8.6310     12.5410      1.5900     78.3900
    282     11.5350     -7.3800     12.6070      2.1000     78.3900
    283     10.3110     -7.7710     13.3400      1.5900     78.3900
    284     12.3160     -6.2480     13.1500      1.5900     78.3900
    285     11.1410     -7.0640     11.1120      1.5900     78.3900
    286     12.1130     -6.5250     10.1850      1.7700     78.3900
    287     13.0540     -7.1200     10.1890      0.0100     78.3900
    288     12.3700     -5.4770     10.4630      0.0100     78.3900
    289     11.5850     -6.5140      8.7400      1.7700     78.3900
    290     12.3390     -6.0760      8.0510      0.0100     78.3900
    291     11.3540     -7.8770      8.2860      1.5900     78.3900
    292     10.1520     -7.9340      7.5390      1.7700     78.3900
    293     10.3920     -8.4500      6.5820      0.0100     78.3900
    294      9.1130     -8.6960      8.2460      1.6800     78.3900
    295      7.9890     -9.2500      7.6940      1.7700     78.3900
    296      6.0380     -9.9940      4.9350      1.6800     78.3900
    297      6.5080     -9.5160      4.1920      0.0100     78.3900
    298      5.1610    -10.4440      4.7510      0.0100     78.3900
    299      7.6280     -9.1820      6.4010      1.6800     78.3900
    300      6.5300     -9.8990      6.1540      1.7700     78.3900
    301      5.8240    -10.5580      7.1260      1.6800     78.3900
    302      5.0050    -11.0780      6.8510      0.0100     78.3900
    303      6.1650    -10.6320      8.4680      1.7700     78.3900
    304      5.4820    -11.2560      9.2880      1.5900     78.3900
    305      7.3420     -9.8860      8.7380      1.7700     78.3900
    306      8.0290     -9.7040      9.9280      1.6800     78.3900
    307      9.0720     -8.9960      9.5880      1.7700     78.3900
    308      9.8620     -8.6830     10.2650      0.0100     78.3900
    309      9.7340     -6.5100      7.2690      1.7700     78.3900
    310      8.6380     -6.4040      7.1510      0.0100     78.3900
    311     10.3810     -6.0470      6.1020      1.5900     78.3900
    312     10.1720     -5.1100      6.0160      0.0100     78.3900
    313     10.2480     -5.7970      8.5170      1.7700     78.3900
    314      9.6110     -6.0510      9.3960      0.0100     78.3900
    315     10.4750     -4.3730      8.3680      1.5900     78.3900
    316      9.3460     -3.3750      8.8260      2.1000     78.3900
    317      8.8410     -3.7770     10.1530      1.5900     78.3900
    318      9.8470     -1.9910      8.6880      1.5900     78.3900
    319      8.1940     -3.6000      7.7740      1.5900     78.3900
    320      8.4160     -3.2450      6.3860      1.7700     78.3900
    321      9.3290     -3.7260      5.9770      0.0100     78.3900
    322      8.5510     -2.1420      6.2860      0.0100     78.3900
    323      7.2310     -3.6540      5.5000      1.7700     78.3900
    324      7.3860     -3.3300      4.4510      0.0100     78.3900
    325      7.0790     -5.1050      5.4790      1.5900     78.3900
    326      5.6900     -5.4280      5.4970      1.7700     78.3900
    327      5.5190     -6.0720      4.6010      0.0100     78.3900
    328      5.3090     -6.1730      6.7320      1.6800     78.3900
    329      6.0900     -6.1240      7.8660      1.7700     78.3900
    330      6.9780     -5.5020      7.7920      0.0100     78.3900
    331      4.1550     -6.9220      6.7090      1.7700     78.3900
    332      3.4180     -6.9700      5.7310      1.5900     78.3900
    333      3.8860     -7.6080      7.8650      1.6800     78.3900
[...]
          MIX   =       F          PRTMO =       F          PUNMO =       F
          TOLZ  = 1.0E-08          TOLE  = 1.0E-05
          SYMDEN=       F          PURIFY=       F

 INITIAL GUESS ORBITALS GENERATED BY HUCKEL   ROUTINE.
 HUCKEL GUESS REQUIRES    909141 WORDS.

 SYMMETRIES FOR INITIAL GUESS ORBITALS FOLLOW.   BOTH SET(S).
    79 ORBITALS ARE OCCUPIED (   24 CORE ORBITALS).
    25=A       26=A       27=A       28=A       29=A       30=A       31=A   
    32=A       33=A       34=A       35=A       36=A       37=A       38=A   
    39=A       40=A       41=A       42=A       43=A       44=A       45=A   
    46=A       47=A       48=A       49=A       50=A       51=A       52=A   
    53=A       54=A       55=A       56=A       57=A       58=A       59=A   
    60=A       61=A       62=A       63=A       64=A       65=A       66=A   
    67=A       68=A       69=A       70=A       71=A       72=A       73=A   
    74=A       75=A       76=A       77=A       78=A       79=A       80=A   
    81=A       82=A       83=A       84=A       85=A       86=A       87=A   
    88=A       89=A   
 ...... END OF INITIAL ORBITAL SELECTION ......
 CPU     0: STEP CPU TIME=     0.15 TOTAL CPU TIME=          1.4 (      0.0 MIN)
 TOTAL WALL CLOCK TIME=          3.4 SECONDS, CPU UTILIZATION IS    41.47%

 Running initial guess for monomer       4


          -------------
          GUESS OPTIONS
          -------------
          GUESS =HUCKEL            NORB  =       0          NORDER=       0
          MIX   =       F          PRTMO =       F          PUNMO =       F
          TOLZ  = 1.0E-08          TOLE  = 1.0E-05
          SYMDEN=       F          PURIFY=       F

 INITIAL GUESS ORBITALS GENERATED BY HUCKEL   ROUTINE.
 HUCKEL GUESS REQUIRES    909141 WORDS.

 SYMMETRIES FOR INITIAL GUESS ORBITALS FOLLOW.   BOTH SET(S).
    79 ORBITALS ARE OCCUPIED (   24 CORE ORBITALS).
    25=A       26=A       27=A       28=A       29=A       30=A       31=A   
    32=A       33=A       34=A       35=A       36=A       37=A       38=A   
    39=A       40=A       41=A       42=A       43=A       44=A       45=A   
    46=A       47=A       48=A       49=A       50=A       51=A       52=A   
    53=A       54=A       55=A       56=A       57=A       58=A       59=A   
    60=A       61=A       62=A       63=A       64=A       65=A       66=A   
    67=A       68=A       69=A       70=A       71=A       72=A       73=A   
    74=A       75=A       76=A       77=A       78=A       79=A       80=A   
    81=A       82=A       83=A       84=A       85=A       86=A       87=A   
    88=A       89=A   
 ...... END OF INITIAL ORBITAL SELECTION ......
 CPU     0: STEP CPU TIME=     0.17 TOTAL CPU TIME=          1.6 (      0.0 MIN)
 TOTAL WALL CLOCK TIME=          3.8 SECONDS, CPU UTILIZATION IS    41.58%

 Running initial guess for monomer       3


          -------------
          GUESS OPTIONS
          -------------
          GUESS =HUCKEL            NORB  =       0          NORDER=       0
          MIX   =       F          PRTMO =       F          PUNMO =       F
          TOLZ  = 1.0E-08          TOLE  = 1.0E-05
          SYMDEN=       F          PURIFY=       F

 INITIAL GUESS ORBITALS GENERATED BY HUCKEL   ROUTINE.
 HUCKEL GUESS REQUIRES    920598 WORDS.

 SYMMETRIES FOR INITIAL GUESS ORBITALS FOLLOW.   BOTH SET(S).
    79 ORBITALS ARE OCCUPIED (   24 CORE ORBITALS).
    25=A       26=A       27=A       28=A       29=A       30=A       31=A   
    32=A       33=A       34=A       35=A       36=A       37=A       38=A   
    39=A       40=A       41=A       42=A       43=A       44=A       45=A   
    46=A       47=A       48=A       49=A       50=A       51=A       52=A   
    53=A       54=A       55=A       56=A       57=A       58=A       59=A   
    60=A       61=A       62=A       63=A       64=A       65=A       66=A   
    67=A       68=A       69=A       70=A       71=A       72=A       73=A   
    74=A       75=A       76=A       77=A       78=A       79=A       80=A   
    81=A       82=A       83=A       84=A       85=A       86=A       87=A   
    88=A       89=A   
 ...... END OF INITIAL ORBITAL SELECTION ......
 CPU     0: STEP CPU TIME=     0.16 TOTAL CPU TIME=          1.7 (      0.0 MIN)
 TOTAL WALL CLOCK TIME=          4.2 SECONDS, CPU UTILIZATION IS    41.43%

 Running initial guess for monomer       2


          -------------
          GUESS OPTIONS
          -------------
          GUESS =HUCKEL            NORB  =       0          NORDER=       0
          MIX   =       F          PRTMO =       F          PUNMO =       F
          TOLZ  = 1.0E-08          TOLE  = 1.0E-05
          SYMDEN=       F          PURIFY=       F

 INITIAL GUESS ORBITALS GENERATED BY HUCKEL   ROUTINE.
 HUCKEL GUESS REQUIRES    920598 WORDS.

 SYMMETRIES FOR INITIAL GUESS ORBITALS FOLLOW.   BOTH SET(S).
    79 ORBITALS ARE OCCUPIED (   24 CORE ORBITALS).
    25=A       26=A       27=A       28=A       29=A       30=A       31=A   
    32=A       33=A       34=A       35=A       36=A       37=A       38=A   
    39=A       40=A       41=A       42=A       43=A       44=A       45=A   
    46=A       47=A       48=A       49=A       50=A       51=A       52=A   
    53=A       54=A       55=A       56=A       57=A       58=A       59=A   
    60=A       61=A       62=A       63=A       64=A       65=A       66=A   
    67=A       68=A       69=A       70=A       71=A       72=A       73=A   
    74=A       75=A       76=A       77=A       78=A       79=A       80=A   
    81=A       82=A       83=A       84=A       85=A       86=A       87=A   
    88=A       89=A   
 ...... END OF INITIAL ORBITAL SELECTION ......
 CPU     0: STEP CPU TIME=     0.16 TOTAL CPU TIME=          1.9 (      0.0 MIN)
 TOTAL WALL CLOCK TIME=          4.6 SECONDS, CPU UTILIZATION IS    41.13%

 Running initial guess for monomer       1


          -------------
          GUESS OPTIONS
          -------------
          GUESS =HUCKEL            NORB  =       0          NORDER=       0
          MIX   =       F          PRTMO =       F          PUNMO =       F
          TOLZ  = 1.0E-08          TOLE  = 1.0E-05
          SYMDEN=       F          PURIFY=       F

 INITIAL GUESS ORBITALS GENERATED BY HUCKEL   ROUTINE.
 HUCKEL GUESS REQUIRES   1187385 WORDS.

 SYMMETRIES FOR INITIAL GUESS ORBITALS FOLLOW.   BOTH SET(S).
    90 ORBITALS ARE OCCUPIED (   27 CORE ORBITALS).
    28=A       29=A       30=A       31=A       32=A       33=A       34=A   
    35=A       36=A       37=A       38=A       39=A       40=A       41=A   
    42=A       43=A       44=A       45=A       46=A       47=A       48=A   
    49=A       50=A       51=A       52=A       53=A       54=A       55=A   
    56=A       57=A       58=A       59=A       60=A       61=A       62=A   
    63=A       64=A       65=A       66=A       67=A       68=A       69=A   
    70=A       71=A       72=A       73=A       74=A       75=A       76=A   
    77=A       78=A       79=A       80=A       81=A       82=A       83=A   
    84=A       85=A       86=A       87=A       88=A       89=A       90=A   
    91=A       92=A       93=A       94=A       95=A       96=A       97=A   
    98=A       99=A      100=A   
 ...... END OF INITIAL ORBITAL SELECTION ......
 CPU     0: STEP CPU TIME=     0.23 TOTAL CPU TIME=          2.1 (      0.0 MIN)
 TOTAL WALL CLOCK TIME=          5.2 SECONDS, CPU UTILIZATION IS    41.04%

 There are          20 separated and      35 SCF (      35 of them correlated) dimers.
 Estimate of max dimer size:  774 AOs,  178 occ. MOs

 Fragment statistics

      I  NAME     Q NAT0 NATB NA  NAO LAY MUL SCFTYP        NOP     MOL    CONV
 ==============================================================================
      1 F1       -1   35   1   90  388 1  1 G RHF             0      -1      -1
      2 F2       -1   31   1   79  341 1  1 G RHF             0      -1      -1
      3 F3       -1   31   1   79  341 1  1 G RHF             0      -1      -1
      4 F4       -1   30   1   79  339 1  1 G RHF             0      -1      -1
      5 F5       -1   30   1   79  339 1  1 G RHF             0      -1      -1
      6 F6       -1   31   1   79  341 1  1 G RHF             0      -1      -1
      7 F7       -1   31   1   79  341 1  1 G RHF             0      -1      -1
      8 F8       -1   33   1   85  371 1  1 G RHF             0      -1      -1
      9 F9       -1   33   1   85  371 1  1 G RHF             0      -1      -1
     10 F10      -1   34   1   89  386 1  1 G RHF             0      -1      -1
     11 F11       0   27   0   59  262 1  1 G RHF             0      -1      -1

 Close fragment pairs, distance relative to vdW radii

 CPU     0: STEP CPU TIME=     0.00 TOTAL CPU TIME=          2.1 (      0.0 MIN)
 TOTAL WALL CLOCK TIME=          5.2 SECONDS, CPU UTILIZATION IS    40.96%
 dmexch needs              4042036  words of memory.
 CPU     0: STEP CPU TIME=     0.02 TOTAL CPU TIME=          2.1 (      0.0 MIN)
 TOTAL WALL CLOCK TIME=          5.4 SECONDS, CPU UTILIZATION IS    39.52%

 Data exchange of   1338788 words took     0.2 s.

 RHF      monomer      1 corr= NONE       , L1=   388, L0=   364 ID=      1


 AO spaces for     1     0     0 n-mer: L1=   388, L0=   364

 DIRECT SCF CALCULATION, SCHWRZ=T   FDIFF=T,  DIRTHR=  0.00E+00 NITDIR=10

                                                                                   NONZERO     BLOCKS
 ITER EX DEM     TOTAL ENERGY        E CHANGE  DENSITY CHANGE     ORB. GRAD      INTEGRALS    SKIPPED
   1  0  0   843109.1330981336843109.1330981336   0.540550471   0.000000000      951598451   18822142
          ---------------START SECOND ORDER SCF---------------
   2  1  0    -1450.3105347178*****************   0.433315875   0.106473854      958167238   18825404
   3  2  0    -1450.5607832764    -0.2502485585   0.184166945   0.078798817      948327240   19139584
   4  3  0    -1450.9336546255    -0.3728713492   0.059079752   0.013302043      930570661   19496893
   5  4  0    -1450.9426684126    -0.0090137870   0.016312452   0.005541498      904942946   19842156
   6  5  0    -1450.9444450402    -0.0017766277   0.004657744   0.002583479      875844925   20189928
   7  6  0    -1450.9446746355    -0.0002295953   0.002792347   0.000835669      842419311   20555153
   8  7  0    -1450.9447234610    -0.0000488255   0.001336680   0.000567186      808323557   20877890
   9  8  0    -1450.9447326077    -0.0000091467   0.000470859   0.000421130      784056527   21100886
  10  9  0    -1450.9447371430    -0.0000045353   0.000312586   0.000096765      749820274   21426683
  11 10  0    -1450.9447377307    -0.0000005877   0.000225927   0.000078691      724645773   21637150
  12 11  0    -1450.9447379847    -0.0000002540   0.000096411   0.000025593      689246458   21958228
  13 12  0    -1450.9447380170    -0.0000000323   0.000027359   0.000010612      658835993   22205493
  14 13  0    -1450.9447380268    -0.0000000098   0.000010342   0.000003977      615765748   22578095
  15 14  0    -1450.9447380282    -0.0000000014   0.000005434   0.000003205      578464950   22884000
  16 15  0    -1450.9447380285    -0.0000000003   0.000002063   0.000000765      536790924   23241530
  17 16  0    -1450.9447380284     0.0000000001   0.000001047   0.000000383      501608700   23518499
  18 17  0    -1450.9447380292    -0.0000000008   0.000000274   0.000000161      457034674   23890133
  19 18  0    -1450.9447380284     0.0000000008   0.000000209   0.000000062      422669858   24164056

          ----------------
          ENERGY CONVERGED
          ----------------
     TIME TO FORM FOCK OPERATORS=      48.3 SECONDS (       2.5 SEC/ITER)
     FOCK TIME ON FIRST ITERATION=       3.4, LAST ITERATION=       1.5
     TIME TO SOLVE SCF EQUATIONS=       0.7 SECONDS (       0.0 SEC/ITER)

 FINAL RHF ENERGY IS    -1450.9447380284 AFTER  19 ITERATIONS
 ...... END OF RHF CALCULATION ......
 CPU     0: STEP CPU TIME=    73.70 TOTAL CPU TIME=         75.9 (      1.3 MIN)
 TOTAL WALL CLOCK TIME=        148.4 SECONDS, CPU UTILIZATION IS    51.10%
 DONE PCM POT.
 CPU     0: STEP CPU TIME=     0.43 TOTAL CPU TIME=         76.3 (      1.3 MIN)
 TOTAL WALL CLOCK TIME=        149.6 SECONDS, CPU UTILIZATION IS    50.98%

 Iter=  1 iFrag=      1 EFMO= -1522.260310952, DD= 0.440248967, DE=************


 RHF      monomer     10 corr= NONE       , L1=   386, L0=   362 ID=      2


 AO spaces for    10     0     0 n-mer: L1=   386, L0=   362

 DIRECT SCF CALCULATION, SCHWRZ=T   FDIFF=T,  DIRTHR=  0.00E+00 NITDIR=10

                                                                                   NONZERO     BLOCKS
 ITER EX DEM     TOTAL ENERGY        E CHANGE  DENSITY CHANGE     ORB. GRAD      INTEGRALS    SKIPPED
   1  0  0  1271366.5434359808*****************   0.529494068   0.000000000      911051457   17662373
          ---------------START SECOND ORDER SCF---------------
   2  1  0    -1443.7545494565*****************   0.418835975   0.100128337      916963997   17647906
   3  2  0    -1443.9538943839    -0.1993449274   0.193101059   0.085180128      911287838   17873876
   4  3  0    -1444.5889228870    -0.6350285031   0.152990727   0.024575422      898118551   18190124
   5  4  0    -1444.6051804353    -0.0162575483   0.055999577   0.024002597      886691252   18376618
   6  5  0    -1444.6181529494    -0.0129725141   0.025330170   0.014305750      865557394   18678911
   7  6  0    -1444.6190267143    -0.0008737649   0.014594412   0.009481134      850722183   18886850
   8  7  0    -1444.6199598764    -0.0009331621   0.004703806   0.001719016      830215686   19108673
   9  8  0    -1444.6199844209    -0.0000245444   0.001941884   0.001186882      802214869   19395637
  10  9  0    -1444.6200292818    -0.0000448609   0.000495966   0.000152263      773866637   19669493
  11 10  0    -1444.6200305468    -0.0000012650   0.000289367   0.000157710      724620955   20084960
  12 11  0    -1444.6200313132    -0.0000007664   0.000107983   0.000031029      698884734   20301896
  13 12  0    -1444.6200313820    -0.0000000688   0.000078377   0.000020379      664665220   20592827
  14 13  0    -1444.6200314030    -0.0000000209   0.000036533   0.000009903      621022944   20953523
  15 14  0    -1444.6200314043    -0.0000000014   0.000019739   0.000008868      594756981   21146817
  16 15  0    -1444.6200314061    -0.0000000018   0.000005030   0.000001573      555899885   21473137
  17 16  0    -1444.6200314070    -0.0000000009   0.000002694   0.000000855      520632715   21770479
  18 17  0    -1444.6200314059     0.0000000011   0.000001309   0.000000262      478280788   22104864
  19 18  0    -1444.6200314057     0.0000000002   0.000000505   0.000000156      451101866   22318221
  20 19  0    -1444.6200314074    -0.0000000016   0.000000214   0.000000047      413399236   22603757
  21 20  0    -1444.6200314060     0.0000000014   0.000000136   0.000000032      381079750   22851052

          -----------------
          DENSITY CONVERGED
          -----------------
     TIME TO FORM FOCK OPERATORS=      48.9 SECONDS (       2.3 SEC/ITER)
     FOCK TIME ON FIRST ITERATION=       3.1, LAST ITERATION=       1.3
     TIME TO SOLVE SCF EQUATIONS=       0.8 SECONDS (       0.0 SEC/ITER)

 FINAL RHF ENERGY IS    -1444.6200314060 AFTER  21 ITERATIONS
 ...... END OF RHF CALCULATION ......
 CPU     0: STEP CPU TIME=    76.11 TOTAL CPU TIME=        152.4 (      2.5 MIN)
 TOTAL WALL CLOCK TIME=        340.2 SECONDS, CPU UTILIZATION IS    44.79%
 DONE PCM POT.
 CPU     0: STEP CPU TIME=     0.47 TOTAL CPU TIME=        152.9 (      2.5 MIN)
 TOTAL WALL CLOCK TIME=        341.4 SECONDS, CPU UTILIZATION IS    44.78%

 Iter=  1 iFrag=     10 EFMO= -1506.972803075, DD= 0.461487570, DE=************


 RHF      monomer      8 corr= NONE       , L1=   371, L0=   348 ID=      3


 AO spaces for     8     0     0 n-mer: L1=   371, L0=   348

 DIRECT SCF CALCULATION, SCHWRZ=T   FDIFF=T,  DIRTHR=  0.00E+00 NITDIR=10

                                                                                   NONZERO     BLOCKS
 ITER EX DEM     TOTAL ENERGY        E CHANGE  DENSITY CHANGE     ORB. GRAD      INTEGRALS    SKIPPED
   1  0  0  1242026.4999475183*****************   0.544838918   0.000000000      807980819   15130016
          ---------------START SECOND ORDER SCF---------------
   2  1  0    -1366.3068448377*****************   0.431139572   0.107365948      812392667   15129288
   3  2  0    -1366.5654043087    -0.2585594710   0.179776919   0.089123724      806205946   15399872
   4  3  0    -1366.9173421483    -0.3519378395   0.059629766   0.011546079      794161395   15693211
   5  4  0    -1366.9258477874    -0.0085056391   0.016315198   0.004401331      774524510   15998368
   6  5  0    -1366.9273277893    -0.0014800020   0.003488821   0.002393008      752642784   16290867
   7  6  0    -1366.9275171673    -0.0001893780   0.001401204   0.000636564      724623167   16607550
   8  7  0    -1366.9275508447    -0.0000336774   0.000560059   0.000311098      694990396   16887240
   9  8  0    -1366.9275563853    -0.0000055406   0.000459014   0.000141998      667829988   17137715
  10  9  0    -1366.9275579021    -0.0000015167   0.000289081   0.000073336      642956538   17378070
  11 10  0    -1366.9275581775    -0.0000002755   0.000088533   0.000035505      621912282   17545036
  12 11  0    -1366.9275582479    -0.0000000704   0.000026898   0.000015634      588251007   17813571
  13 12  0    -1366.9275582551    -0.0000000072   0.000017019   0.000012803      555890927   18112038
  14 13  0    -1366.9275582578    -0.0000000027   0.000004493   0.000002857      520439684   18433750
  15 14  0    -1366.9275582584    -0.0000000006   0.000001525   0.000000914      488610140   18684555
  16 15  0    -1366.9275582591    -0.0000000007   0.000001017   0.000000535      449195314   19009536
  17 16  0    -1366.9275582584     0.0000000007   0.000000285   0.000000122      422521270   19244224
  18 17  0    -1366.9275582591    -0.0000000007   0.000000142   0.000000049      380571108   19538112

          -----------------
          DENSITY CONVERGED
          -----------------
     TIME TO FORM FOCK OPERATORS=      38.3 SECONDS (       2.1 SEC/ITER)
     FOCK TIME ON FIRST ITERATION=       2.9, LAST ITERATION=       1.2
     TIME TO SOLVE SCF EQUATIONS=       0.6 SECONDS (       0.0 SEC/ITER)

 FINAL RHF ENERGY IS    -1366.9275582591 AFTER  18 ITERATIONS
 ...... END OF RHF CALCULATION ......
 CPU     0: STEP CPU TIME=    64.83 TOTAL CPU TIME=        217.7 (      3.6 MIN)
 TOTAL WALL CLOCK TIME=        504.4 SECONDS, CPU UTILIZATION IS    43.16%
 DONE PCM POT.
 CPU     0: STEP CPU TIME=     0.41 TOTAL CPU TIME=        218.1 (      3.6 MIN)
 TOTAL WALL CLOCK TIME=        505.5 SECONDS, CPU UTILIZATION IS    43.15%

 Iter=  1 iFrag=      8 EFMO= -1432.208906883, DD= 0.435231833, DE=************


 RHF      monomer      9 corr= NONE       , L1=   371, L0=   348 ID=      4


 AO spaces for     9     0     0 n-mer: L1=   371, L0=   348

 DIRECT SCF CALCULATION, SCHWRZ=T   FDIFF=T,  DIRTHR=  0.00E+00 NITDIR=10

                                                                                   NONZERO     BLOCKS
 ITER EX DEM     TOTAL ENERGY        E CHANGE  DENSITY CHANGE     ORB. GRAD      INTEGRALS    SKIPPED
   1  0  0  1330595.3453153376*****************   0.531955134   0.000000000      834522139   14879723
          ---------------START SECOND ORDER SCF---------------
   2  1  0    -1365.4618565323*****************   0.426343725   0.092191515      839221751   14874059
   3  2  0    -1365.7305238789    -0.2686673466   0.174592620   0.071267923      833748062   15120782
   4  3  0    -1366.1268419418    -0.3963180629   0.059773992   0.011923782      821829982   15418709
   5  4  0    -1366.1365462870    -0.0097043452   0.017598626   0.005311435      803422554   15721500
