‘2LBL_2_fmo_input.inp’ -> ‘/scratch/hazwong/822126/./2LBL_2_fmo_input.inp’
‘rungms’ -> ‘/scratch/hazwong/822126/./rungms’
‘gms-files.csh’ -> ‘/scratch/hazwong/822126/./gms-files.csh’
----- GAMESS execution script 'rungms' -----
This job is running on host gollum062.lsa.umich.edu
under operating system Linux at Fri Dec 6 11:47:50 EST 2019
Available scratch disk space (Kbyte units) at beginning of the job is
Filesystem     1K-blocks     Used Available Use% Mounted on
/dev/sda4      426933580 10630184 416303396   3% /scratch
GAMESS temporary binary files will be written to /scratch/hazwong/822126/2LBL_2/usrc
GAMESS supplementary output files will be written to /scratch/hazwong/822126/2LBL_2/src
Copying input file 2LBL_2_fmo_input.inp to your run's scratch directory...
cp 2LBL_2_fmo_input.inp /scratch/hazwong/822126/2LBL_2/usrc/2LBL_2_fmo_input.F05
unset echo
setenv OUTPUT /scratch/hazwong/822126/2LBL_2/usrc/2LBL_2_fmo_input.F06
This is a GDDI run, keeping various output files on local disks
setenv PUNCH /scratch/hazwong/822126/2LBL_2/usrc/2LBL_2_fmo_input.F07
unset echo
 
Assuming a single but multicore node.
 
/export/apps/CentOS7/gamess/src/build//ddikick.x /export/apps/CentOS7/gamess/src/build//gamess.R3.x 2LBL_2_fmo_input -ddi 1 16 gollum062.lsa.umich.edu:cpus=16 -scr /scratch/hazwong/822126/2LBL_2/usrc

 Distributed Data Interface kickoff program.
 Initiating 16 compute processes on 1 nodes to run the following command:
 /export/apps/CentOS7/gamess/src/build//gamess.R3.x 2LBL_2_fmo_input 

          ******************************************************
          *         GAMESS VERSION = 30 SEP 2018 (R3)         *
          *             FROM IOWA STATE UNIVERSITY             *
          * M.W.SCHMIDT, K.K.BALDRIDGE, J.A.BOATZ, S.T.ELBERT, *
          *   M.S.GORDON, J.H.JENSEN, S.KOSEKI, N.MATSUNAGA,   *
          *          K.A.NGUYEN, S.J.SU, T.L.WINDUS,           *
          *       TOGETHER WITH M.DUPUIS, J.A.MONTGOMERY       *
          *         J.COMPUT.CHEM.  14, 1347-1363(1993)        *
          **************** 64 BIT LINUX VERSION ****************

  SINCE 1993, STUDENTS AND POSTDOCS WORKING AT IOWA STATE UNIVERSITY
  AND ALSO IN THEIR VARIOUS JOBS AFTER LEAVING ISU HAVE MADE IMPORTANT
  CONTRIBUTIONS TO THE CODE:
     IVANA ADAMOVIC, CHRISTINE AIKENS, YURI ALEXEEV, POOJA ARORA,
     ANDREY ASADCHEV, ROB BELL, PRADIPTA BANDYOPADHYAY, JONATHAN BENTZ,
     BRETT BODE, KURT BRORSEN, CALEB CARLIN, GALINA CHABAN, WEI CHEN,
     CHEOL HO CHOI, PAUL DAY, ALBERT DEFUSCO, NUWAN DESILVA, TIM DUDLEY,
     DMITRI FEDOROV, ALEX FINDLATER, GRAHAM FLETCHER, MARK FREITAG,
     KURT GLAESEMANN, ANASTASIA GUNINA,
     DAN KEMP, GRANT MERRILL, NORIYUKI MINEZAWA, JONATHAN MULLIN,
     TAKESHI NAGATA, SEAN NEDD, HEATHER NETZLOFF, BOSILJKA NJEGIC, RYAN OLSON,
     MIKE PAK, BUU PHAM,
     SPENCER PRUITT, LUKE ROSKOP, JIM SHOEMAKER, LYUDMILA SLIPCHENKO,
     TONY SMITH, SAROM SOK LEANG, JIE SONG, TETSUYA TAKETSUGU, SIMON WEBB,
     PENG XU, SOOHAENG YOO, FEDERICO ZAHARIEV

  ADDITIONAL CODE HAS BEEN PROVIDED BY COLLABORATORS IN OTHER GROUPS:
     IOWA STATE UNIVERSITY:
          JOE IVANIC, AARON WEST, LAIMUTIS BYTAUTAS, KLAUS RUEDENBERG
     UNIVERSITY OF TOKYO: KIMIHIKO HIRAO, TAKAHITO NAKAJIMA,
          TAKAO TSUNEDA, MUNEAKI KAMIYA, SUSUMU YANAGISAWA,
          KIYOSHI YAGI, MAHITO CHIBA, SEIKEN TOKURA, NAOAKI KAWAKAMI
     UNIVERSITY OF AARHUS: FRANK JENSEN
     UNIVERSITY OF IOWA: VISVALDAS KAIRYS, HUI LI
     NATIONAL INST. OF STANDARDS AND TECHNOLOGY: WALT STEVENS, DAVID GARMER
     UNIVERSITY OF PISA: BENEDETTA MENNUCCI, JACOPO TOMASI
     UNIVERSITY OF MEMPHIS: HENRY KURTZ, PRAKASHAN KORAMBATH
     UNIVERSITY OF ALBERTA: TOBY ZENG, MARIUSZ KLOBUKOWSKI
     UNIVERSITY OF NEW ENGLAND: MARK SPACKMAN
     MIE UNIVERSITY: HIROAKI UMEDA
     NAT. INST. OF ADVANCED INDUSTRIAL SCIENCE AND TECHNOLOGY: KAZUO KITAURA
     MICHIGAN STATE UNIVERSITY:
          KAROL KOWALSKI, MARTA WLOCH, JEFFREY GOUR, JESSE LUTZ,
          WEI LI, JUN SHEN, J. EMILIANO DEUSTUA, PIOTR PIECUCH
     UNIVERSITY OF MINNESOTA:
          YINAN SHU
     UNIVERSITY OF SILESIA: MONIKA MUSIAL, STANISLAW KUCHARSKI
     FACULTES UNIVERSITAIRES NOTRE-DAME DE LA PAIX:
          OLIVIER QUINET, BENOIT CHAMPAGNE
     UNIVERSITY OF CALIFORNIA - SANTA BARBARA: BERNARD KIRTMAN
     INSTITUTE FOR MOLECULAR SCIENCE:
          KAZUYA ISHIMURA, MICHIO KATOUDA, AND SHIGERU NAGASE
     UNIVERSITY OF NOTRE DAME: ANNA POMOGAEVA, DAN CHIPMAN
     KYUSHU UNIVERSITY:
          HARUYUKI NAKANO,
          FENG LONG GU, JACEK KORCHOWIEC, MARCIN MAKOWSKI, AND YURIKO AOKI,
          HIROTOSHI MORI AND EISAKU MIYOSHI
     PENNSYLVANIA STATE UNIVERSITY:
          TZVETELIN IORDANOV, CHET SWALINA, JONATHAN SKONE,
          SHARON HAMMES-SCHIFFER
     WASEDA UNIVERSITY:
          MASATO KOBAYASHI, TOMOKO AKAMA, TSUGUKI TOUMA,
          TAKESHI YOSHIKAWA, YASUHIRO IKABATA, JUNJI SEINO,
          YUYA NAKAJIMA, HIROMI NAKAI
     NANJING UNIVERSITY: SHUHUA LI
     UNIVERSITY OF NEBRASKA:
          PEIFENG SU, DEJUN SI, NANDUN THELLAMUREGE, YALI WANG, HUI LI
     UNIVERSITY OF ZURICH: ROBERTO PEVERATI, KIM BALDRIDGE
     N. COPERNICUS UNIVERSITY AND JACKSON STATE UNIVERSITY:
          MARIA BARYSZ
     UNIVERSITY OF COPENHAGEN: Jimmy Kromann, CASPER STEINMANN
     TOKYO INSTITUTE OF TECHNOLOGY: HIROYA NAKATA
     NAGOYA UNIVERSITY: YOSHIO NISHIMOTO, STEPHAN IRLE
     MOSCOW STATE UNIVERSITY: VLADIMIR MIRONOV


 PARALLEL VERSION RUNNING ON       16 PROCESSORS IN        1 NODES.

 EXECUTION OF GAMESS BEGUN Fri Dec  6 11:47:51 2019

            ECHO OF THE FIRST FEW INPUT CARDS -
 INPUT CARD>!*** FMO 5.3 (Gamess) INPUT generated by Facio 22.1.1.32 ***                    
 INPUT CARD> $CONTRL RUNTYP=ENERGY NPRINT=-5 ISPHER=1 MAXIT=200 $END                        
 INPUT CARD> $SYSTEM MWORDS=63 MEMDDI=63 $END                                               
 INPUT CARD> $GDDI NGROUP=1 $END                                                            
 INPUT CARD> $SCF DIRSCF=.TRUE. NPUNCH=0 $END                                               
 INPUT CARD>!*** NumCPU : 2  MemPerNode : 512MB                                             
 INPUT CARD> $PCM SOLVNT=WATER IEF=-10 ICOMP=2 ICAV=1 IDISP=1 IFMO=-1 $END                  
 INPUT CARD> $PCMCAV RADII=SUAHF $END                                                       
 INPUT CARD> $TESCAV NTSALL=60 $END                                                         
 INPUT CARD> $FMOPRP                                                                        
 INPUT CARD>    NAODIR=200                                                                  
 INPUT CARD>    NGRFMO(1)=1, 1, 0, 0, 0,   0, 0, 0, 0, 0                                    
 INPUT CARD>    IPIEDA=1                                                                    
 INPUT CARD>    NPRINT=9                                                                    
 INPUT CARD> $END                                                                           
 INPUT CARD> $FMO                                                                           
 INPUT CARD>      SCFTYP(1)=RHF                                                             
 INPUT CARD>      MODGRD=10                                                                 
 INPUT CARD>      MODMUL=0                                                                  
 INPUT CARD>      MAXCAO=5                                                                  
 INPUT CARD>      MAXBND=13                                                                 
 INPUT CARD>      NLAYER=1                                                                  
 INPUT CARD>      MPLEVL(1)=2                                                               
 INPUT CARD>      NFRAG=11                                                                  
 INPUT CARD>      ICHARG(1)=-1, -1, -1, -1, -1, -1, -1, -1, -1, -1, 0                       
 INPUT CARD>      FRGNAM(1)=F1, F2, F3, F4, F5, F6, F7, F8, F9, F10, F11                    
 INPUT CARD>      indat(1)=0                                                                
 INPUT CARD>               1   -35   0                                                      
 INPUT CARD>               36   -66   0                                                     
 INPUT CARD>               67   -97   0                                                     
 INPUT CARD>               98   -127   0                                                    
 INPUT CARD>               128   -157   0                                                   
 INPUT CARD>               158   -188   0                                                   
 INPUT CARD>               189   -219   0                                                   
 INPUT CARD>               220   -252   0                                                   
 INPUT CARD>               253   -285   0                                                   
 INPUT CARD>               286   -319   0                                                   
 INPUT CARD>               320   -346   0                                                   
 INPUT CARD> $END                                                                           
 INPUT CARD>                                                                                
 INPUT CARD> $FMOBND                                                                        
 INPUT CARD>   -36   35       6-31G*    MINI                                                
 INPUT CARD>   -67   66       6-31G*    MINI                                                
 INPUT CARD>   -98   97       6-31G*    MINI                                                
 INPUT CARD>   -128   127       6-31G*    MINI                                              
 INPUT CARD>   -158   157       6-31G*    MINI                                              
 INPUT CARD>   -189   188       6-31G*    MINI                                              
 INPUT CARD>   -220   219       6-31G*    MINI                                              
 INPUT CARD>   -253   252       6-31G*    MINI                                              
 INPUT CARD>   -286   285       6-31G*    MINI                                              


 -------------------------------------------------------------
 GROUP DDI, PROGRAMMED BY: RYAN M. OLSON AND DMITRI G. FEDOROV
        FEDOROV ET AL., J. COMPUT. CHEM., 25 (2004) 872.
 -------------------------------------------------------------

 -------------------------------------------------------
 GDDI: INITIALIZATION COMPLETED FOR GROUP     1 OF     1
 WITH    16 PROCESSES BALTYP=DLB   global rank=        0
 -------------------------------------------------------

   63000000 WORDS OF MEMORY AVAILABLE


     RUN TITLE
     ---------
  FMO calculation                                                                

 THE POINT GROUP OF THE MOLECULE IS C1      
 THE ORDER OF THE PRINCIPAL AXIS IS     0

 ATOM   ATOMIC CHARGE
 H.1-1       1.0
 O.1-1       8.0
 C.1-1       6.0
 N.1-1       7.0
 P.1-1      15.0

     ATOMIC BASIS SET LIBRARY
     ----------------
 THE CONTRACTED PRIMITIVE FUNCTIONS HAVE BEEN UNNORMALIZED
 THE CONTRACTED BASIS FUNCTIONS ARE NOW NORMALIZED TO UNITY

  SHELL TYPE  PRIMITIVE        EXPONENT          CONTRACTION COEFFICIENT(S)

 H.1-1     

      1   S       1            18.7311370    0.033494604338
      1   S       2             2.8253944    0.234726953484
      1   S       3             0.6401217    0.813757326146

      2   S       4             0.1612778    1.000000000000

 O.1-1     

      3   S       5          5484.6716600    0.001831074430
      3   S       6           825.2349460    0.013950172200
      3   S       7           188.0469580    0.068445078098
      3   S       8            52.9645000    0.232714335992
      3   S       9            16.8975704    0.470192897984
      3   S      10             5.7996353    0.358520852987

      4   L      11            15.5396162   -0.110777549525    0.070874268231
      4   L      12             3.5999336   -0.148026262701    0.339752839147
      4   L      13             1.0137618    1.130767015354    0.727158577316

      5   L      14             0.2700058    1.000000000000    1.000000000000

      6   D      15             0.8000000    1.000000000000

 C.1-1     

      7   S      16          3047.5248800    0.001834737132
      7   S      17           457.3695180    0.014037322813
      7   S      18           103.9486850    0.068842622264
      7   S      19            29.2101553    0.232184443216
      7   S      20             9.2866630    0.467941348435
      7   S      21             3.1639270    0.362311985337

      8   L      22             7.8682723   -0.119332419775    0.068999066591
      8   L      23             1.8812885   -0.160854151696    0.316423960957
      8   L      24             0.5442493    1.143456437840    0.744308290898

      9   L      25             0.1687145    1.000000000000    1.000000000000

     10   D      26             0.8000000    1.000000000000

 N.1-1     

     11   S      27          4173.5114600    0.001834772160
     11   S      28           627.4579110    0.013994627002
     11   S      29           142.9020930    0.068586551812
     11   S      30            40.2343293    0.232240873040
     11   S      31            12.8202129    0.469069948082
     11   S      32             4.3904370    0.360455199063

     12   L      33            11.6263619   -0.114961181702    0.067579743878
     12   L      34             2.7162798   -0.169117478561    0.323907295893
     12   L      35             0.7722184    1.145851947027    0.740895139755

     13   L      36             0.2120315    1.000000000000    1.000000000000

     14   D      37             0.8000000    1.000000000000

 P.1-1     

     15   S      38         19413.3000000    0.001851598923
     15   S      39          2909.4200000    0.014206191735
     15   S      40           661.3640000    0.069999459277
     15   S      41           185.7590000    0.240078860331
     15   S      42            59.1943000    0.484761717984
     15   S      43            20.0310000    0.335199804993

     16   L      44           339.4780000   -0.002782170105    0.004564616191
     16   L      45            81.0101000   -0.036049901354    0.033693571881
     16   L      46            25.8780000   -0.116631004382    0.139754883368
     16   L      47             9.4522100    0.096832803638    0.339361716786
     16   L      48             3.6656600    0.614418023082    0.450920623685
     16   L      49             1.4674600    0.403798015170    0.238585800889

     17   L      50             2.1562300   -0.252924113863   -0.017765312733
     17   L      51             0.7489970    0.032851844678    0.274058196433
     17   L      52             0.2831450    1.081254761783    0.785421562957

     18   L      53             0.0998317    1.000000000000    1.000000000000

     19   D      54             0.5500000    1.000000000000

 TOTAL NUMBER OF BASIS SET SHELLS             =   19
 NUMBER OF CARTESIAN GAUSSIAN BASIS FUNCTIONS =   66

     $CONTRL OPTIONS
     ---------------
 SCFTYP=RHF          RUNTYP=ENERGY       EXETYP=RUN     
 MPLEVL=       0     CITYP =NONE         CCTYP =NONE         VBTYP =NONE    
 DFTTYP=NONE         TDDFT =NONE    
 MULT  =       1     ICHARG=       0     NZVAR =       0     COORD =UNIQUE  
 PP    =NONE         RELWFN=NONE         LOCAL =NONE         NUMGRD=       F
 ISPHER=       1     NOSYM =       0     MAXIT =     200     UNITS =ANGS    
 PLTORB=       F     MOLPLT=       F     AIMPAC=       F     FRIEND=        
 NPRINT=      -5     IREST =       0     GEOM  =INPUT   
 NORMF =       0     NORMP =       0     ITOL  =      24     ICUT  =      12
 INTTYP=BEST         GRDTYP=BEST         QMTTOL= 1.0E-06

     $SYSTEM OPTIONS
     ---------------
  REPLICATED MEMORY=    63000000 WORDS (ON EVERY NODE).
 DISTRIBUTED MEMDDI=          63 MILLION WORDS IN AGGREGATE,
 MEMDDI DISTRIBUTED OVER  16 PROCESSORS IS     3937500 WORDS/PROCESSOR.
 TOTAL MEMORY REQUESTED ON EACH PROCESSOR=    66937500 WORDS.
 TIMLIM=      525600.00 MINUTES, OR     365.0 DAYS.
 PARALL= T  BALTYP=  DLB     KDIAG=    0  COREFL= F
 MXSEQ2=     300 MXSEQ3=     150  mem10=         0

 ** LOOKING UP INTERNALLY STORED DATA FOR SOLVENT=WATER    **
 OPTICAL AND PHYSICAL CONSTANTS:
 EPS= 78.390; EPSINF=  1.776; RSOLV=  1.385 A; VMOL=  18.070 ML/MOL;
 TCE= .25700E-03 1/K; STEN= 71.810 DYN/CM;  DSTEN=  0.6500; CMF=  1.2770


     -----------------------------------
     INPUT FOR PCM SOLVATION CALCULATION 
     -----------------------------------
     IEF   =     -10
     ICOMP =       2     IFIELD=       0     ICAV  =       1
     IDISP =       1     IREP  =       0     IDP   =       0

     SOLVNT=WATER        EPS   = 78.3900     EPSINF=  1.7760
     VMOL  = 18.0700     TCE   =  0.00025700 STEN  = 71.8100
     DSTEN =  0.6500     CMF   =  1.2770     RSOLV =  1.3850

     NESFP =       0
     OMEGA = 40.0000     RET   =100.0000     FRO   =  0.7000

     TABS  =298.0000     IPRINT=       0

     --------------------------------
     INPUT FOR ITERATIVE C-PCM METHOD 
     --------------------------------
     IPCMIT  =         1     MXDIIS  =        50
     MXITR1  =       200     MXITR2  =       200
     THRES   = 0.100E-09     IMUL    =         3
     RCUT(1) =   20.0000     RCUT(2) =   50.0000

     IDIRCT  =         1
     IMGABI  =         0     RABI    =    4.0000
     IMGASC  =         0     RASC    =   20.0000
     THRSLS  = 0.500E-03     DENSLS  =    0.0100
     IEFPOL  =         1     REFPOL  =    0.0000

     INPUT FOR ISOTROPIC DIELECTRICS
     -------------------------------
     EPS=    78.39

          ----------------
          PROPERTIES INPUT
          ----------------

     MOMENTS            FIELD           POTENTIAL          DENSITY
 IEMOM =       1   IEFLD =       0   IEPOT =       0   IEDEN =       0
 WHERE =COMASS     WHERE =NUCLEI     WHERE =NUCLEI     WHERE =NUCLEI  
 OUTPUT=BOTH       OUTPUT=BOTH       OUTPUT=NONE       OUTPUT=BOTH    
 IEMINT=       0   IEFINT=       0                     IEDINT=       0
                                                       MORB  =       0
          EXTRAPOLATION IN EFFECT
          SOSCF IN EFFECT
 ORBITAL PRINTING OPTION: NPREO=     1 32767     2     1

     -------------------------------
     INTEGRAL TRANSFORMATION OPTIONS
     -------------------------------
     NWORD  =            0
     CUTOFF = 1.0E-10     MPTRAN =       0
     DIRTRF =       T     AOINTS =DUP     

          ----------------------
          INTEGRAL INPUT OPTIONS
          ----------------------
 NOPK  =       1 NORDER=       0 SCHWRZ=       T

 ..... DONE SETTING UP THE RUN .....
 CPU     0: STEP CPU TIME=     0.04 TOTAL CPU TIME=          0.0 (      0.0 MIN)
 TOTAL WALL CLOCK TIME=          0.1 SECONDS, CPU UTILIZATION IS    50.00%
 CPU     0: STEP CPU TIME=     0.00 TOTAL CPU TIME=          0.0 (      0.0 MIN)
 TOTAL WALL CLOCK TIME=          0.1 SECONDS, CPU UTILIZATION IS    50.00%

                    ----------------------
                    AO INTEGRAL TECHNOLOGY
                    ----------------------
     S,P,L SHELL ROTATED AXIS INTEGRALS, REPROGRAMMED BY
        KAZUYA ISHIMURA (IMS) AND JOSE SIERRA (SYNSTAR).
     S,P,D,L SHELL ROTATED AXIS INTEGRALS PROGRAMMED BY
        KAZUYA ISHIMURA (INSTITUTE FOR MOLECULAR SCIENCE).
     S,P,D,F,G SHELL TO TOTAL QUARTET ANGULAR MOMENTUM SUM 5,
        ERIC PROGRAM BY GRAHAM FLETCHER (ELORET AND NASA ADVANCED
        SUPERCOMPUTING DIVISION, AMES RESEARCH CENTER).
     S,P,D,F,G,L SHELL GENERAL RYS QUADRATURE PROGRAMMED BY
        MICHEL DUPUIS (PACIFIC NORTHWEST NATIONAL LABORATORY).
 Setting modorb=1 flag...
 Setting modorb=1 flag...

          -----------------------
          MP2 CONTROL INFORMATION
          -----------------------
          NACORE =        8  NBCORE =        8
          LMOMP2 =        F  AOINTS = DUP     
          METHOD =        2  NWORD  =               0
          MP2PRP =        F  OSPT   = NONE    
          CUTOFF = 1.00E-12  CPHFBS = BASISAO 
          CODE   = IMS     

          NUMBER OF CORE -A-  ORBITALS =     8
          NUMBER OF CORE -B-  ORBITALS =     8
          NUMBER OF OCC. -A-  ORBITALS =    18
          NUMBER OF OCC. -B-  ORBITALS =    18
          NUMBER OF MOLECULAR ORBITALS =    66
          NUMBER OF   BASIS  FUNCTIONS =    66

 CPU     0: STEP CPU TIME=     0.02 TOTAL CPU TIME=          0.1 (      0.0 MIN)
 TOTAL WALL CLOCK TIME=          0.1 SECONDS, CPU UTILIZATION IS    46.15%
 CPU     0: STEP CPU TIME=     0.00 TOTAL CPU TIME=          0.1 (      0.0 MIN)
 TOTAL WALL CLOCK TIME=          0.1 SECONDS, CPU UTILIZATION IS    46.15%

     INPUT FOR CAVITY DEFINITION 
     ---------------------------
   ATOM               COORDINATES                RADIUS       EPS
      1     -4.3630    -10.5450      8.8010      0.0100     78.3900
      2     -3.7120    -10.1940      8.1650      1.5900     78.3900
      3     -4.4530     -9.6690      7.0550      1.7700     78.3900
      4     -5.1670     -8.8970      7.4250      0.0100     78.3900
      5     -5.0520    -10.4850      6.5940      0.0100     78.3900
      6     -3.5610     -9.0560      5.9730      1.7700     78.3900
      7     -4.1840     -8.7040      5.1210      0.0100     78.3900
      8     -2.8490     -7.8990      6.5030      1.5900     78.3900
      9     -1.5400     -7.8660      5.9570      1.7700     78.3900
     10     -1.4140     -6.8700      5.4710      0.0100     78.3900
     11     -0.5260     -8.0140      7.0090      1.6800     78.3900
     12      1.3530     -7.9460      8.1540      1.7700     78.3900
     13      0.3870     -8.4440      9.0210      1.6800     78.3900
     14     -0.7060     -8.4680      8.2960      1.7700     78.3900
     15     -1.6850     -8.8090      8.6420      0.0100     78.3900
     16      3.4030     -7.1830      7.2480      1.6800     78.3900
     17      2.7400     -7.0060      6.1000      1.7700     78.3900
     18      3.3370     -6.6090      5.2720      0.0100     78.3900
     19      1.4400     -7.1880      5.8360      1.6800     78.3900
     20      0.8020     -7.6810      6.9110      1.7700     78.3900
     21      2.7260     -7.6590      8.3220      1.7700     78.3900
     22      3.3920     -7.8250      9.4790      1.6800     78.3900
     23      2.9460     -8.2120     10.2930      0.0100     78.3900
     24      4.3860     -7.7010      9.5080      0.0100     78.3900
     25     -1.4550     -8.9530      4.9060      1.7700     78.3900
     26     -0.4390     -9.3880      4.8250      0.0100     78.3900
     27     -1.8570     -8.4440      3.6470      1.5900     78.3900
     28     -1.8020     -9.1840      3.0340      0.0100     78.3900
     29     -2.4550     -9.9770      5.4340      1.7700     78.3900
     30     -2.0290    -10.5120      6.3150      0.0100     78.3900
     31     -3.0000    -10.8740      4.4370      1.5900     78.3900
     32     -2.2940    -12.2600      4.1810      2.1000     78.3900
     33     -2.0060    -12.8920      5.4820      1.5900     78.3900
     34     -3.1090    -13.0370      3.2240      1.5900     78.3900
     35     -0.9360    -11.8590      3.5030      1.5900     78.3900
     36     -0.9140    -11.3090      2.1640      1.7700     78.3900
     37     -1.6130    -10.4500      2.0580      0.0100     78.3900
     38     -1.2230    -12.0820      1.4260      0.0100     78.3900
     39      0.4930    -10.8270      1.7830      1.7700     78.3900
     40      0.4850    -10.3240      0.7910      0.0100     78.3900
     41      0.9690     -9.8380      2.7470      1.5900     78.3900
     42      2.3670    -10.0260      2.9420      1.7700     78.3900
     43      2.8340     -9.0440      2.6990      0.0100     78.3900
     44      2.7220    -10.3780      4.3520      1.6800     78.3900
     45      1.7770    -10.9170      5.1970      1.7700     78.3900
     46      0.7880    -11.0670      4.7640      0.0100     78.3900
     47      2.0600    -11.1980      6.4780      1.7700     78.3900
     48      1.3140    -11.5870      7.1700      0.0100     78.3900
     49      4.0240    -10.1900      4.8130      1.7700     78.3900
     50      4.8910     -9.7700      4.0320      1.5900     78.3900
     51      4.3190    -10.4460      6.1030      1.6800     78.3900
     52      3.3810    -10.9150      6.9350      1.7700     78.3900
     53      3.7100    -11.0980      8.2070      1.6800     78.3900
     54      4.6660    -10.9240      8.4580      0.0100     78.3900
     55      3.1720    -11.6840      8.8180      0.0100     78.3900
     56      2.8380    -11.0440      1.9200      1.7700     78.3900
     57      3.7100    -11.6050      2.2780      0.0100     78.3900
     58      3.1990    -10.4080      0.7090      1.5900     78.3900
     59      3.3470    -11.1030      0.0480      0.0100     78.3900
     60      1.5890    -11.9050      1.7570      1.7700     78.3900
     61      1.4380    -12.5370      2.6640      0.0100     78.3900
     62      1.5220    -12.6480      0.5190      1.5900     78.3900
     63      1.6920    -14.2110      0.4960      2.1000     78.3900
     64      0.9310    -14.8240      1.6050      1.5900     78.3900
     65      1.4010    -14.7140     -0.8630      1.5900     78.3900
     66      3.2220    -14.4250      0.7910      1.5900     78.3900
     67      3.8060    -15.7460      0.6460      1.7700     78.3900
     68      3.3800    -16.3110     -0.2170      0.0100     78.3900
     69      3.6170    -16.3430      1.5670      0.0100     78.3900
     70      5.3240    -15.6530      0.4190      1.7700     78.3900
     71      5.5360    -15.0990     -0.5260      0.0100     78.3900
     72      5.9200    -14.9080      1.5070      1.5900     78.3900
     73      7.1010    -15.5190      1.9560      1.7700     78.3900
     74      7.8600    -14.7030      1.9140      0.0100     78.3900
     75      6.9860    -16.0310      3.3530      1.6800     78.3900
     76      5.8480    -16.6860      3.7800      1.7700     78.3900
     77      5.0360    -16.7830      3.0590      0.0100     78.3900
     78      5.7420    -17.1490      5.0340      1.7700     78.3900
     79      4.8550    -17.6600      5.3990      0.0100     78.3900
     80      8.0420    -15.8440      4.2410      1.7700     78.3900
     81      9.0630    -15.2530      3.8520      1.5900     78.3900
     82      7.9500    -16.3060      5.5000      1.6800     78.3900
     83      6.8570    -16.9700      5.9010      1.7700     78.3900
     84      6.8390    -17.4850      7.1190      1.6800     78.3900
     85      7.5000    -17.1300      7.7890      0.0100     78.3900
     86      5.9840    -17.8110      7.5320      0.0100     78.3900
     87      7.4660    -16.5800      0.9490      1.7700     78.3900
     88      7.9880    -17.4420      1.4020      0.0100     78.3900
     89      8.2700    -16.0140     -0.0690      1.5900     78.3900
     90      7.7450    -15.3500     -0.5450      0.0100     78.3900
     91      6.0890    -16.9820      0.4260      1.7700     78.3900
     92      5.5730    -17.6090      1.1900      0.0100     78.3900
     93      6.0980    -17.5670     -0.8970      1.5900     78.3900
     94      5.7680    -19.0990     -1.0290      2.1000     78.3900
     95      4.4460    -19.3390     -0.4130      1.5900     78.3900
     96      5.9250    -19.4990     -2.4470      1.5900     78.3900
     97      6.9150    -19.8330     -0.2150      1.5900     78.3900
     98      7.0410    -21.2820     -0.3360      1.7700     78.3900
     99      8.0830    -21.5280     -0.6460      0.0100     78.3900
    100      6.3810    -21.7190     -1.1280      0.0100     78.3900
    101      6.7360    -22.0540      0.9680      1.7700     78.3900
    102      6.6350    -23.1410      0.7320      0.0100     78.3900
    103      7.8310    -21.9120      1.9180      1.5900     78.3900
    104      7.4000    -21.1650      3.0540      1.7700     78.3900
    105      7.1920    -21.9180      3.8540      0.0100     78.3900
    106      8.4420    -20.1890      3.4470      1.6800     78.3900
    107      9.0880    -19.4640      2.4740      1.7700     78.3900
    108      8.7830    -19.6760      1.4440      0.0100     78.3900
    109      8.7650    -20.0490      4.7750      1.7700     78.3900
    110      8.2350    -20.7070      5.6630      1.5900     78.3900
    111      9.7630    -19.1410      5.0290      1.6800     78.3900
    112      9.9560    -18.9590      5.9950      0.0100     78.3900
    113     10.4970    -18.4240      4.1040      1.7700     78.3900
    114     11.4440    -17.7280      4.4660      1.5900     78.3900
    115     10.0820    -18.6090      2.7490      1.7700     78.3900
    116     10.6260    -18.0900      1.9630      0.0100     78.3900
    117      6.0980    -20.5000      2.6600      1.7700     78.3900
    118      6.3050    -19.5820      2.0750      0.0100     78.3900
    119      5.2550    -20.1620      3.7450      1.5900     78.3900
    120      4.9520    -20.9730      4.1710      0.0100     78.3900
    121      5.5050    -21.5750      1.7570      1.7700     78.3900
    122      4.8360    -21.0930      1.0160      0.0100     78.3900
    123      4.8560    -22.6630      2.4670      1.5900     78.3900
    124      3.2950    -22.8160      2.3130      2.1000     78.3900
    125      2.6810    -21.4990      2.0410      1.5900     78.3900
    126      2.9820    -23.9210      1.3780      1.5900     78.3900
    127      2.8880    -23.2830      3.7500      1.5900     78.3900
    128      3.0000    -22.4190      4.8980      1.7700     78.3900
    129      2.4950    -21.4430      4.7080      0.0100     78.3900
    130      4.0690    -22.2140      5.1330      0.0100     78.3900
    131      2.3670    -23.0410      6.1550      1.7700     78.3900
    132      2.6170    -22.4080      7.0350      0.0100     78.3900
    133      0.9170    -23.1030      6.0050      1.5900     78.3900
    134      0.4960    -24.4510      5.9680      1.7700     78.3900
    135      0.1510    -24.6680      7.0090      0.0100     78.3900
    136     -0.5820    -24.6180      4.9620      1.6800     78.3900
    137     -0.2970    -24.4650      3.6260      1.7700     78.3900
    138      0.7460    -24.2590      3.3830      0.0100     78.3900
    139     -1.8730    -24.8350      5.3900      1.7700     78.3900
    140     -2.1740    -24.9200      6.5770      1.5900     78.3900
    141     -2.8030    -24.9530      4.3860      1.6800     78.3900
    142     -3.7480    -25.1280      4.6850      0.0100     78.3900
    143     -2.5870    -24.8420      3.0290      1.7700     78.3900
    144     -3.5200    -24.9890      2.2390      1.5900     78.3900
    145     -1.2290    -24.5710      2.6670      1.7700     78.3900
    146     -0.9810    -24.4850      1.6140      0.0100     78.3900
    147      1.7270    -25.3080      5.6990      1.7700     78.3900
    148      1.9650    -25.3440      4.6160      0.0100     78.3900
    149      1.6050    -26.6280      6.1990      1.5900     78.3900
    150      1.6090    -26.5590      7.1670      0.0100     78.3900
    151      2.7940    -24.4980      6.4350      1.7700     78.3900
    152      3.7760    -24.6570      5.9300      0.0100     78.3900
    153      2.8340    -24.7800      7.8540      1.5900     78.3900
    154      4.1940    -25.1100      8.5720      2.1000     78.3900
    155      3.8910    -25.6780      9.9050      1.5900     78.3900
    156      5.0430    -25.9240      7.6770      1.5900     78.3900
    157      4.8690    -23.7090      8.7940      1.5900     78.3900
    158      6.2850    -23.6240      9.0600      1.7700     78.3900
    159      6.8010    -23.2940      8.1380      0.0100     78.3900
    160      6.7320    -24.6050      9.3580      0.0100     78.3900
    161      6.5750    -22.6130     10.1700      1.7700     78.3900
    162      5.9460    -22.8050     11.0680      0.0100     78.3900
    163      7.9600    -22.7930     10.5800      1.5900     78.3900
    164      8.5340    -21.5340     10.8910      1.7700     78.3900
    165      8.8590    -21.6130     11.9550      0.0100     78.3900
    166      9.7020    -21.2350     10.0150      1.6800     78.3900
    167      9.6280    -21.5420      8.6730      1.7700     78.3900
    168      8.7000    -22.0010      8.3250      0.0100     78.3900
    169     10.6600    -21.3200      7.8500      1.7700     78.3900
    170     10.6250    -21.5760      6.7930      0.0100     78.3900
    171     10.8680    -20.6620     10.5310      1.7700     78.3900
    172     10.9250    -20.3930     11.7410      1.5900     78.3900
    173     11.9190    -20.4350      9.7070      1.6800     78.3900
    174     11.8420    -20.7530      8.4050      1.7700     78.3900
    175     12.8970    -20.5460      7.6230      1.6800     78.3900
    176     13.7340    -20.1750      8.0250      0.0100     78.3900
    177     12.9210    -20.8340      6.6630      0.0100     78.3900
    178      7.4350    -20.4870     10.8000      1.7700     78.3900
    179      7.8050    -19.5150     10.4190      0.0100     78.3900
    180      6.8170    -20.3110     12.0610      1.5900     78.3900
    181      6.0850    -19.6980     11.9400      0.0100     78.3900
    182      6.4810    -21.1250      9.8000      1.7700     78.3900
    183      6.9220    -21.0110      8.7820      0.0100     78.3900
    184      5.1170    -20.6580      9.9020      1.5900     78.3900
    185      4.3610    -20.2190      8.5790      2.1000     78.3900
    186      5.0400    -20.7480      7.3800      1.5900     78.3900
    187      2.9140    -20.4970      8.7230      1.5900     78.3900
    188      4.5380    -18.6550      8.5840      1.5900     78.3900
    189      3.7220    -17.7790      9.4010      1.7700     78.3900
    190      3.2690    -18.2930     10.2750      0.0100     78.3900
    191      2.8710    -17.3990      8.7900      0.0100     78.3900
    192      4.5550    -16.5940      9.9130      1.7700     78.3900
    193      5.3510    -16.9770     10.5860      0.0100     78.3900
    194      5.2040    -15.9150      8.8170      1.5900     78.3900
    195      4.7100    -14.6130      8.6760      1.7700     78.3900
    196      5.4410    -13.9510      9.1760      0.0100     78.3900
    197      4.6030    -14.2880      7.2460      1.6800     78.3900
    198      3.5320    -14.7680      6.5270      1.7700     78.3900
    199      2.7760    -15.3590      7.0500      0.0100     78.3900
    200      3.4240    -14.5290      5.2180      1.7700     78.3900
    201      2.5750    -14.8820      4.6330      0.0100     78.3900
    202      5.6630    -13.6420      6.5910      1.7700     78.3900
    203      6.6740    -13.3060      7.2300      1.5900     78.3900
    204      5.5610    -13.4010      5.2660      1.6800     78.3900
    205      4.4750    -13.8100      4.5990      1.7700     78.3900
    206      4.3950    -13.5540      3.3220      1.6800     78.3900
    207      5.2500    -13.2840      2.8830      0.0100     78.3900
    208      3.7490    -14.0250      2.7190      0.0100     78.3900
    209      3.4150    -14.5520      9.4580      1.7700     78.3900
    210      2.5540    -14.9580      8.8930      0.0100     78.3900
    211      3.1280    -13.2500      9.9180      1.5900     78.3900
    212      3.7860    -13.0580     10.6070      0.0100     78.3900
    213      3.7440    -15.4900     10.6160      1.7700     78.3900
    214      2.7800    -15.9170     10.9780      0.0100     78.3900
    215      4.4870    -14.8530     11.6850      1.5900     78.3900
    216      4.5790    -15.5940     13.0730      2.1000     78.3900
    217      4.5430    -14.5710     14.1340      1.5900     78.3900
    218      3.5490    -16.6510     13.1500      1.5900     78.3900
    219      6.0020    -16.2680     13.0450      1.5900     78.3900
    220      6.4770    -16.9360     14.2420      1.7700     78.3900
    221      6.0790    -17.9760     14.2800      0.0100     78.3900
    222      6.1540    -16.4190     15.1800      0.0100     78.3900
    223      8.0100    -17.0040     14.2820      1.7700     78.3900
    224      8.3590    -17.4280     15.2500      0.0100     78.3900
    225      8.4820    -17.8950     13.2450      1.5900     78.3900
    226      9.7090    -17.4220     12.7280      1.7700     78.3900
    227     10.4560    -18.2290     12.9080      0.0100     78.3900
    228      9.6010    -17.1840     11.2890      1.6800     78.3900
    229     10.0630    -16.9250      9.1660      1.7700     78.3900
    230      8.6820    -16.9060      9.2600      1.6800     78.3900
    231      8.4540    -17.0520     10.5370      1.7700     78.3900
    232      7.4650    -17.1020     11.0030      0.0100     78.3900
    233     12.2630    -16.8910      8.2980      1.6800     78.3900
    234     12.6750    -17.0490      9.5590      1.7700     78.3900
    235     13.7600    -17.1000      9.6900      0.0100     78.3900
    236     11.9560    -17.1510     10.6830      1.6800     78.3900
    237     10.6420    -17.0880     10.4070      1.7700     78.3900
    238     10.9310    -16.8260      8.0680      1.7700     78.3900
    239     10.4820    -16.6720      6.8210      1.6800     78.3900
    240      9.5180    -16.4590      6.6130      0.0100     78.3900
    241     11.1230    -16.6410      6.0520      0.0100     78.3900
    242     10.1060    -16.1790     13.5040      1.7700     78.3900
    243     10.5690    -15.4050     12.8540      0.0100     78.3900
    244     10.9880    -16.5160     14.5600      1.5900     78.3900
    245     11.1420    -15.7090     15.0730      0.0100     78.3900
    246      8.7570    -15.6850     14.0300      1.7700     78.3900
    247      8.1990    -15.1770     13.2130      0.0100     78.3900
    248      8.8160    -14.8850     15.2430      1.5900     78.3900
    249      9.1390    -13.3420     15.0750      2.1000     78.3900
    250      8.3470    -12.7970     13.9510      1.5900     78.3900
    251      8.9610    -12.6970     16.3920      1.5900     78.3900
    252     10.6690    -13.2670     14.7000      1.5900     78.3900
    253     11.1890    -12.0440     14.1010      1.7700     78.3900
    254     11.4500    -11.3090     14.8950      0.0100     78.3900
    255     10.4400    -11.5560     13.4300      0.0100     78.3900
    256     12.4440    -12.3020     13.2420      1.7700     78.3900
    257     13.3200    -12.5140     13.8910      0.0100     78.3900
    258     12.2360    -13.4890     12.4180      1.5900     78.3900
    259     12.7500    -13.2780     11.1180      1.7700     78.3900
    260     13.4410    -14.1310     10.9200      0.0100     78.3900
    261     11.6770    -13.2840     10.1210      1.6800     78.3900
    262     10.5630    -13.3780      8.2290      1.7700     78.3900
    263      9.6180    -13.2620      9.2330      1.6800     78.3900
    264     10.3210    -13.2040     10.3330      1.7700     78.3900
    265      9.9060    -13.1060     11.3400      0.0100     78.3900
    266     11.6070    -13.5960      6.1170      1.6800     78.3900
    267     12.7600    -13.6350      6.7850      1.7700     78.3900
    268     13.6540    -13.7440      6.1600      0.0100     78.3900
    269     13.0010    -13.4940      8.0930      1.6800     78.3900
    270     11.8410    -13.3910      8.7650      1.7700     78.3900
    271     10.4580    -13.4710      6.8240      1.7700     78.3900
    272      9.2930    -13.4810      6.1590      1.6800     78.3900
    273      8.4290    -13.5040      6.6850      0.0100     78.3900
    274      9.2780    -13.9690      5.2850      0.0100     78.3900
    275     13.5260    -11.9790     11.1270      1.7700     78.3900
    276     13.4750    -11.4390     10.1560      0.0100     78.3900
    277     14.8790    -12.2290     11.4590      1.5900     78.3900
    278     15.2790    -11.3840     11.7160      0.0100     78.3900
    279     12.8110    -11.1970     12.2220      1.7700     78.3900
    280     11.8400    -10.8160     11.8250      0.0100     78.3900
    281     13.6380    -10.1670     12.8220      1.5900     78.3900
    282     13.2150     -8.6560     12.7120      2.1000     78.3900
    283     11.8910     -8.4990     13.3490      1.5900     78.3900
    284     14.3050     -7.7920     13.2220      1.5900     78.3900
    285     13.0460     -8.3880     11.1690      1.5900     78.3900
    286     14.1960     -8.3130     10.2940      1.7700     78.3900
    287     14.8370     -9.2220     10.3820      0.0100     78.3900
    288     14.8190     -7.4240     10.5480      0.0100     78.3900
    289     13.7830     -8.1880      8.8210      1.7700     78.3900
    290     14.6750     -8.0520      8.1720      0.0100     78.3900
    291     13.1370     -9.4250      8.3900      1.5900     78.3900
    292     12.0470     -9.1100      7.5330      1.7700     78.3900
    293     12.1740     -9.7100      6.6030      0.0100     78.3900
    294     10.7640     -9.4520      8.1590      1.6800     78.3900
    295      9.5620     -9.6310      7.5310      1.7700     78.3900
    296      7.6400     -9.6470      4.6520      1.6800     78.3900
    297      8.2980     -9.4170      3.9400      0.0100     78.3900
    298      6.6730     -9.7680      4.4120      0.0100     78.3900
    299      9.3350     -9.5090      6.2120      1.6800     78.3900
    300      8.0640     -9.7590      5.8980      1.7700     78.3900
    301      7.1080    -10.0760      6.8260      1.6800     78.3900
    302      6.1810    -10.3020      6.5000      0.0100     78.3900
    303      7.3160    -10.2160      8.1920      1.7700     78.3900
    304      6.3970    -10.4990      8.9660      1.5900     78.3900
    305      8.6640     -9.9400      8.5360      1.7700     78.3900
    306      9.2900     -9.9390      9.7740      1.6800     78.3900
    307     10.5320     -9.6500      9.4980      1.7700     78.3900
    308     11.3330     -9.5640     10.2300      0.0100     78.3900
    309     12.1410     -7.6350      7.2080      1.7700     78.3900
    310     11.1500     -7.1790      7.0100      0.0100     78.3900
    311     12.9790     -7.4470      6.0850      1.5900     78.3900
    312     13.1140     -6.4960      5.9920      0.0100     78.3900
    313     12.7730     -7.0810      8.4810      1.7700     78.3900
    314     12.0270     -7.0710      9.3090      0.0100     78.3900
    315     13.4610     -5.8190      8.3200      1.5900     78.3900
    316     12.7270     -4.4810      8.7120      2.1000     78.3900
    317     11.9960     -4.6670      9.9810      1.5900     78.3900
    318     13.7000     -3.3660      8.6590      1.5900     78.3900
    319     11.6680     -4.3140      7.5690      1.5900     78.3900
    320     12.0660     -4.0860      6.2010      1.7700     78.3900
    321     12.7960     -4.8470      5.8430      0.0100     78.3900
    322     12.5580     -3.0900      6.1100      0.0100     78.3900
    323     10.8480     -4.0980      5.2640      1.7700     78.3900
    324     11.1450     -3.8680      4.2200      0.0100     78.3900
    325     10.2140     -5.4110      5.2560      1.5900     78.3900
    326      8.7990     -5.2510      5.1920      1.7700     78.3900
    327      8.4690     -5.8170      4.2880      0.0100     78.3900
    328      8.1260     -5.7940      6.4080      1.6800     78.3900
    329      8.8200     -5.9750      7.5850      1.7700     78.3900
    330      9.8740     -5.7130      7.5490      0.0100     78.3900
    331      6.7910     -6.1160      6.3270      1.7700     78.3900
    332      6.1320     -5.9480      5.3060      1.5900     78.3900
    333      6.2470     -6.6330      7.4740      1.6800     78.3900
    334      5.2610     -6.8650      7.4190      0.0100     78.3900
    335      6.8810     -6.8480      8.6790      1.7700     78.3900
    336      6.2550     -7.3100      9.6290      1.5900     78.3900
    337      8.2660     -6.4900      8.6910      1.7700     78.3900
    338      8.8430     -6.6520      9.6000      0.0100     78.3900
    339      8.5200     -3.7660      4.9780      1.7700     78.3900
    340      7.5760     -3.4410      5.4720      0.0100     78.3900
    341      8.4780     -3.4690      3.5890      1.5900     78.3900
    342      8.3810     -2.5070      3.4740      0.0100     78.3900
    343      9.7260     -3.1410      5.6680      1.7700     78.3900
    344      9.6030     -3.1940      6.7710      0.0100     78.3900
    345     10.0340     -1.7980      5.2540      1.5900     78.3900
    346      9.3110     -1.1920      5.5050      0.0100     78.3900

     ----------------------------
     INPUT FOR TESSERA DEFINITION
     ----------------------------
     NTSALL  =        60     MTHALL  =         4
     MTHAUT  =         0     AUTFRE  =    2.0000
     NTSFRZ  =        60     KEEPSM  =         0
     AREAKP  =   10.0000     BONDRY  =    1.0000
     AREATL  =    0.0100

     SPHERE     INITS       METHOD
          1        60       FIXPVA
          2        60       FIXPVA
          3        60       FIXPVA
          4        60       FIXPVA
          5        60       FIXPVA
          6        60       FIXPVA
          7        60       FIXPVA
          8        60       FIXPVA
          9        60       FIXPVA
         10        60       FIXPVA
         11        60       FIXPVA
         12        60       FIXPVA
         13        60       FIXPVA
         14        60       FIXPVA
         15        60       FIXPVA
         16        60       FIXPVA
         17        60       FIXPVA
         18        60       FIXPVA
         19        60       FIXPVA
         20        60       FIXPVA
         21        60       FIXPVA
         22        60       FIXPVA
         23        60       FIXPVA
         24        60       FIXPVA
         25        60       FIXPVA
         26        60       FIXPVA
         27        60       FIXPVA
         28        60       FIXPVA
         29        60       FIXPVA
         30        60       FIXPVA
         31        60       FIXPVA
         32        60       FIXPVA
         33        60       FIXPVA
         34        60       FIXPVA
         35        60       FIXPVA
         36        60       FIXPVA
         37        60       FIXPVA
         38        60       FIXPVA
         39        60       FIXPVA
         40        60       FIXPVA
         41        60       FIXPVA
         42        60       FIXPVA
         43        60       FIXPVA
         44        60       FIXPVA
         45        60       FIXPVA
         46        60       FIXPVA
         47        60       FIXPVA
         48        60       FIXPVA
         49        60       FIXPVA
         50        60       FIXPVA
         51        60       FIXPVA
         52        60       FIXPVA
         53        60       FIXPVA
         54        60       FIXPVA
         55        60       FIXPVA
         56        60       FIXPVA
         57        60       FIXPVA
         58        60       FIXPVA
         59        60       FIXPVA
         60        60       FIXPVA
         61        60       FIXPVA
         62        60       FIXPVA
         63        60       FIXPVA
         64        60       FIXPVA
         65        60       FIXPVA
         66        60       FIXPVA
         67        60       FIXPVA
         68        60       FIXPVA
         69        60       FIXPVA
         70        60       FIXPVA
         71        60       FIXPVA
         72        60       FIXPVA
         73        60       FIXPVA
         74        60       FIXPVA
         75        60       FIXPVA
         76        60       FIXPVA
         77        60       FIXPVA
         78        60       FIXPVA
         79        60       FIXPVA
         80        60       FIXPVA
         81        60       FIXPVA
         82        60       FIXPVA
         83        60       FIXPVA
         84        60       FIXPVA
         85        60       FIXPVA
         86        60       FIXPVA
         87        60       FIXPVA
         88        60       FIXPVA
         89        60       FIXPVA
         90        60       FIXPVA
         91        60       FIXPVA
         92        60       FIXPVA
         93        60       FIXPVA
         94        60       FIXPVA
         95        60       FIXPVA
         96        60       FIXPVA
         97        60       FIXPVA
         98        60       FIXPVA
         99        60       FIXPVA
        100        60       FIXPVA
        101        60       FIXPVA
        102        60       FIXPVA
        103        60       FIXPVA
        104        60       FIXPVA
        105        60       FIXPVA
        106        60       FIXPVA
        107        60       FIXPVA
        108        60       FIXPVA
        109        60       FIXPVA
        110        60       FIXPVA
        111        60       FIXPVA
        112        60       FIXPVA
        113        60       FIXPVA
        114        60       FIXPVA
        115        60       FIXPVA
        116        60       FIXPVA
        117        60       FIXPVA
        118        60       FIXPVA
        119        60       FIXPVA
        120        60       FIXPVA
        121        60       FIXPVA
        122        60       FIXPVA
        123        60       FIXPVA
        124        60       FIXPVA
        125        60       FIXPVA
        126        60       FIXPVA
        127        60       FIXPVA
        128        60       FIXPVA
        129        60       FIXPVA
        130        60       FIXPVA
        131        60       FIXPVA
        132        60       FIXPVA
        133        60       FIXPVA
        134        60       FIXPVA
        135        60       FIXPVA
        136        60       FIXPVA
        137        60       FIXPVA
        138        60       FIXPVA
        139        60       FIXPVA
        140        60       FIXPVA
        141        60       FIXPVA
        142        60       FIXPVA
        143        60       FIXPVA
        144        60       FIXPVA
        145        60       FIXPVA
        146        60       FIXPVA
        147        60       FIXPVA
        148        60       FIXPVA
        149        60       FIXPVA
        150        60       FIXPVA
        151        60       FIXPVA
        152        60       FIXPVA
        153        60       FIXPVA
        154        60       FIXPVA
        155        60       FIXPVA
        156        60       FIXPVA
        157        60       FIXPVA
        158        60       FIXPVA
        159        60       FIXPVA
        160        60       FIXPVA
        161        60       FIXPVA
        162        60       FIXPVA
        163        60       FIXPVA
        164        60       FIXPVA
        165        60       FIXPVA
        166        60       FIXPVA
        167        60       FIXPVA
        168        60       FIXPVA
        169        60       FIXPVA
        170        60       FIXPVA
        171        60       FIXPVA
        172        60       FIXPVA
        173        60       FIXPVA
        174        60       FIXPVA
        175        60       FIXPVA
        176        60       FIXPVA
        177        60       FIXPVA
        178        60       FIXPVA
        179        60       FIXPVA
        180        60       FIXPVA
        181        60       FIXPVA
        182        60       FIXPVA
        183        60       FIXPVA
        184        60       FIXPVA
        185        60       FIXPVA
        186        60       FIXPVA
        187        60       FIXPVA
        188        60       FIXPVA
        189        60       FIXPVA
        190        60       FIXPVA
        191        60       FIXPVA
        192        60       FIXPVA
        193        60       FIXPVA
        194        60       FIXPVA
        195        60       FIXPVA
        196        60       FIXPVA
        197        60       FIXPVA
        198        60       FIXPVA
        199        60       FIXPVA
        200        60       FIXPVA
        201        60       FIXPVA
        202        60       FIXPVA
        203        60       FIXPVA
        204        60       FIXPVA
        205        60       FIXPVA
        206        60       FIXPVA
        207        60       FIXPVA
        208        60       FIXPVA
        209        60       FIXPVA
        210        60       FIXPVA
        211        60       FIXPVA
        212        60       FIXPVA
        213        60       FIXPVA
        214        60       FIXPVA
        215        60       FIXPVA
        216        60       FIXPVA
        217        60       FIXPVA
        218        60       FIXPVA
        219        60       FIXPVA
        220        60       FIXPVA
        221        60       FIXPVA
        222        60       FIXPVA
        223        60       FIXPVA
        224        60       FIXPVA
        225        60       FIXPVA
        226        60       FIXPVA
        227        60       FIXPVA
        228        60       FIXPVA
        229        60       FIXPVA
        230        60       FIXPVA
        231        60       FIXPVA
        232        60       FIXPVA
        233        60       FIXPVA
        234        60       FIXPVA
        235        60       FIXPVA
        236        60       FIXPVA
        237        60       FIXPVA
        238        60       FIXPVA
        239        60       FIXPVA
        240        60       FIXPVA
        241        60       FIXPVA
        242        60       FIXPVA
        243        60       FIXPVA
        244        60       FIXPVA
        245        60       FIXPVA
        246        60       FIXPVA
        247        60       FIXPVA
        248        60       FIXPVA
        249        60       FIXPVA
        250        60       FIXPVA
        251        60       FIXPVA
        252        60       FIXPVA
        253        60       FIXPVA
        254        60       FIXPVA
        255        60       FIXPVA
        256        60       FIXPVA
        257        60       FIXPVA
        258        60       FIXPVA
        259        60       FIXPVA
        260        60       FIXPVA
        261        60       FIXPVA
        262        60       FIXPVA
        263        60       FIXPVA
        264        60       FIXPVA
        265        60       FIXPVA
        266        60       FIXPVA
        267        60       FIXPVA
        268        60       FIXPVA
        269        60       FIXPVA
        270        60       FIXPVA
        271        60       FIXPVA
        272        60       FIXPVA
        273        60       FIXPVA
        274        60       FIXPVA
        275        60       FIXPVA
        276        60       FIXPVA
        277        60       FIXPVA
        278        60       FIXPVA
        279        60       FIXPVA
        280        60       FIXPVA
        281        60       FIXPVA
        282        60       FIXPVA
        283        60       FIXPVA
        284        60       FIXPVA
        285        60       FIXPVA
        286        60       FIXPVA
        287        60       FIXPVA
        288        60       FIXPVA
        289        60       FIXPVA
        290        60       FIXPVA
        291        60       FIXPVA
        292        60       FIXPVA
        293        60       FIXPVA
        294        60       FIXPVA
        295        60       FIXPVA
        296        60       FIXPVA
        297        60       FIXPVA
        298        60       FIXPVA
        299        60       FIXPVA
        300        60       FIXPVA
        301        60       FIXPVA
        302        60       FIXPVA
        303        60       FIXPVA
        304        60       FIXPVA
        305        60       FIXPVA
        306        60       FIXPVA
        307        60       FIXPVA
        308        60       FIXPVA
        309        60       FIXPVA
        310        60       FIXPVA
        311        60       FIXPVA
        312        60       FIXPVA
        313        60       FIXPVA
        314        60       FIXPVA
        315        60       FIXPVA
        316        60       FIXPVA
        317        60       FIXPVA
        318        60       FIXPVA
        319        60       FIXPVA
        320        60       FIXPVA
        321        60       FIXPVA
        322        60       FIXPVA
        323        60       FIXPVA
        324        60       FIXPVA
        325        60       FIXPVA
        326        60       FIXPVA
        327        60       FIXPVA
        328        60       FIXPVA
        329        60       FIXPVA
        330        60       FIXPVA
        331        60       FIXPVA
        332        60       FIXPVA
        333        60       FIXPVA
        334        60       FIXPVA
        335        60       FIXPVA
        336        60       FIXPVA
        337        60       FIXPVA
        338        60       FIXPVA
        339        60       FIXPVA
        340        60       FIXPVA
        341        60       FIXPVA
        342        60       FIXPVA
        343        60       FIXPVA
        344        60       FIXPVA
        345        60       FIXPVA
        346        60       FIXPVA

     ------------------------------
      FIXPVA TESSELLATION FOR PCM
         PEIFENG SU AND HUI LI
     UNIVERSITY OF NEBRASKA-LINCOLN
     ------------------------------


 PCM DIMENSIONS: MXSP=   346, MXTS=     13840, MEMORY=        142209

     INPUT FOR CAVITY DEFINITION 
     ---------------------------
   ATOM               COORDINATES                RADIUS       EPS
      1     -4.3630    -10.5450      8.8010      0.0100     78.3900
      2     -3.7120    -10.1940      8.1650      1.5900     78.3900
      3     -4.4530     -9.6690      7.0550      1.7700     78.3900
      4     -5.1670     -8.8970      7.4250      0.0100     78.3900
      5     -5.0520    -10.4850      6.5940      0.0100     78.3900
      6     -3.5610     -9.0560      5.9730      1.7700     78.3900
      7     -4.1840     -8.7040      5.1210      0.0100     78.3900
      8     -2.8490     -7.8990      6.5030      1.5900     78.3900
      9     -1.5400     -7.8660      5.9570      1.7700     78.3900
     10     -1.4140     -6.8700      5.4710      0.0100     78.3900
     11     -0.5260     -8.0140      7.0090      1.6800     78.3900
     12      1.3530     -7.9460      8.1540      1.7700     78.3900
     13      0.3870     -8.4440      9.0210      1.6800     78.3900
     14     -0.7060     -8.4680      8.2960      1.7700     78.3900
     15     -1.6850     -8.8090      8.6420      0.0100     78.3900
     16      3.4030     -7.1830      7.2480      1.6800     78.3900
     17      2.7400     -7.0060      6.1000      1.7700     78.3900
     18      3.3370     -6.6090      5.2720      0.0100     78.3900
     19      1.4400     -7.1880      5.8360      1.6800     78.3900
     20      0.8020     -7.6810      6.9110      1.7700     78.3900
     21      2.7260     -7.6590      8.3220      1.7700     78.3900
     22      3.3920     -7.8250      9.4790      1.6800     78.3900
     23      2.9460     -8.2120     10.2930      0.0100     78.3900
     24      4.3860     -7.7010      9.5080      0.0100     78.3900
     25     -1.4550     -8.9530      4.9060      1.7700     78.3900
     26     -0.4390     -9.3880      4.8250      0.0100     78.3900
     27     -1.8570     -8.4440      3.6470      1.5900     78.3900
     28     -1.8020     -9.1840      3.0340      0.0100     78.3900
     29     -2.4550     -9.9770      5.4340      1.7700     78.3900
     30     -2.0290    -10.5120      6.3150      0.0100     78.3900
     31     -3.0000    -10.8740      4.4370      1.5900     78.3900
     32     -2.2940    -12.2600      4.1810      2.1000     78.3900
     33     -2.0060    -12.8920      5.4820      1.5900     78.3900
     34     -3.1090    -13.0370      3.2240      1.5900     78.3900
     35     -0.9360    -11.8590      3.5030      1.5900     78.3900
     36     -0.9140    -11.3090      2.1640      1.7700     78.3900
     37     -1.6130    -10.4500      2.0580      0.0100     78.3900
     38     -1.2230    -12.0820      1.4260      0.0100     78.3900
     39      0.4930    -10.8270      1.7830      1.7700     78.3900
     40      0.4850    -10.3240      0.7910      0.0100     78.3900
     41      0.9690     -9.8380      2.7470      1.5900     78.3900
     42      2.3670    -10.0260      2.9420      1.7700     78.3900
     43      2.8340     -9.0440      2.6990      0.0100     78.3900
     44      2.7220    -10.3780      4.3520      1.6800     78.3900
     45      1.7770    -10.9170      5.1970      1.7700     78.3900
     46      0.7880    -11.0670      4.7640      0.0100     78.3900
     47      2.0600    -11.1980      6.4780      1.7700     78.3900
     48      1.3140    -11.5870      7.1700      0.0100     78.3900
     49      4.0240    -10.1900      4.8130      1.7700     78.3900
     50      4.8910     -9.7700      4.0320      1.5900     78.3900
     51      4.3190    -10.4460      6.1030      1.6800     78.3900
     52      3.3810    -10.9150      6.9350      1.7700     78.3900
     53      3.7100    -11.0980      8.2070      1.6800     78.3900
     54      4.6660    -10.9240      8.4580      0.0100     78.3900
     55      3.1720    -11.6840      8.8180      0.0100     78.3900
     56      2.8380    -11.0440      1.9200      1.7700     78.3900
     57      3.7100    -11.6050      2.2780      0.0100     78.3900
     58      3.1990    -10.4080      0.7090      1.5900     78.3900
     59      3.3470    -11.1030      0.0480      0.0100     78.3900
     60      1.5890    -11.9050      1.7570      1.7700     78.3900
     61      1.4380    -12.5370      2.6640      0.0100     78.3900
     62      1.5220    -12.6480      0.5190      1.5900     78.3900
     63      1.6920    -14.2110      0.4960      2.1000     78.3900
     64      0.9310    -14.8240      1.6050      1.5900     78.3900
     65      1.4010    -14.7140     -0.8630      1.5900     78.3900
     66      3.2220    -14.4250      0.7910      1.5900     78.3900
     67      3.8060    -15.7460      0.6460      1.7700     78.3900
     68      3.3800    -16.3110     -0.2170      0.0100     78.3900
     69      3.6170    -16.3430      1.5670      0.0100     78.3900
     70      5.3240    -15.6530      0.4190      1.7700     78.3900
     71      5.5360    -15.0990     -0.5260      0.0100     78.3900
     72      5.9200    -14.9080      1.5070      1.5900     78.3900
     73      7.1010    -15.5190      1.9560      1.7700     78.3900
     74      7.8600    -14.7030      1.9140      0.0100     78.3900
     75      6.9860    -16.0310      3.3530      1.6800     78.3900
     76      5.8480    -16.6860      3.7800      1.7700     78.3900
     77      5.0360    -16.7830      3.0590      0.0100     78.3900
     78      5.7420    -17.1490      5.0340      1.7700     78.3900
     79      4.8550    -17.6600      5.3990      0.0100     78.3900
     80      8.0420    -15.8440      4.2410      1.7700     78.3900
     81      9.0630    -15.2530      3.8520      1.5900     78.3900
     82      7.9500    -16.3060      5.5000      1.6800     78.3900
     83      6.8570    -16.9700      5.9010      1.7700     78.3900
     84      6.8390    -17.4850      7.1190      1.6800     78.3900
     85      7.5000    -17.1300      7.7890      0.0100     78.3900
     86      5.9840    -17.8110      7.5320      0.0100     78.3900
     87      7.4660    -16.5800      0.9490      1.7700     78.3900
     88      7.9880    -17.4420      1.4020      0.0100     78.3900
     89      8.2700    -16.0140     -0.0690      1.5900     78.3900
     90      7.7450    -15.3500     -0.5450      0.0100     78.3900
     91      6.0890    -16.9820      0.4260      1.7700     78.3900
     92      5.5730    -17.6090      1.1900      0.0100     78.3900
     93      6.0980    -17.5670     -0.8970      1.5900     78.3900
     94      5.7680    -19.0990     -1.0290      2.1000     78.3900
     95      4.4460    -19.3390     -0.4130      1.5900     78.3900
     96      5.9250    -19.4990     -2.4470      1.5900     78.3900
     97      6.9150    -19.8330     -0.2150      1.5900     78.3900
     98      7.0410    -21.2820     -0.3360      1.7700     78.3900
     99      8.0830    -21.5280     -0.6460      0.0100     78.3900
    100      6.3810    -21.7190     -1.1280      0.0100     78.3900
    101      6.7360    -22.0540      0.9680      1.7700     78.3900
    102      6.6350    -23.1410      0.7320      0.0100     78.3900
    103      7.8310    -21.9120      1.9180      1.5900     78.3900
    104      7.4000    -21.1650      3.0540      1.7700     78.3900
    105      7.1920    -21.9180      3.8540      0.0100     78.3900
    106      8.4420    -20.1890      3.4470      1.6800     78.3900
    107      9.0880    -19.4640      2.4740      1.7700     78.3900
    108      8.7830    -19.6760      1.4440      0.0100     78.3900
    109      8.7650    -20.0490      4.7750      1.7700     78.3900
    110      8.2350    -20.7070      5.6630      1.5900     78.3900
    111      9.7630    -19.1410      5.0290      1.6800     78.3900
    112      9.9560    -18.9590      5.9950      0.0100     78.3900
    113     10.4970    -18.4240      4.1040      1.7700     78.3900
    114     11.4440    -17.7280      4.4660      1.5900     78.3900
    115     10.0820    -18.6090      2.7490      1.7700     78.3900
    116     10.6260    -18.0900      1.9630      0.0100     78.3900
    117      6.0980    -20.5000      2.6600      1.7700     78.3900
    118      6.3050    -19.5820      2.0750      0.0100     78.3900
    119      5.2550    -20.1620      3.7450      1.5900     78.3900
    120      4.9520    -20.9730      4.1710      0.0100     78.3900
    121      5.5050    -21.5750      1.7570      1.7700     78.3900
    122      4.8360    -21.0930      1.0160      0.0100     78.3900
    123      4.8560    -22.6630      2.4670      1.5900     78.3900
    124      3.2950    -22.8160      2.3130      2.1000     78.3900
    125      2.6810    -21.4990      2.0410      1.5900     78.3900
    126      2.9820    -23.9210      1.3780      1.5900     78.3900
    127      2.8880    -23.2830      3.7500      1.5900     78.3900
    128      3.0000    -22.4190      4.8980      1.7700     78.3900
    129      2.4950    -21.4430      4.7080      0.0100     78.3900
    130      4.0690    -22.2140      5.1330      0.0100     78.3900
    131      2.3670    -23.0410      6.1550      1.7700     78.3900
    132      2.6170    -22.4080      7.0350      0.0100     78.3900
    133      0.9170    -23.1030      6.0050      1.5900     78.3900
    134      0.4960    -24.4510      5.9680      1.7700     78.3900
    135      0.1510    -24.6680      7.0090      0.0100     78.3900
    136     -0.5820    -24.6180      4.9620      1.6800     78.3900
    137     -0.2970    -24.4650      3.6260      1.7700     78.3900
    138      0.7460    -24.2590      3.3830      0.0100     78.3900
    139     -1.8730    -24.8350      5.3900      1.7700     78.3900
    140     -2.1740    -24.9200      6.5770      1.5900     78.3900
    141     -2.8030    -24.9530      4.3860      1.6800     78.3900
    142     -3.7480    -25.1280      4.6850      0.0100     78.3900
    143     -2.5870    -24.8420      3.0290      1.7700     78.3900
    144     -3.5200    -24.9890      2.2390      1.5900     78.3900
    145     -1.2290    -24.5710      2.6670      1.7700     78.3900
    146     -0.9810    -24.4850      1.6140      0.0100     78.3900
    147      1.7270    -25.3080      5.6990      1.7700     78.3900
    148      1.9650    -25.3440      4.6160      0.0100     78.3900
    149      1.6050    -26.6280      6.1990      1.5900     78.3900
    150      1.6090    -26.5590      7.1670      0.0100     78.3900
    151      2.7940    -24.4980      6.4350      1.7700     78.3900
    152      3.7760    -24.6570      5.9300      0.0100     78.3900
    153      2.8340    -24.7800      7.8540      1.5900     78.3900
    154      4.1940    -25.1100      8.5720      2.1000     78.3900
    155      3.8910    -25.6780      9.9050      1.5900     78.3900
    156      5.0430    -25.9240      7.6770      1.5900     78.3900
    157      4.8690    -23.7090      8.7940      1.5900     78.3900
    158      6.2850    -23.6240      9.0600      1.7700     78.3900
    159      6.8010    -23.2940      8.1380      0.0100     78.3900
    160      6.7320    -24.6050      9.3580      0.0100     78.3900
    161      6.5750    -22.6130     10.1700      1.7700     78.3900
    162      5.9460    -22.8050     11.0680      0.0100     78.3900
    163      7.9600    -22.7930     10.5800      1.5900     78.3900
    164      8.5340    -21.5340     10.8910      1.7700     78.3900
    165      8.8590    -21.6130     11.9550      0.0100     78.3900
    166      9.7020    -21.2350     10.0150      1.6800     78.3900
    167      9.6280    -21.5420      8.6730      1.7700     78.3900
    168      8.7000    -22.0010      8.3250      0.0100     78.3900
    169     10.6600    -21.3200      7.8500      1.7700     78.3900
    170     10.6250    -21.5760      6.7930      0.0100     78.3900
    171     10.8680    -20.6620     10.5310      1.7700     78.3900
    172     10.9250    -20.3930     11.7410      1.5900     78.3900
    173     11.9190    -20.4350      9.7070      1.6800     78.3900
    174     11.8420    -20.7530      8.4050      1.7700     78.3900
    175     12.8970    -20.5460      7.6230      1.6800     78.3900
    176     13.7340    -20.1750      8.0250      0.0100     78.3900
    177     12.9210    -20.8340      6.6630      0.0100     78.3900
    178      7.4350    -20.4870     10.8000      1.7700     78.3900
    179      7.8050    -19.5150     10.4190      0.0100     78.3900
    180      6.8170    -20.3110     12.0610      1.5900     78.3900
    181      6.0850    -19.6980     11.9400      0.0100     78.3900
    182      6.4810    -21.1250      9.8000      1.7700     78.3900
    183      6.9220    -21.0110      8.7820      0.0100     78.3900
    184      5.1170    -20.6580      9.9020      1.5900     78.3900
    185      4.3610    -20.2190      8.5790      2.1000     78.3900
    186      5.0400    -20.7480      7.3800      1.5900     78.3900
    187      2.9140    -20.4970      8.7230      1.5900     78.3900
    188      4.5380    -18.6550      8.5840      1.5900     78.3900
    189      3.7220    -17.7790      9.4010      1.7700     78.3900
    190      3.2690    -18.2930     10.2750      0.0100     78.3900
    191      2.8710    -17.3990      8.7900      0.0100     78.3900
    192      4.5550    -16.5940      9.9130      1.7700     78.3900
    193      5.3510    -16.9770     10.5860      0.0100     78.3900
    194      5.2040    -15.9150      8.8170      1.5900     78.3900
    195      4.7100    -14.6130      8.6760      1.7700     78.3900
    196      5.4410    -13.9510      9.1760      0.0100     78.3900
    197      4.6030    -14.2880      7.2460      1.6800     78.3900
    198      3.5320    -14.7680      6.5270      1.7700     78.3900
    199      2.7760    -15.3590      7.0500      0.0100     78.3900
    200      3.4240    -14.5290      5.2180      1.7700     78.3900
    201      2.5750    -14.8820      4.6330      0.0100     78.3900
    202      5.6630    -13.6420      6.5910      1.7700     78.3900
    203      6.6740    -13.3060      7.2300      1.5900     78.3900
    204      5.5610    -13.4010      5.2660      1.6800     78.3900
    205      4.4750    -13.8100      4.5990      1.7700     78.3900
    206      4.3950    -13.5540      3.3220      1.6800     78.3900
    207      5.2500    -13.2840      2.8830      0.0100     78.3900
    208      3.7490    -14.0250      2.7190      0.0100     78.3900
    209      3.4150    -14.5520      9.4580      1.7700     78.3900
    210      2.5540    -14.9580      8.8930      0.0100     78.3900
    211      3.1280    -13.2500      9.9180      1.5900     78.3900
    212      3.7860    -13.0580     10.6070      0.0100     78.3900
    213      3.7440    -15.4900     10.6160      1.7700     78.3900
    214      2.7800    -15.9170     10.9780      0.0100     78.3900
    215      4.4870    -14.8530     11.6850      1.5900     78.3900
    216      4.5790    -15.5940     13.0730      2.1000     78.3900
    217      4.5430    -14.5710     14.1340      1.5900     78.3900
    218      3.5490    -16.6510     13.1500      1.5900     78.3900
    219      6.0020    -16.2680     13.0450      1.5900     78.3900
    220      6.4770    -16.9360     14.2420      1.7700     78.3900
    221      6.0790    -17.9760     14.2800      0.0100     78.3900
    222      6.1540    -16.4190     15.1800      0.0100     78.3900
    223      8.0100    -17.0040     14.2820      1.7700     78.3900
    224      8.3590    -17.4280     15.2500      0.0100     78.3900
    225      8.4820    -17.8950     13.2450      1.5900     78.3900
    226      9.7090    -17.4220     12.7280      1.7700     78.3900
    227     10.4560    -18.2290     12.9080      0.0100     78.3900
    228      9.6010    -17.1840     11.2890      1.6800     78.3900
    229     10.0630    -16.9250      9.1660      1.7700     78.3900
    230      8.6820    -16.9060      9.2600      1.6800     78.3900
    231      8.4540    -17.0520     10.5370      1.7700     78.3900
    232      7.4650    -17.1020     11.0030      0.0100     78.3900
    233     12.2630    -16.8910      8.2980      1.6800     78.3900
    234     12.6750    -17.0490      9.5590      1.7700     78.3900
    235     13.7600    -17.1000      9.6900      0.0100     78.3900
    236     11.9560    -17.1510     10.6830      1.6800     78.3900
    237     10.6420    -17.0880     10.4070      1.7700     78.3900
    238     10.9310    -16.8260      8.0680      1.7700     78.3900
    239     10.4820    -16.6720      6.8210      1.6800     78.3900
    240      9.5180    -16.4590      6.6130      0.0100     78.3900
    241     11.1230    -16.6410      6.0520      0.0100     78.3900
    242     10.1060    -16.1790     13.5040      1.7700     78.3900
    243     10.5690    -15.4050     12.8540      0.0100     78.3900
    244     10.9880    -16.5160     14.5600      1.5900     78.3900
    245     11.1420    -15.7090     15.0730      0.0100     78.3900
    246      8.7570    -15.6850     14.0300      1.7700     78.3900
    247      8.1990    -15.1770     13.2130      0.0100     78.3900
    248      8.8160    -14.8850     15.2430      1.5900     78.3900
    249      9.1390    -13.3420     15.0750      2.1000     78.3900
    250      8.3470    -12.7970     13.9510      1.5900     78.3900
    251      8.9610    -12.6970     16.3920      1.5900     78.3900
    252     10.6690    -13.2670     14.7000      1.5900     78.3900
    253     11.1890    -12.0440     14.1010      1.7700     78.3900
    254     11.4500    -11.3090     14.8950      0.0100     78.3900
    255     10.4400    -11.5560     13.4300      0.0100     78.3900
    256     12.4440    -12.3020     13.2420      1.7700     78.3900
    257     13.3200    -12.5140     13.8910      0.0100     78.3900
    258     12.2360    -13.4890     12.4180      1.5900     78.3900
    259     12.7500    -13.2780     11.1180      1.7700     78.3900
    260     13.4410    -14.1310     10.9200      0.0100     78.3900
    261     11.6770    -13.2840     10.1210      1.6800     78.3900
    262     10.5630    -13.3780      8.2290      1.7700     78.3900
    263      9.6180    -13.2620      9.2330      1.6800     78.3900
    264     10.3210    -13.2040     10.3330      1.7700     78.3900
    265      9.9060    -13.1060     11.3400      0.0100     78.3900
    266     11.6070    -13.5960      6.1170      1.6800     78.3900
    267     12.7600    -13.6350      6.7850      1.7700     78.3900
    268     13.6540    -13.7440      6.1600      0.0100     78.3900
    269     13.0010    -13.4940      8.0930      1.6800     78.3900
    270     11.8410    -13.3910      8.7650      1.7700     78.3900
    271     10.4580    -13.4710      6.8240      1.7700     78.3900
    272      9.2930    -13.4810      6.1590      1.6800     78.3900
    273      8.4290    -13.5040      6.6850      0.0100     78.3900
    274      9.2780    -13.9690      5.2850      0.0100     78.3900
    275     13.5260    -11.9790     11.1270      1.7700     78.3900
    276     13.4750    -11.4390     10.1560      0.0100     78.3900
    277     14.8790    -12.2290     11.4590      1.5900     78.3900
    278     15.2790    -11.3840     11.7160      0.0100     78.3900
    279     12.8110    -11.1970     12.2220      1.7700     78.3900
    280     11.8400    -10.8160     11.8250      0.0100     78.3900
    281     13.6380    -10.1670     12.8220      1.5900     78.3900
    282     13.2150     -8.6560     12.7120      2.1000     78.3900
    283     11.8910     -8.4990     13.3490      1.5900     78.3900
    284     14.3050     -7.7920     13.2220      1.5900     78.3900
    285     13.0460     -8.3880     11.1690      1.5900     78.3900
    286     14.1960     -8.3130     10.2940      1.7700     78.3900
    287     14.8370     -9.2220     10.3820      0.0100     78.3900
    288     14.8190     -7.4240     10.5480      0.0100     78.3900
    289     13.7830     -8.1880      8.8210      1.7700     78.3900
    290     14.6750     -8.0520      8.1720      0.0100     78.3900
    291     13.1370     -9.4250      8.3900      1.5900     78.3900
    292     12.0470     -9.1100      7.5330      1.7700     78.3900
    293     12.1740     -9.7100      6.6030      0.0100     78.3900
    294     10.7640     -9.4520      8.1590      1.6800     78.3900
    295      9.5620     -9.6310      7.5310      1.7700     78.3900
    296      7.6400     -9.6470      4.6520      1.6800     78.3900
    297      8.2980     -9.4170      3.9400      0.0100     78.3900
    298      6.6730     -9.7680      4.4120      0.0100     78.3900
    299      9.3350     -9.5090      6.2120      1.6800     78.3900
    300      8.0640     -9.7590      5.8980      1.7700     78.3900
    301      7.1080    -10.0760      6.8260      1.6800     78.3900
    302      6.1810    -10.3020      6.5000      0.0100     78.3900
    303      7.3160    -10.2160      8.1920      1.7700     78.3900
    304      6.3970    -10.4990      8.9660      1.5900     78.3900
    305      8.6640     -9.9400      8.5360      1.7700     78.3900
    306      9.2900     -9.9390      9.7740      1.6800     78.3900
    307     10.5320     -9.6500      9.4980      1.7700     78.3900
    308     11.3330     -9.5640     10.2300      0.0100     78.3900
    309     12.1410     -7.6350      7.2080      1.7700     78.3900
    310     11.1500     -7.1790      7.0100      0.0100     78.3900
    311     12.9790     -7.4470      6.0850      1.5900     78.3900
    312     13.1140     -6.4960      5.9920      0.0100     78.3900
    313     12.7730     -7.0810      8.4810      1.7700     78.3900
    314     12.0270     -7.0710      9.3090      0.0100     78.3900
    315     13.4610     -5.8190      8.3200      1.5900     78.3900
    316     12.7270     -4.4810      8.7120      2.1000     78.3900
    317     11.9960     -4.6670      9.9810      1.5900     78.3900
    318     13.7000     -3.3660      8.6590      1.5900     78.3900
    319     11.6680     -4.3140      7.5690      1.5900     78.3900
    320     12.0660     -4.0860      6.2010      1.7700     78.3900
    321     12.7960     -4.8470      5.8430      0.0100     78.3900
    322     12.5580     -3.0900      6.1100      0.0100     78.3900
    323     10.8480     -4.0980      5.2640      1.7700     78.3900
    324     11.1450     -3.8680      4.2200      0.0100     78.3900
    325     10.2140     -5.4110      5.2560      1.5900     78.3900
    326      8.7990     -5.2510      5.1920      1.7700     78.3900
    327      8.4690     -5.8170      4.2880      0.0100     78.3900
    328      8.1260     -5.7940      6.4080      1.6800     78.3900
    329      8.8200     -5.9750      7.5850      1.7700     78.3900
    330      9.8740     -5.7130      7.5490      0.0100     78.3900
    331      6.7910     -6.1160      6.3270      1.7700     78.3900
    332      6.1320     -5.9480      5.3060      1.5900     78.3900
    333      6.2470     -6.6330      7.4740      1.6800     78.3900
[...]
          TOLZ  = 1.0E-08          TOLE  = 1.0E-05
          SYMDEN=       F          PURIFY=       F

 INITIAL GUESS ORBITALS GENERATED BY HUCKEL   ROUTINE.
 HUCKEL GUESS REQUIRES    909141 WORDS.

 SYMMETRIES FOR INITIAL GUESS ORBITALS FOLLOW.   BOTH SET(S).
    79 ORBITALS ARE OCCUPIED (   24 CORE ORBITALS).
    25=A       26=A       27=A       28=A       29=A       30=A       31=A   
    32=A       33=A       34=A       35=A       36=A       37=A       38=A   
    39=A       40=A       41=A       42=A       43=A       44=A       45=A   
    46=A       47=A       48=A       49=A       50=A       51=A       52=A   
    53=A       54=A       55=A       56=A       57=A       58=A       59=A   
    60=A       61=A       62=A       63=A       64=A       65=A       66=A   
    67=A       68=A       69=A       70=A       71=A       72=A       73=A   
    74=A       75=A       76=A       77=A       78=A       79=A       80=A   
    81=A       82=A       83=A       84=A       85=A       86=A       87=A   
    88=A       89=A   
 ...... END OF INITIAL ORBITAL SELECTION ......
 CPU     0: STEP CPU TIME=     0.15 TOTAL CPU TIME=          1.4 (      0.0 MIN)
 TOTAL WALL CLOCK TIME=          3.3 SECONDS, CPU UTILIZATION IS    41.62%

 Running initial guess for monomer       4


          -------------
          GUESS OPTIONS
          -------------
          GUESS =HUCKEL            NORB  =       0          NORDER=       0
          MIX   =       F          PRTMO =       F          PUNMO =       F
          TOLZ  = 1.0E-08          TOLE  = 1.0E-05
          SYMDEN=       F          PURIFY=       F

 INITIAL GUESS ORBITALS GENERATED BY HUCKEL   ROUTINE.
 HUCKEL GUESS REQUIRES    909141 WORDS.

 SYMMETRIES FOR INITIAL GUESS ORBITALS FOLLOW.   BOTH SET(S).
    79 ORBITALS ARE OCCUPIED (   24 CORE ORBITALS).
    25=A       26=A       27=A       28=A       29=A       30=A       31=A   
    32=A       33=A       34=A       35=A       36=A       37=A       38=A   
    39=A       40=A       41=A       42=A       43=A       44=A       45=A   
    46=A       47=A       48=A       49=A       50=A       51=A       52=A   
    53=A       54=A       55=A       56=A       57=A       58=A       59=A   
    60=A       61=A       62=A       63=A       64=A       65=A       66=A   
    67=A       68=A       69=A       70=A       71=A       72=A       73=A   
    74=A       75=A       76=A       77=A       78=A       79=A       80=A   
    81=A       82=A       83=A       84=A       85=A       86=A       87=A   
    88=A       89=A   
 ...... END OF INITIAL ORBITAL SELECTION ......
 CPU     0: STEP CPU TIME=     0.16 TOTAL CPU TIME=          1.5 (      0.0 MIN)
 TOTAL WALL CLOCK TIME=          3.7 SECONDS, CPU UTILIZATION IS    41.67%

 Running initial guess for monomer       3


          -------------
          GUESS OPTIONS
          -------------
          GUESS =HUCKEL            NORB  =       0          NORDER=       0
          MIX   =       F          PRTMO =       F          PUNMO =       F
          TOLZ  = 1.0E-08          TOLE  = 1.0E-05
          SYMDEN=       F          PURIFY=       F

 INITIAL GUESS ORBITALS GENERATED BY HUCKEL   ROUTINE.
 HUCKEL GUESS REQUIRES    920598 WORDS.

 SYMMETRIES FOR INITIAL GUESS ORBITALS FOLLOW.   BOTH SET(S).
    79 ORBITALS ARE OCCUPIED (   24 CORE ORBITALS).
    25=A       26=A       27=A       28=A       29=A       30=A       31=A   
    32=A       33=A       34=A       35=A       36=A       37=A       38=A   
    39=A       40=A       41=A       42=A       43=A       44=A       45=A   
    46=A       47=A       48=A       49=A       50=A       51=A       52=A   
    53=A       54=A       55=A       56=A       57=A       58=A       59=A   
    60=A       61=A       62=A       63=A       64=A       65=A       66=A   
    67=A       68=A       69=A       70=A       71=A       72=A       73=A   
    74=A       75=A       76=A       77=A       78=A       79=A       80=A   
    81=A       82=A       83=A       84=A       85=A       86=A       87=A   
    88=A       89=A   
 ...... END OF INITIAL ORBITAL SELECTION ......
 CPU     0: STEP CPU TIME=     0.16 TOTAL CPU TIME=          1.7 (      0.0 MIN)
 TOTAL WALL CLOCK TIME=          4.1 SECONDS, CPU UTILIZATION IS    41.50%

 Running initial guess for monomer       2


          -------------
          GUESS OPTIONS
          -------------
          GUESS =HUCKEL            NORB  =       0          NORDER=       0
          MIX   =       F          PRTMO =       F          PUNMO =       F
          TOLZ  = 1.0E-08          TOLE  = 1.0E-05
          SYMDEN=       F          PURIFY=       F

 INITIAL GUESS ORBITALS GENERATED BY HUCKEL   ROUTINE.
 HUCKEL GUESS REQUIRES    920598 WORDS.

 SYMMETRIES FOR INITIAL GUESS ORBITALS FOLLOW.   BOTH SET(S).
    79 ORBITALS ARE OCCUPIED (   24 CORE ORBITALS).
    25=A       26=A       27=A       28=A       29=A       30=A       31=A   
    32=A       33=A       34=A       35=A       36=A       37=A       38=A   
    39=A       40=A       41=A       42=A       43=A       44=A       45=A   
    46=A       47=A       48=A       49=A       50=A       51=A       52=A   
    53=A       54=A       55=A       56=A       57=A       58=A       59=A   
    60=A       61=A       62=A       63=A       64=A       65=A       66=A   
    67=A       68=A       69=A       70=A       71=A       72=A       73=A   
    74=A       75=A       76=A       77=A       78=A       79=A       80=A   
    81=A       82=A       83=A       84=A       85=A       86=A       87=A   
    88=A       89=A   
 ...... END OF INITIAL ORBITAL SELECTION ......
 CPU     0: STEP CPU TIME=     0.16 TOTAL CPU TIME=          1.9 (      0.0 MIN)
 TOTAL WALL CLOCK TIME=          4.5 SECONDS, CPU UTILIZATION IS    41.74%

 Running initial guess for monomer       1


          -------------
          GUESS OPTIONS
          -------------
          GUESS =HUCKEL            NORB  =       0          NORDER=       0
          MIX   =       F          PRTMO =       F          PUNMO =       F
          TOLZ  = 1.0E-08          TOLE  = 1.0E-05
          SYMDEN=       F          PURIFY=       F

 INITIAL GUESS ORBITALS GENERATED BY HUCKEL   ROUTINE.
 HUCKEL GUESS REQUIRES   1187385 WORDS.

 SYMMETRIES FOR INITIAL GUESS ORBITALS FOLLOW.   BOTH SET(S).
    90 ORBITALS ARE OCCUPIED (   27 CORE ORBITALS).
    28=A       29=A       30=A       31=A       32=A       33=A       34=A   
    35=A       36=A       37=A       38=A       39=A       40=A       41=A   
    42=A       43=A       44=A       45=A       46=A       47=A       48=A   
    49=A       50=A       51=A       52=A       53=A       54=A       55=A   
    56=A       57=A       58=A       59=A       60=A       61=A       62=A   
    63=A       64=A       65=A       66=A       67=A       68=A       69=A   
    70=A       71=A       72=A       73=A       74=A       75=A       76=A   
    77=A       78=A       79=A       80=A       81=A       82=A       83=A   
    84=A       85=A       86=A       87=A       88=A       89=A       90=A   
    91=A       92=A       93=A       94=A       95=A       96=A       97=A   
    98=A       99=A      100=A   
 ...... END OF INITIAL ORBITAL SELECTION ......
 CPU     0: STEP CPU TIME=     0.21 TOTAL CPU TIME=          2.1 (      0.0 MIN)
 TOTAL WALL CLOCK TIME=          5.0 SECONDS, CPU UTILIZATION IS    41.43%

 There are          23 separated and      32 SCF (      32 of them correlated) dimers.
 Estimate of max dimer size:  774 AOs,  178 occ. MOs

 Fragment statistics

      I  NAME     Q NAT0 NATB NA  NAO LAY MUL SCFTYP        NOP     MOL    CONV
 ==============================================================================
      1 F1       -1   35   1   90  388 1  1 G RHF             0      -1      -1
      2 F2       -1   31   1   79  341 1  1 G RHF             0      -1      -1
      3 F3       -1   31   1   79  341 1  1 G RHF             0      -1      -1
      4 F4       -1   30   1   79  339 1  1 G RHF             0      -1      -1
      5 F5       -1   30   1   79  339 1  1 G RHF             0      -1      -1
      6 F6       -1   31   1   79  341 1  1 G RHF             0      -1      -1
      7 F7       -1   31   1   79  341 1  1 G RHF             0      -1      -1
      8 F8       -1   33   1   85  371 1  1 G RHF             0      -1      -1
      9 F9       -1   33   1   85  371 1  1 G RHF             0      -1      -1
     10 F10      -1   34   1   89  386 1  1 G RHF             0      -1      -1
     11 F11       0   27   0   59  262 1  1 G RHF             0      -1      -1

 Close fragment pairs, distance relative to vdW radii

 CPU     0: STEP CPU TIME=     0.00 TOTAL CPU TIME=          2.1 (      0.0 MIN)
 TOTAL WALL CLOCK TIME=          5.0 SECONDS, CPU UTILIZATION IS    41.35%
 dmexch needs              4042036  words of memory.
 CPU     0: STEP CPU TIME=     0.02 TOTAL CPU TIME=          2.1 (      0.0 MIN)
 TOTAL WALL CLOCK TIME=          5.3 SECONDS, CPU UTILIZATION IS    39.92%

 Data exchange of   1338788 words took     0.2 s.

 RHF      monomer      1 corr= NONE       , L1=   388, L0=   364 ID=      1


 AO spaces for     1     0     0 n-mer: L1=   388, L0=   364

 DIRECT SCF CALCULATION, SCHWRZ=T   FDIFF=T,  DIRTHR=  0.00E+00 NITDIR=10

                                                                                   NONZERO     BLOCKS
 ITER EX DEM     TOTAL ENERGY        E CHANGE  DENSITY CHANGE     ORB. GRAD      INTEGRALS    SKIPPED
   1  0  0   850312.8721072350850312.8721072350   0.527474561   0.000000000      944307588   18787971
          ---------------START SECOND ORDER SCF---------------
   2  1  0    -1460.7394698782*****************   0.418185948   0.095017255      949848316   18794190
   3  2  0    -1460.9991919141    -0.2597220358   0.176184816   0.072745535      941287509   19115893
   4  3  0    -1461.3507178271    -0.3515259130   0.055516584   0.011235198      925527087   19475182
   5  4  0    -1461.3590580395    -0.0083402125   0.015097621   0.005527197      901099011   19841600
   6  5  0    -1461.3605630707    -0.0015050312   0.003520829   0.002421828      873008559   20193904
   7  6  0    -1461.3607690263    -0.0002059555   0.001185272   0.000767624      838285311   20583295
   8  7  0    -1461.3608064760    -0.0000374497   0.000972897   0.000361676      803212357   20920473
   9  8  0    -1461.3608137667    -0.0000072907   0.000550307   0.000158723      774942960   21191078
  10  9  0    -1461.3608154486    -0.0000016819   0.000305741   0.000091571      742514888   21507522
  11 10  0    -1461.3608157579    -0.0000003093   0.000094663   0.000045968      717803727   21688486
  12 11  0    -1461.3608158328    -0.0000000749   0.000029715   0.000011197      676434081   22035258
  13 12  0    -1461.3608158404    -0.0000000075   0.000016522   0.000007514      630947409   22454339
  14 13  0    -1461.3608158429    -0.0000000025   0.000004527   0.000003115      592926037   22799570
  15 14  0    -1461.3608158429    -0.0000000000   0.000001670   0.000000931      552628224   23135906
  16 15  0    -1461.3608158435    -0.0000000006   0.000001104   0.000000558      510894082   23479478
  17 16  0    -1461.3608158434     0.0000000002   0.000000318   0.000000136      477456906   23762545
  18 17  0    -1461.3608158432     0.0000000002   0.000000114   0.000000066      428944469   24131471

          -----------------
          DENSITY CONVERGED
          -----------------
     TIME TO FORM FOCK OPERATORS=      43.5 SECONDS (       2.4 SEC/ITER)
     FOCK TIME ON FIRST ITERATION=       3.6, LAST ITERATION=       1.8
     TIME TO SOLVE SCF EQUATIONS=       0.7 SECONDS (       0.0 SEC/ITER)

 FINAL RHF ENERGY IS    -1461.3608158432 AFTER  18 ITERATIONS
 ...... END OF RHF CALCULATION ......
 CPU     0: STEP CPU TIME=    62.96 TOTAL CPU TIME=         65.1 (      1.1 MIN)
 TOTAL WALL CLOCK TIME=        179.7 SECONDS, CPU UTILIZATION IS    36.20%
 DONE PCM POT.
 CPU     0: STEP CPU TIME=     0.43 TOTAL CPU TIME=         65.5 (      1.1 MIN)
 TOTAL WALL CLOCK TIME=        180.9 SECONDS, CPU UTILIZATION IS    36.19%

 Iter=  1 iFrag=      1 EFMO= -1522.272505419, DD= 0.432598738, DE=************


 RHF      monomer     10 corr= NONE       , L1=   386, L0=   362 ID=      2


 AO spaces for    10     0     0 n-mer: L1=   386, L0=   362

 DIRECT SCF CALCULATION, SCHWRZ=T   FDIFF=T,  DIRTHR=  0.00E+00 NITDIR=10

                                                                                   NONZERO     BLOCKS
 ITER EX DEM     TOTAL ENERGY        E CHANGE  DENSITY CHANGE     ORB. GRAD      INTEGRALS    SKIPPED
   1  0  0  1284027.2098897032*****************   0.530820528   0.000000000      901040362   17628327
          ---------------START SECOND ORDER SCF---------------
   2  1  0    -1447.3125781803*****************   0.422438130   0.102412309      905617264   17616677
   3  2  0    -1447.5315814227    -0.2190032424   0.179502480   0.086567822      900801610   17851098
   4  3  0    -1448.1256935300    -0.5941121072   0.108271290   0.020374575      889624430   18168078
   5  4  0    -1448.1431541571    -0.0174606271   0.034332331   0.013791898      876778256   18405243
   6  5  0    -1448.1486260866    -0.0054719295   0.013128913   0.007486020      855125167   18739901
   7  6  0    -1448.1490139351    -0.0003878486   0.006655836   0.004728551      832999188   19030367
   8  7  0    -1448.1492496115    -0.0002356763   0.002032638   0.000717988      811854830   19269031
   9  8  0    -1448.1492595879    -0.0000099764   0.000865342   0.000489763      776662251   19617764
  10  9  0    -1448.1492665730    -0.0000069851   0.000300881   0.000052018      743248105   19938504
  11 10  0    -1448.1492671322    -0.0000005592   0.000157721   0.000043954      706681405   20243071
  12 11  0    -1448.1492672917    -0.0000001595   0.000076784   0.000025928      674310090   20529807
  13 12  0    -1448.1492673084    -0.0000000167   0.000038608   0.000015194      640217376   20800167
  14 13  0    -1448.1492673154    -0.0000000070   0.000009725   0.000002899      607899753   21052703
  15 14  0    -1448.1492673162    -0.0000000008   0.000007001   0.000001398      569064385   21384230
  16 15  0    -1448.1492673152     0.0000000010   0.000002586   0.000000501      526153426   21749662
  17 16  0    -1448.1492673157    -0.0000000005   0.000000725   0.000000300      492922846   22006892
  18 17  0    -1448.1492673156     0.0000000001   0.000000288   0.000000080      446070515   22374849
  19 18  0    -1448.1492673150     0.0000000007   0.000000135   0.000000044      406925357   22665958

          -----------------
          DENSITY CONVERGED
          -----------------
     TIME TO FORM FOCK OPERATORS=      42.7 SECONDS (       2.2 SEC/ITER)
     FOCK TIME ON FIRST ITERATION=       3.3, LAST ITERATION=       1.3
     TIME TO SOLVE SCF EQUATIONS=       0.7 SECONDS (       0.0 SEC/ITER)

 FINAL RHF ENERGY IS    -1448.1492673150 AFTER  19 ITERATIONS
 ...... END OF RHF CALCULATION ......
 CPU     0: STEP CPU TIME=    70.28 TOTAL CPU TIME=        135.8 (      2.3 MIN)
 TOTAL WALL CLOCK TIME=        332.1 SECONDS, CPU UTILIZATION IS    40.89%
 DONE PCM POT.
 CPU     0: STEP CPU TIME=     0.45 TOTAL CPU TIME=        136.2 (      2.3 MIN)
 TOTAL WALL CLOCK TIME=        333.3 SECONDS, CPU UTILIZATION IS    40.87%

 Iter=  1 iFrag=     10 EFMO= -1506.977692576, DD= 0.451654560, DE=************


 RHF      monomer      8 corr= NONE       , L1=   371, L0=   348 ID=      3


 AO spaces for     8     0     0 n-mer: L1=   371, L0=   348

 DIRECT SCF CALCULATION, SCHWRZ=T   FDIFF=T,  DIRTHR=  0.00E+00 NITDIR=10

                                                                                   NONZERO     BLOCKS
 ITER EX DEM     TOTAL ENERGY        E CHANGE  DENSITY CHANGE     ORB. GRAD      INTEGRALS    SKIPPED
   1  0  0  1267069.8277199634*****************   0.539472595   0.000000000      794608140   15130803
          ---------------START SECOND ORDER SCF---------------
   2  1  0    -1366.5012547751*****************   0.423047316   0.129262382      798117778   15133223
   3  2  0    -1366.7673401533    -0.2660853782   0.177388530   0.105375066      793096526   15399968
   4  3  0    -1367.1039108194    -0.3365706660   0.055614217   0.013848242      783103193   15693910
   5  4  0    -1367.1119217620    -0.0080109427   0.014578018   0.004434741      765989826   16009191
   6  5  0    -1367.1131863898    -0.0012646278   0.003594658   0.002272074      745774749   16302230
   7  6  0    -1367.1133523699    -0.0001659801   0.001234025   0.000675155      718939659   16625581
   8  7  0    -1367.1133802877    -0.0000279178   0.000715193   0.000256951      690104619   16912287
   9  8  0    -1367.1133850999    -0.0000048122   0.000432166   0.000152258      663353143   17167174
  10  9  0    -1367.1133863105    -0.0000012106   0.000143378   0.000048350      634936220   17436088
  11 10  0    -1367.1133864954    -0.0000001848   0.000051992   0.000013422      612986564   17614313
  12 11  0    -1367.1133865181    -0.0000000228   0.000020620   0.000012051      581310403   17880955
  13 12  0    -1367.1133865227    -0.0000000045   0.000005914   0.000002259      539282065   18250447
  14 13  0    -1367.1133865236    -0.0000000009   0.000002299   0.000001157      504762639   18541607
  15 14  0    -1367.1133865233     0.0000000003   0.000001603   0.000000868      469827326   18846414
  16 15  0    -1367.1133865237    -0.0000000004   0.000000561   0.000000389      436581233   19147730
  17 16  0    -1367.1133865236     0.0000000001   0.000000206   0.000000072      399775675   19403558
  18 17  0    -1367.1133865234     0.0000000002   0.000000051   0.000000018      365404453   19691203

          -----------------
          DENSITY CONVERGED
          -----------------
     TIME TO FORM FOCK OPERATORS=      38.7 SECONDS (       2.2 SEC/ITER)
     FOCK TIME ON FIRST ITERATION=       3.1, LAST ITERATION=       1.3
     TIME TO SOLVE SCF EQUATIONS=       0.6 SECONDS (       0.0 SEC/ITER)

 FINAL RHF ENERGY IS    -1367.1133865234 AFTER  18 ITERATIONS
 ...... END OF RHF CALCULATION ......
 CPU     0: STEP CPU TIME=    66.67 TOTAL CPU TIME=        202.9 (      3.4 MIN)
 TOTAL WALL CLOCK TIME=        468.1 SECONDS, CPU UTILIZATION IS    43.34%
 DONE PCM POT.
 CPU     0: STEP CPU TIME=     0.40 TOTAL CPU TIME=        203.3 (      3.4 MIN)
 TOTAL WALL CLOCK TIME=        469.2 SECONDS, CPU UTILIZATION IS    43.32%

 Iter=  1 iFrag=      8 EFMO= -1432.220293952, DD= 0.431677083, DE=************


 RHF      monomer      9 corr= NONE       , L1=   371, L0=   348 ID=      4


 AO spaces for     9     0     0 n-mer: L1=   371, L0=   348

 DIRECT SCF CALCULATION, SCHWRZ=T   FDIFF=T,  DIRTHR=  0.00E+00 NITDIR=10

                                                                                   NONZERO     BLOCKS
 ITER EX DEM     TOTAL ENERGY        E CHANGE  DENSITY CHANGE     ORB. GRAD      INTEGRALS    SKIPPED
   1  0  0  1352115.2639372163*****************   0.533733778   0.000000000      812148362   14947140
          ---------------START SECOND ORDER SCF---------------
   2  1  0    -1369.2974247690*****************   0.429798468   0.087708471      816027524   14942284
   3  2  0    -1369.5675331926    -0.2701084236   0.176002653   0.055489690      811501639   15183753
   4  3  0    -1369.9614338223    -0.3939006297   0.060111133   0.009189101      801580163   15475085
   5  4  0    -1369.9710314889    -0.0095976665   0.017592486   0.005452283      785302044   15782558
   6  5  0    -1369.9730109443    -0.0019794554   0.004184605   0.002712328      764777935   16088223
   7  6  0    -1369.9732191826    -0.0002082383   0.001356642   0.000746234      738992992   16398138
   8  7  0    -1369.9732648499    -0.0000456673   0.000964547   0.000338654      713068477   16670729
   9  8  0    -1369.9732722305    -0.0000073806   0.000563283   0.000155876      686686699   16925863
