‘2LBL_5_fmo_input.inp’ -> ‘/scratch/hazwong/822129/./2LBL_5_fmo_input.inp’
‘rungms’ -> ‘/scratch/hazwong/822129/./rungms’
‘gms-files.csh’ -> ‘/scratch/hazwong/822129/./gms-files.csh’
----- GAMESS execution script 'rungms' -----
This job is running on host gollum050.lsa.umich.edu
under operating system Linux at Fri Dec 6 11:47:51 EST 2019
Available scratch disk space (Kbyte units) at beginning of the job is
Filesystem     1K-blocks  Used Available Use% Mounted on
/dev/sda4      426933580 33328 426900252   1% /scratch
GAMESS temporary binary files will be written to /scratch/hazwong/822129/2LBL_5/usrc
GAMESS supplementary output files will be written to /scratch/hazwong/822129/2LBL_5/src
Copying input file 2LBL_5_fmo_input.inp to your run's scratch directory...
cp 2LBL_5_fmo_input.inp /scratch/hazwong/822129/2LBL_5/usrc/2LBL_5_fmo_input.F05
unset echo
This is a GDDI run, keeping various output files on local disks
setenv OUTPUT /scratch/hazwong/822129/2LBL_5/usrc/2LBL_5_fmo_input.F06
setenv PUNCH /scratch/hazwong/822129/2LBL_5/usrc/2LBL_5_fmo_input.F07
unset echo
 
Assuming a single but multicore node.
 
/export/apps/CentOS7/gamess/src/build//ddikick.x /export/apps/CentOS7/gamess/src/build//gamess.R3.x 2LBL_5_fmo_input -ddi 1 16 gollum050.lsa.umich.edu:cpus=16 -scr /scratch/hazwong/822129/2LBL_5/usrc

 Distributed Data Interface kickoff program.
 Initiating 16 compute processes on 1 nodes to run the following command:
 /export/apps/CentOS7/gamess/src/build//gamess.R3.x 2LBL_5_fmo_input 

          ******************************************************
          *         GAMESS VERSION = 30 SEP 2018 (R3)         *
          *             FROM IOWA STATE UNIVERSITY             *
          * M.W.SCHMIDT, K.K.BALDRIDGE, J.A.BOATZ, S.T.ELBERT, *
          *   M.S.GORDON, J.H.JENSEN, S.KOSEKI, N.MATSUNAGA,   *
          *          K.A.NGUYEN, S.J.SU, T.L.WINDUS,           *
          *       TOGETHER WITH M.DUPUIS, J.A.MONTGOMERY       *
          *         J.COMPUT.CHEM.  14, 1347-1363(1993)        *
          **************** 64 BIT LINUX VERSION ****************

  SINCE 1993, STUDENTS AND POSTDOCS WORKING AT IOWA STATE UNIVERSITY
  AND ALSO IN THEIR VARIOUS JOBS AFTER LEAVING ISU HAVE MADE IMPORTANT
  CONTRIBUTIONS TO THE CODE:
     IVANA ADAMOVIC, CHRISTINE AIKENS, YURI ALEXEEV, POOJA ARORA,
     ANDREY ASADCHEV, ROB BELL, PRADIPTA BANDYOPADHYAY, JONATHAN BENTZ,
     BRETT BODE, KURT BRORSEN, CALEB CARLIN, GALINA CHABAN, WEI CHEN,
     CHEOL HO CHOI, PAUL DAY, ALBERT DEFUSCO, NUWAN DESILVA, TIM DUDLEY,
     DMITRI FEDOROV, ALEX FINDLATER, GRAHAM FLETCHER, MARK FREITAG,
     KURT GLAESEMANN, ANASTASIA GUNINA,
     DAN KEMP, GRANT MERRILL, NORIYUKI MINEZAWA, JONATHAN MULLIN,
     TAKESHI NAGATA, SEAN NEDD, HEATHER NETZLOFF, BOSILJKA NJEGIC, RYAN OLSON,
     MIKE PAK, BUU PHAM,
     SPENCER PRUITT, LUKE ROSKOP, JIM SHOEMAKER, LYUDMILA SLIPCHENKO,
     TONY SMITH, SAROM SOK LEANG, JIE SONG, TETSUYA TAKETSUGU, SIMON WEBB,
     PENG XU, SOOHAENG YOO, FEDERICO ZAHARIEV

  ADDITIONAL CODE HAS BEEN PROVIDED BY COLLABORATORS IN OTHER GROUPS:
     IOWA STATE UNIVERSITY:
          JOE IVANIC, AARON WEST, LAIMUTIS BYTAUTAS, KLAUS RUEDENBERG
     UNIVERSITY OF TOKYO: KIMIHIKO HIRAO, TAKAHITO NAKAJIMA,
          TAKAO TSUNEDA, MUNEAKI KAMIYA, SUSUMU YANAGISAWA,
          KIYOSHI YAGI, MAHITO CHIBA, SEIKEN TOKURA, NAOAKI KAWAKAMI
     UNIVERSITY OF AARHUS: FRANK JENSEN
     UNIVERSITY OF IOWA: VISVALDAS KAIRYS, HUI LI
     NATIONAL INST. OF STANDARDS AND TECHNOLOGY: WALT STEVENS, DAVID GARMER
     UNIVERSITY OF PISA: BENEDETTA MENNUCCI, JACOPO TOMASI
     UNIVERSITY OF MEMPHIS: HENRY KURTZ, PRAKASHAN KORAMBATH
     UNIVERSITY OF ALBERTA: TOBY ZENG, MARIUSZ KLOBUKOWSKI
     UNIVERSITY OF NEW ENGLAND: MARK SPACKMAN
     MIE UNIVERSITY: HIROAKI UMEDA
     NAT. INST. OF ADVANCED INDUSTRIAL SCIENCE AND TECHNOLOGY: KAZUO KITAURA
     MICHIGAN STATE UNIVERSITY:
          KAROL KOWALSKI, MARTA WLOCH, JEFFREY GOUR, JESSE LUTZ,
          WEI LI, JUN SHEN, J. EMILIANO DEUSTUA, PIOTR PIECUCH
     UNIVERSITY OF MINNESOTA:
          YINAN SHU
     UNIVERSITY OF SILESIA: MONIKA MUSIAL, STANISLAW KUCHARSKI
     FACULTES UNIVERSITAIRES NOTRE-DAME DE LA PAIX:
          OLIVIER QUINET, BENOIT CHAMPAGNE
     UNIVERSITY OF CALIFORNIA - SANTA BARBARA: BERNARD KIRTMAN
     INSTITUTE FOR MOLECULAR SCIENCE:
          KAZUYA ISHIMURA, MICHIO KATOUDA, AND SHIGERU NAGASE
     UNIVERSITY OF NOTRE DAME: ANNA POMOGAEVA, DAN CHIPMAN
     KYUSHU UNIVERSITY:
          HARUYUKI NAKANO,
          FENG LONG GU, JACEK KORCHOWIEC, MARCIN MAKOWSKI, AND YURIKO AOKI,
          HIROTOSHI MORI AND EISAKU MIYOSHI
     PENNSYLVANIA STATE UNIVERSITY:
          TZVETELIN IORDANOV, CHET SWALINA, JONATHAN SKONE,
          SHARON HAMMES-SCHIFFER
     WASEDA UNIVERSITY:
          MASATO KOBAYASHI, TOMOKO AKAMA, TSUGUKI TOUMA,
          TAKESHI YOSHIKAWA, YASUHIRO IKABATA, JUNJI SEINO,
          YUYA NAKAJIMA, HIROMI NAKAI
     NANJING UNIVERSITY: SHUHUA LI
     UNIVERSITY OF NEBRASKA:
          PEIFENG SU, DEJUN SI, NANDUN THELLAMUREGE, YALI WANG, HUI LI
     UNIVERSITY OF ZURICH: ROBERTO PEVERATI, KIM BALDRIDGE
     N. COPERNICUS UNIVERSITY AND JACKSON STATE UNIVERSITY:
          MARIA BARYSZ
     UNIVERSITY OF COPENHAGEN: Jimmy Kromann, CASPER STEINMANN
     TOKYO INSTITUTE OF TECHNOLOGY: HIROYA NAKATA
     NAGOYA UNIVERSITY: YOSHIO NISHIMOTO, STEPHAN IRLE
     MOSCOW STATE UNIVERSITY: VLADIMIR MIRONOV


 PARALLEL VERSION RUNNING ON       16 PROCESSORS IN        1 NODES.

 EXECUTION OF GAMESS BEGUN Fri Dec  6 11:47:51 2019

            ECHO OF THE FIRST FEW INPUT CARDS -
 INPUT CARD>!*** FMO 5.3 (Gamess) INPUT generated by Facio 22.1.1.32 ***                    
 INPUT CARD> $CONTRL RUNTYP=ENERGY NPRINT=-5 ISPHER=1 MAXIT=200 $END                        
 INPUT CARD> $SYSTEM MWORDS=63 MEMDDI=63 $END                                               
 INPUT CARD> $GDDI NGROUP=1 $END                                                            
 INPUT CARD> $SCF DIRSCF=.TRUE. NPUNCH=0 $END                                               
 INPUT CARD>!*** NumCPU : 2  MemPerNode : 512MB                                             
 INPUT CARD> $PCM SOLVNT=WATER IEF=-10 ICOMP=2 ICAV=1 IDISP=1 IFMO=-1 $END                  
 INPUT CARD> $PCMCAV RADII=SUAHF $END                                                       
 INPUT CARD> $TESCAV NTSALL=60 $END                                                         
 INPUT CARD> $FMOPRP                                                                        
 INPUT CARD>    NAODIR=200                                                                  
 INPUT CARD>    NGRFMO(1)=1, 1, 0, 0, 0,   0, 0, 0, 0, 0                                    
 INPUT CARD>    IPIEDA=1                                                                    
 INPUT CARD>    NPRINT=9                                                                    
 INPUT CARD> $END                                                                           
 INPUT CARD> $FMO                                                                           
 INPUT CARD>      SCFTYP(1)=RHF                                                             
 INPUT CARD>      MODGRD=10                                                                 
 INPUT CARD>      MODMUL=0                                                                  
 INPUT CARD>      MAXCAO=5                                                                  
 INPUT CARD>      MAXBND=13                                                                 
 INPUT CARD>      NLAYER=1                                                                  
 INPUT CARD>      MPLEVL(1)=2                                                               
 INPUT CARD>      NFRAG=11                                                                  
 INPUT CARD>      ICHARG(1)=-1, -1, -1, -1, -1, -1, -1, -1, -1, -1, 0                       
 INPUT CARD>      FRGNAM(1)=F1, F2, F3, F4, F5, F6, F7, F8, F9, F10, F11                    
 INPUT CARD>      indat(1)=0                                                                
 INPUT CARD>               1   -35   0                                                      
 INPUT CARD>               36   -66   0                                                     
 INPUT CARD>               67   -97   0                                                     
 INPUT CARD>               98   -127   0                                                    
 INPUT CARD>               128   -157   0                                                   
 INPUT CARD>               158   -188   0                                                   
 INPUT CARD>               189   -219   0                                                   
 INPUT CARD>               220   -252   0                                                   
 INPUT CARD>               253   -285   0                                                   
 INPUT CARD>               286   -319   0                                                   
 INPUT CARD>               320   -346   0                                                   
 INPUT CARD> $END                                                                           
 INPUT CARD>                                                                                
 INPUT CARD> $FMOBND                                                                        
 INPUT CARD>   -36   35       6-31G*    MINI                                                
 INPUT CARD>   -67   66       6-31G*    MINI                                                
 INPUT CARD>   -98   97       6-31G*    MINI                                                
 INPUT CARD>   -128   127       6-31G*    MINI                                              
 INPUT CARD>   -158   157       6-31G*    MINI                                              
 INPUT CARD>   -189   188       6-31G*    MINI                                              
 INPUT CARD>   -220   219       6-31G*    MINI                                              
 INPUT CARD>   -253   252       6-31G*    MINI                                              
 INPUT CARD>   -286   285       6-31G*    MINI                                              


 -------------------------------------------------------------
 GROUP DDI, PROGRAMMED BY: RYAN M. OLSON AND DMITRI G. FEDOROV
        FEDOROV ET AL., J. COMPUT. CHEM., 25 (2004) 872.
 -------------------------------------------------------------

 -------------------------------------------------------
 GDDI: INITIALIZATION COMPLETED FOR GROUP     1 OF     1
 WITH    16 PROCESSES BALTYP=DLB   global rank=        0
 -------------------------------------------------------

   63000000 WORDS OF MEMORY AVAILABLE


     RUN TITLE
     ---------
  FMO calculation                                                                

 THE POINT GROUP OF THE MOLECULE IS C1      
 THE ORDER OF THE PRINCIPAL AXIS IS     0

 ATOM   ATOMIC CHARGE
 H.1-1       1.0
 O.1-1       8.0
 C.1-1       6.0
 N.1-1       7.0
 P.1-1      15.0

     ATOMIC BASIS SET LIBRARY
     ----------------
 THE CONTRACTED PRIMITIVE FUNCTIONS HAVE BEEN UNNORMALIZED
 THE CONTRACTED BASIS FUNCTIONS ARE NOW NORMALIZED TO UNITY

  SHELL TYPE  PRIMITIVE        EXPONENT          CONTRACTION COEFFICIENT(S)

 H.1-1     

      1   S       1            18.7311370    0.033494604338
      1   S       2             2.8253944    0.234726953484
      1   S       3             0.6401217    0.813757326146

      2   S       4             0.1612778    1.000000000000

 O.1-1     

      3   S       5          5484.6716600    0.001831074430
      3   S       6           825.2349460    0.013950172200
      3   S       7           188.0469580    0.068445078098
      3   S       8            52.9645000    0.232714335992
      3   S       9            16.8975704    0.470192897984
      3   S      10             5.7996353    0.358520852987

      4   L      11            15.5396162   -0.110777549525    0.070874268231
      4   L      12             3.5999336   -0.148026262701    0.339752839147
      4   L      13             1.0137618    1.130767015354    0.727158577316

      5   L      14             0.2700058    1.000000000000    1.000000000000

      6   D      15             0.8000000    1.000000000000

 C.1-1     

      7   S      16          3047.5248800    0.001834737132
      7   S      17           457.3695180    0.014037322813
      7   S      18           103.9486850    0.068842622264
      7   S      19            29.2101553    0.232184443216
      7   S      20             9.2866630    0.467941348435
      7   S      21             3.1639270    0.362311985337

      8   L      22             7.8682723   -0.119332419775    0.068999066591
      8   L      23             1.8812885   -0.160854151696    0.316423960957
      8   L      24             0.5442493    1.143456437840    0.744308290898

      9   L      25             0.1687145    1.000000000000    1.000000000000

     10   D      26             0.8000000    1.000000000000

 N.1-1     

     11   S      27          4173.5114600    0.001834772160
     11   S      28           627.4579110    0.013994627002
     11   S      29           142.9020930    0.068586551812
     11   S      30            40.2343293    0.232240873040
     11   S      31            12.8202129    0.469069948082
     11   S      32             4.3904370    0.360455199063

     12   L      33            11.6263619   -0.114961181702    0.067579743878
     12   L      34             2.7162798   -0.169117478561    0.323907295893
     12   L      35             0.7722184    1.145851947027    0.740895139755

     13   L      36             0.2120315    1.000000000000    1.000000000000

     14   D      37             0.8000000    1.000000000000

 P.1-1     

     15   S      38         19413.3000000    0.001851598923
     15   S      39          2909.4200000    0.014206191735
     15   S      40           661.3640000    0.069999459277
     15   S      41           185.7590000    0.240078860331
     15   S      42            59.1943000    0.484761717984
     15   S      43            20.0310000    0.335199804993

     16   L      44           339.4780000   -0.002782170105    0.004564616191
     16   L      45            81.0101000   -0.036049901354    0.033693571881
     16   L      46            25.8780000   -0.116631004382    0.139754883368
     16   L      47             9.4522100    0.096832803638    0.339361716786
     16   L      48             3.6656600    0.614418023082    0.450920623685
     16   L      49             1.4674600    0.403798015170    0.238585800889

     17   L      50             2.1562300   -0.252924113863   -0.017765312733
     17   L      51             0.7489970    0.032851844678    0.274058196433
     17   L      52             0.2831450    1.081254761783    0.785421562957

     18   L      53             0.0998317    1.000000000000    1.000000000000

     19   D      54             0.5500000    1.000000000000

 TOTAL NUMBER OF BASIS SET SHELLS             =   19
 NUMBER OF CARTESIAN GAUSSIAN BASIS FUNCTIONS =   66

     $CONTRL OPTIONS
     ---------------
 SCFTYP=RHF          RUNTYP=ENERGY       EXETYP=RUN     
 MPLEVL=       0     CITYP =NONE         CCTYP =NONE         VBTYP =NONE    
 DFTTYP=NONE         TDDFT =NONE    
 MULT  =       1     ICHARG=       0     NZVAR =       0     COORD =UNIQUE  
 PP    =NONE         RELWFN=NONE         LOCAL =NONE         NUMGRD=       F
 ISPHER=       1     NOSYM =       0     MAXIT =     200     UNITS =ANGS    
 PLTORB=       F     MOLPLT=       F     AIMPAC=       F     FRIEND=        
 NPRINT=      -5     IREST =       0     GEOM  =INPUT   
 NORMF =       0     NORMP =       0     ITOL  =      24     ICUT  =      12
 INTTYP=BEST         GRDTYP=BEST         QMTTOL= 1.0E-06

     $SYSTEM OPTIONS
     ---------------
  REPLICATED MEMORY=    63000000 WORDS (ON EVERY NODE).
 DISTRIBUTED MEMDDI=          63 MILLION WORDS IN AGGREGATE,
 MEMDDI DISTRIBUTED OVER  16 PROCESSORS IS     3937500 WORDS/PROCESSOR.
 TOTAL MEMORY REQUESTED ON EACH PROCESSOR=    66937500 WORDS.
 TIMLIM=      525600.00 MINUTES, OR     365.0 DAYS.
 PARALL= T  BALTYP=  DLB     KDIAG=    0  COREFL= F
 MXSEQ2=     300 MXSEQ3=     150  mem10=         0

 ** LOOKING UP INTERNALLY STORED DATA FOR SOLVENT=WATER    **
 OPTICAL AND PHYSICAL CONSTANTS:
 EPS= 78.390; EPSINF=  1.776; RSOLV=  1.385 A; VMOL=  18.070 ML/MOL;
 TCE= .25700E-03 1/K; STEN= 71.810 DYN/CM;  DSTEN=  0.6500; CMF=  1.2770


     -----------------------------------
     INPUT FOR PCM SOLVATION CALCULATION 
     -----------------------------------
     IEF   =     -10
     ICOMP =       2     IFIELD=       0     ICAV  =       1
     IDISP =       1     IREP  =       0     IDP   =       0

     SOLVNT=WATER        EPS   = 78.3900     EPSINF=  1.7760
     VMOL  = 18.0700     TCE   =  0.00025700 STEN  = 71.8100
     DSTEN =  0.6500     CMF   =  1.2770     RSOLV =  1.3850

     NESFP =       0
     OMEGA = 40.0000     RET   =100.0000     FRO   =  0.7000

     TABS  =298.0000     IPRINT=       0

     --------------------------------
     INPUT FOR ITERATIVE C-PCM METHOD 
     --------------------------------
     IPCMIT  =         1     MXDIIS  =        50
     MXITR1  =       200     MXITR2  =       200
     THRES   = 0.100E-09     IMUL    =         3
     RCUT(1) =   20.0000     RCUT(2) =   50.0000

     IDIRCT  =         1
     IMGABI  =         0     RABI    =    4.0000
     IMGASC  =         0     RASC    =   20.0000
     THRSLS  = 0.500E-03     DENSLS  =    0.0100
     IEFPOL  =         1     REFPOL  =    0.0000

     INPUT FOR ISOTROPIC DIELECTRICS
     -------------------------------
     EPS=    78.39

          ----------------
          PROPERTIES INPUT
          ----------------

     MOMENTS            FIELD           POTENTIAL          DENSITY
 IEMOM =       1   IEFLD =       0   IEPOT =       0   IEDEN =       0
 WHERE =COMASS     WHERE =NUCLEI     WHERE =NUCLEI     WHERE =NUCLEI  
 OUTPUT=BOTH       OUTPUT=BOTH       OUTPUT=NONE       OUTPUT=BOTH    
 IEMINT=       0   IEFINT=       0                     IEDINT=       0
                                                       MORB  =       0
          EXTRAPOLATION IN EFFECT
          SOSCF IN EFFECT
 ORBITAL PRINTING OPTION: NPREO=     1 32767     2     1

     -------------------------------
     INTEGRAL TRANSFORMATION OPTIONS
     -------------------------------
     NWORD  =            0
     CUTOFF = 1.0E-10     MPTRAN =       0
     DIRTRF =       T     AOINTS =DUP     

          ----------------------
          INTEGRAL INPUT OPTIONS
          ----------------------
 NOPK  =       1 NORDER=       0 SCHWRZ=       T

 ..... DONE SETTING UP THE RUN .....
 CPU     0: STEP CPU TIME=     0.03 TOTAL CPU TIME=          0.0 (      0.0 MIN)
 TOTAL WALL CLOCK TIME=          0.1 SECONDS, CPU UTILIZATION IS    50.00%
 CPU     0: STEP CPU TIME=     0.00 TOTAL CPU TIME=          0.0 (      0.0 MIN)
 TOTAL WALL CLOCK TIME=          0.1 SECONDS, CPU UTILIZATION IS    50.00%

                    ----------------------
                    AO INTEGRAL TECHNOLOGY
                    ----------------------
     S,P,L SHELL ROTATED AXIS INTEGRALS, REPROGRAMMED BY
        KAZUYA ISHIMURA (IMS) AND JOSE SIERRA (SYNSTAR).
     S,P,D,L SHELL ROTATED AXIS INTEGRALS PROGRAMMED BY
        KAZUYA ISHIMURA (INSTITUTE FOR MOLECULAR SCIENCE).
     S,P,D,F,G SHELL TO TOTAL QUARTET ANGULAR MOMENTUM SUM 5,
        ERIC PROGRAM BY GRAHAM FLETCHER (ELORET AND NASA ADVANCED
        SUPERCOMPUTING DIVISION, AMES RESEARCH CENTER).
     S,P,D,F,G,L SHELL GENERAL RYS QUADRATURE PROGRAMMED BY
        MICHEL DUPUIS (PACIFIC NORTHWEST NATIONAL LABORATORY).
 Setting modorb=1 flag...
 Setting modorb=1 flag...

          -----------------------
          MP2 CONTROL INFORMATION
          -----------------------
          NACORE =        8  NBCORE =        8
          LMOMP2 =        F  AOINTS = DUP     
          METHOD =        2  NWORD  =               0
          MP2PRP =        F  OSPT   = NONE    
          CUTOFF = 1.00E-12  CPHFBS = BASISAO 
          CODE   = IMS     

          NUMBER OF CORE -A-  ORBITALS =     8
          NUMBER OF CORE -B-  ORBITALS =     8
          NUMBER OF OCC. -A-  ORBITALS =    18
          NUMBER OF OCC. -B-  ORBITALS =    18
          NUMBER OF MOLECULAR ORBITALS =    66
          NUMBER OF   BASIS  FUNCTIONS =    66

 CPU     0: STEP CPU TIME=     0.04 TOTAL CPU TIME=          0.1 (      0.0 MIN)
 TOTAL WALL CLOCK TIME=          0.1 SECONDS, CPU UTILIZATION IS    70.00%
 CPU     0: STEP CPU TIME=     0.00 TOTAL CPU TIME=          0.1 (      0.0 MIN)
 TOTAL WALL CLOCK TIME=          0.1 SECONDS, CPU UTILIZATION IS    70.00%

     INPUT FOR CAVITY DEFINITION 
     ---------------------------
   ATOM               COORDINATES                RADIUS       EPS
      1     -4.3630    -10.1040      7.6110      0.0100     78.3900
      2     -3.6730     -9.9510      6.9340      1.5900     78.3900
      3     -4.3700     -9.6810      5.7080      1.7700     78.3900
      4     -5.0600     -8.8200      5.8690      0.0100     78.3900
      5     -4.9800    -10.5700      5.4320      0.0100     78.3900
      6     -3.4310     -9.3490      4.5470      1.7700     78.3900
      7     -4.0040     -9.1900      3.6060      0.0100     78.3900
      8     -2.7010     -8.1170      4.8320      1.5900     78.3900
      9     -1.3700     -8.2430      4.3520      1.7700     78.3900
     10     -1.1990     -7.3900      3.6570      0.0100     78.3900
     11     -0.3940     -8.1750      5.4490      1.6800     78.3900
     12      1.4500     -7.8900      6.6200      1.7700     78.3900
     13      0.4460     -8.1740      7.5410      1.6800     78.3900
     14     -0.6270     -8.3270      6.7980      1.7700     78.3900
     15     -1.6250     -8.5640      7.1740      0.0100     78.3900
     16      3.5390     -7.3480      5.6410      1.6800     78.3900
     17      2.9150     -7.4160      4.4590      1.7700     78.3900
     18      3.5460     -7.2280      3.5830      0.0100     78.3900
     19      1.6270     -7.6690      4.1970      1.6800     78.3900
     20      0.9450     -7.8960      5.3300      1.7700     78.3900
     21      2.8220     -7.5870      6.7690      1.7700     78.3900
     22      3.4460     -7.5170      7.9610      1.6800     78.3900
     23      2.9450     -7.6310      8.8220      0.0100     78.3900
     24      4.4330     -7.3470      8.0110      0.0100     78.3900
     25     -1.2910     -9.5410      3.5770      1.7700     78.3900
     26     -0.2850    -10.0030      3.6280      0.0100     78.3900
     27     -1.6480     -9.3150      2.2270      1.5900     78.3900
     28     -1.6240    -10.1720      1.7850      0.0100     78.3900
     29     -2.3360    -10.3920      4.2920      1.7700     78.3900
     30     -1.9550    -10.7100      5.2900      0.0100     78.3900
     31     -2.8810    -11.4880      3.5210      1.5900     78.3900
     32     -2.1860    -12.8990      3.6090      2.1000     78.3900
     33     -1.9520    -13.2260      5.0300      1.5900     78.3900
     34     -2.9570    -13.8750      2.8080      1.5900     78.3900
     35     -0.8020    -12.6550      2.9130      1.5900     78.3900
     36     -0.7080    -12.4610      1.4830      1.7700     78.3900
     37     -1.4010    -11.6680      1.1210      0.0100     78.3900
     38     -0.9790    -13.3990      0.9470      0.0100     78.3900
     39      0.7230    -12.0900      1.0670      1.7700     78.3900
     40      0.7710    -11.8480     -0.0170      0.0100     78.3900
     41      1.1980    -10.9240      1.7990      1.5900     78.3900
     42      2.5790    -11.1010      2.1000      1.7700     78.3900
     43      3.0950    -10.2260      1.6390      0.0100     78.3900
     44      2.8650    -11.1140      3.5620      1.6800     78.3900
     45      1.8670    -11.4080      4.4630      1.7700     78.3900
     46      0.8920    -11.6310      4.0350      0.0100     78.3900
     47      2.0880    -11.3810      5.7840      1.7700     78.3900
     48      1.2990    -11.5680      6.5110      0.0100     78.3900
     49      4.1530    -10.8510      4.0200      1.7700     78.3900
     50      5.0550    -10.6140      3.2010      1.5900     78.3900
     51      4.3960    -10.8290      5.3450      1.6800     78.3900
     52      3.4050    -11.0590      6.2230      1.7700     78.3900
     53      3.6640    -10.9600      7.5230      1.6800     78.3900
     54      4.6140    -10.7910      7.7990      0.0100     78.3900
     55      2.9860    -11.1580      8.2290      0.0100     78.3900
     56      3.0440    -12.3600      1.4030      1.7700     78.3900
     57      3.8310    -12.8870      1.9750      0.0100     78.3900
     58      3.5140    -12.0720      0.0980      1.5900     78.3900
     59      3.6830    -12.9290     -0.3270      0.0100     78.3900
     60      1.7620    -13.1740      1.3630      1.7700     78.3900
     61      1.5280    -13.5910      2.3700      0.0100     78.3900
     62      1.7150    -14.1660      0.3260      1.5900     78.3900
     63      2.3910    -15.5670      0.5680      2.1000     78.3900
     64      1.9330    -16.0450      1.8970      1.5900     78.3900
     65      2.0160    -16.3640     -0.6110      1.5900     78.3900
     66      3.9380    -15.2560      0.5740      1.5900     78.3900
     67      4.8710    -16.2010      1.1460      1.7700     78.3900
     68      5.3440    -16.7800      0.3230      0.0100     78.3900
     69      4.3680    -16.9490      1.8080      0.0100     78.3900
     70      5.9820    -15.5390      1.9880      1.7700     78.3900
     71      6.7860    -15.1370      1.3390      0.0100     78.3900
     72      5.4390    -14.4130      2.7330      1.5900     78.3900
     73      5.9560    -14.3830      4.0370      1.7700     78.3900
     74      6.3700    -13.3560      4.1480      0.0100     78.3900
     75      4.9020    -14.5900      5.0750      1.6800     78.3900
     76      3.7520    -15.2920      4.7830      1.7700     78.3900
     77      3.6550    -15.6730      3.7590      0.0100     78.3900
     78      2.7920    -15.4530      5.7070      1.7700     78.3900
     79      1.8610    -15.9730      5.4950      0.0100     78.3900
     80      5.0620    -14.0380      6.3430      1.7700     78.3900
     81      6.0790    -13.3760      6.5850      1.5900     78.3900
     82      4.1330    -14.2250      7.2970      1.6800     78.3900
     83      3.0010    -14.8820      6.9980      1.7700     78.3900
     84      2.0500    -14.9830      7.9220      1.6800     78.3900
     85      2.2130    -14.5780      8.8230      0.0100     78.3900
     86      1.1720    -15.4330      7.7520      0.0100     78.3900
     87      7.0850    -15.3970      4.1020      1.7700     78.3900
     88      7.1750    -15.8650      5.1040      0.0100     78.3900
     89      8.3290    -14.7970      3.7380      1.5900     78.3900
     90      8.3880    -13.8820      4.0410      0.0100     78.3900
     91      6.6100    -16.4320      3.0690      1.7700     78.3900
     92      5.7930    -17.0460      3.5100      0.0100     78.3900
     93      7.6640    -17.2480      2.5410      1.5900     78.3900
     94      7.5090    -18.4780      1.5720      2.1000     78.3900
     95      7.7670    -18.0180      0.1920      1.5900     78.3900
     96      8.3960    -19.5520      2.0580      1.5900     78.3900
     97      6.0140    -18.9230      1.6670      1.5900     78.3900
     98      5.3890    -19.8460      0.7540      1.7700     78.3900
     99      5.6080    -20.8780      1.0870      0.0100     78.3900
    100      5.7800    -19.7520     -0.2820      0.0100     78.3900
    101      3.8630    -19.6660      0.7920      1.7700     78.3900
    102      3.5570    -19.2550      1.7760      0.0100     78.3900
    103      3.4170    -18.7380     -0.2140      1.5900     78.3900
    104      2.7960    -19.4210     -1.2860      1.7700     78.3900
    105      1.7190    -19.1570     -1.2170      0.0100     78.3900
    106      3.3650    -19.0020     -2.5980      1.6800     78.3900
    107      4.6920    -18.6600     -2.6970      1.7700     78.3900
    108      5.2520    -18.6690     -1.7630      0.0100     78.3900
    109      2.5330    -18.9170     -3.6930      1.7700     78.3900
    110      1.3340    -19.1690     -3.6350      1.5900     78.3900
    111      3.1420    -18.5180     -4.8590      1.6800     78.3900
    112      2.5470    -18.4770     -5.6700      0.0100     78.3900
    113      4.4630    -18.1510     -5.0230      1.7700     78.3900
    114      4.8730    -17.7730     -6.1200      1.5900     78.3900
    115      5.2560    -18.2500     -3.8400      1.7700     78.3900
    116      6.3010    -17.9590     -3.8940      0.0100     78.3900
    117      2.9670    -20.9070     -1.0300      1.7700     78.3900
    118      3.9190    -21.2830     -1.4740      0.0100     78.3900
    119      1.8690    -21.6580     -1.5080      1.5900     78.3900
    120      1.1060    -21.4120     -0.9620      0.0100     78.3900
    121      3.0690    -20.9510      0.4930      1.7700     78.3900
    122      3.7120    -21.8190      0.7760      0.0100     78.3900
    123      1.7880    -20.9750      1.1710      1.5900     78.3900
    124      1.4440    -22.1110      2.2080      2.1000     78.3900
    125      0.2030    -21.7380      2.9270      1.5900     78.3900
    126      1.4360    -23.4080      1.4960      1.5900     78.3900
    127      2.6520    -22.1010      3.2110      1.5900     78.3900
    128      3.0410    -20.9280      3.9450      1.7700     78.3900
    129      2.6390    -20.9660      4.9810      0.0100     78.3900
    130      2.6460    -19.9910      3.4840      0.0100     78.3900
    131      4.5630    -20.8490      4.0000      1.7700     78.3900
    132      5.0290    -21.1440      3.0420      0.0100     78.3900
    133      4.9140    -19.4720      4.2110      1.5900     78.3900
    134      6.0830    -19.3920      4.9890      1.7700     78.3900
    135      6.8460    -18.8760      4.3670      0.0100     78.3900
    136      5.8200    -18.6280      6.2120      1.6800     78.3900
    137      4.5430    -18.5870      6.7320      1.7700     78.3900
    138      3.7790    -19.1430      6.1840      0.0100     78.3900
    139      6.8630    -17.9720      6.8150      1.7700     78.3900
    140      8.0170    -18.0180      6.4000      1.5900     78.3900
    141      6.5030    -17.2430      7.9100      1.6800     78.3900
    142      7.2520    -16.7980      8.4260      0.0100     78.3900
    143      5.2500    -17.1270      8.4650      1.7700     78.3900
    144      5.0840    -16.4210      9.4420      1.5900     78.3900
    145      4.2260    -17.8610      7.8020      1.7700     78.3900
    146      3.2050    -17.7990      8.1670      0.0100     78.3900
    147      6.5570    -20.7950      5.2640      1.7700     78.3900
    148      6.9580    -20.9100      6.2910      0.0100     78.3900
    149      7.5570    -21.1730      4.3320      1.5900     78.3900
    150      7.8090    -22.0820      4.5830      0.0100     78.3900
    151      5.2750    -21.6180      5.1130      1.7700     78.3900
    152      4.6480    -21.5370      6.0290      0.0100     78.3900
    153      5.4480    -22.9900      4.7140      1.5900     78.3900
    154      6.3380    -23.9900      5.5260      2.1000     78.3900
    155      6.3280    -25.2940      4.8210      1.5900     78.3900
    156      7.6810    -23.4040      5.7360      1.5900     78.3900
    157      5.6140    -24.0810      6.9090      1.5900     78.3900
    158      4.8870    -25.2610      7.3010      1.7700     78.3900
    159      5.3690    -26.2020      6.9450      0.0100     78.3900
    160      3.8690    -25.2430      6.8540      0.0100     78.3900
    161      4.7930    -25.3430      8.8290      1.7700     78.3900
    162      3.9860    -26.0420      9.1330      0.0100     78.3900
    163      6.0390    -25.9090      9.3270      1.5900     78.3900
    164      6.3790    -25.2900     10.5610      1.7700     78.3900
    165      6.4530    -26.1310     11.2910      0.0100     78.3900
    166      7.6890    -24.5860     10.5110      1.6800     78.3900
    167      8.2100    -24.1670      9.3060      1.7700     78.3900
    168      7.6110    -24.3780      8.4150      0.0100     78.3900
    169      9.4060    -23.5670      9.2420      1.7700     78.3900
    170      9.8530    -23.2550      8.3010      0.0100     78.3900
    171      8.3790    -24.3260     11.6950      1.7700     78.3900
    172      7.8770    -24.6710     12.7760      1.5900     78.3900
    173      9.6000    -23.7470     11.6410      1.6800     78.3900
    174     10.1200    -23.3740     10.4600      1.7700     78.3900
    175     11.3330    -22.8230     10.4380      1.6800     78.3900
    176     11.7890    -22.6390     11.3080      0.0100     78.3900
    177     11.7640    -22.5060      9.5930      0.0100     78.3900
    178      5.2270    -24.3870     10.9710      1.7700     78.3900
    179      5.5670    -23.4740     11.5060      0.0100     78.3900
    180      4.3160    -25.1100     11.7800      1.5900     78.3900
    181      3.5160    -24.5680     11.8740      0.0100     78.3900
    182      4.6190    -24.0280      9.6190      1.7700     78.3900
    183      5.2590    -23.2600      9.1240      0.0100     78.3900
    184      3.2210    -23.6570      9.6690      1.5900     78.3900
    185      2.8180    -22.1300      9.6850      2.1000     78.3900
    186      3.7450    -21.3520      8.8330      1.5900     78.3900
    187      1.3750    -22.0360      9.3870      1.5900     78.3900
    188      3.0130    -21.6930     11.1840      1.5900     78.3900
    189      3.2040    -20.2900     11.5260      1.7700     78.3900
    190      2.2300    -19.8270     11.8080      0.0100     78.3900
    191      3.6010    -19.6960     10.6660      0.0100     78.3900
    192      4.2090    -20.1190     12.6870      1.7700     78.3900
    193      3.7410    -20.3710     13.6610      0.0100     78.3900
    194      5.3200    -21.0470     12.5110      1.5900     78.3900
    195      6.5450    -20.3980     12.7750      1.7700     78.3900
    196      7.0640    -21.0390     13.5250      0.0100     78.3900
    197      7.3980    -20.2860     11.5610      1.6800     78.3900
    198      6.8600    -20.4590     10.3010      1.7700     78.3900
    199      5.7880    -20.6840     10.2500      0.0100     78.3900
    200      7.6260    -20.3850      9.2060      1.7700     78.3900
    201      7.2220    -20.5420      8.2100      0.0100     78.3900
    202      8.7550    -20.0050     11.7020      1.7700     78.3900
    203      9.2240    -19.8470     12.8390      1.5900     78.3900
    204      9.5390    -19.9190     10.6040      1.6800     78.3900
    205      9.0160    -20.1250      9.3860      1.7700     78.3900
    206      9.8360    -20.1090      8.3380      1.6800     78.3900
    207      9.5340    -20.2390      7.3920      0.0100     78.3900
    208     10.8110    -19.9520      8.4920      0.0100     78.3900
    209      6.2260    -19.0550     13.4050      1.7700     78.3900
    210      6.9800    -18.2770     13.1560      0.0100     78.3900
    211      6.1130    -19.1860     14.8130      1.5900     78.3900
    212      5.7900    -18.3370     15.1540      0.0100     78.3900
    213      4.8790    -18.7290     12.7720      1.7700     78.3900
    214      5.0280    -18.3810     11.7230      0.0100     78.3900
    215      4.0590    -17.8260     13.5460      1.5900     78.3900
    216      4.2980    -16.2730     13.4400      2.1000     78.3900
    217      4.6910    -15.9690     12.0600      1.5900     78.3900
    218      3.0970    -15.5830     13.9470      1.5900     78.3900
    219      5.5070    -15.9390     14.3940      1.5900     78.3900
    220      6.2220    -14.6800     14.1930      1.7700     78.3900
    221      5.7950    -13.8970     14.8560      0.0100     78.3900
    222      6.1310    -14.2940     13.1480      0.0100     78.3900
    223      7.7360    -14.8210     14.4620      1.7700     78.3900
    224      7.9340    -14.8440     15.5590      0.0100     78.3900
    225      8.2030    -16.0980     13.9150      1.5900     78.3900
    226      9.4530    -15.9260     13.2830      1.7700     78.3900
    227     10.1310    -16.6920     13.7240      0.0100     78.3900
    228      9.3630    -16.1540     11.8370      1.6800     78.3900
    229      9.9000    -16.5510      9.7440      1.7700     78.3900
    230      8.5140    -16.4960      9.7820      1.6800     78.3900
    231      8.2390    -16.2680     11.0460      1.7700     78.3900
    232      7.2300    -16.1710     11.4610      0.0100     78.3900
    233     12.1370    -16.7460      8.9940      1.6800     78.3900
    234     12.5030    -16.5140     10.2580      1.7700     78.3900
    235     13.5830    -16.5100     10.4450      0.0100     78.3900
    236     11.7330    -16.3090     11.3310      1.6800     78.3900
    237     10.4310    -16.3440     11.0010      1.7700     78.3900
    238     10.8140    -16.7680      8.6920      1.7700     78.3900
    239     10.4560    -16.9820      7.4170      1.6800     78.3900
    240      9.5130    -17.1840      7.1410      0.0100     78.3900
    241     11.1770    -17.1550      6.7440      0.0100     78.3900
    242      9.9550    -14.5460     13.6390      1.7700     78.3900
    243     10.5890    -14.1120     12.8420      0.0100     78.3900
    244     10.6830    -14.5930     14.8560      1.5900     78.3900
    245     10.7950    -13.6820     15.1650      0.0100     78.3900
    246      8.6560    -13.7690     13.7950      1.7700     78.3900
    247      8.2120    -13.5430     12.7940      0.0100     78.3900
    248      8.7970    -12.6010     14.6360      1.5900     78.3900
    249      8.8820    -11.1640     14.0070      2.1000     78.3900
    250      7.7280    -11.0310     13.0970      1.5900     78.3900
    251      8.9670    -10.1710     15.1010      1.5900     78.3900
    252     10.2240    -11.1580     13.1880      1.5900     78.3900
    253     11.5110    -11.1460     13.8500      1.7700     78.3900
    254     11.5680    -11.9240     14.6480      0.0100     78.3900
    255     11.6920    -10.1560     14.3250      0.0100     78.3900
    256     12.6520    -11.4140     12.8530      1.7700     78.3900
    257     13.6290    -11.4670     13.3790      0.0100     78.3900
    258     12.4420    -12.7040     12.2200      1.5900     78.3900
    259     12.7360    -12.6110     10.8410      1.7700     78.3900
    260     13.4580    -13.4310     10.6200      0.0100     78.3900
    261     11.5410    -12.8090     10.0180      1.6800     78.3900
    262     10.2060    -13.2600      8.3390      1.7700     78.3900
    263      9.3830    -13.0360      9.4300      1.6800     78.3900
    264     10.2190    -12.7620     10.3980      1.7700     78.3900
    265      9.9300    -12.5380     11.4220      0.0100     78.3900
    266     10.9870    -13.7580      6.1640      1.6800     78.3900
    267     12.2210    -13.5920      6.6450      1.7700     78.3900
    268     13.0290    -13.7400      5.9210      0.0100     78.3900
    269     12.6060    -13.2940      7.8910      1.6800     78.3900
    270     11.5370    -13.1250      8.6870      1.7700     78.3900
    271      9.9390    -13.6070      7.0040      1.7700     78.3900
    272      8.7180    -13.8450      6.5250      1.6800     78.3900
    273      7.8740    -13.6020      7.0170      0.0100     78.3900
    274      8.6310    -14.4010      5.7020      0.0100     78.3900
    275     13.4080    -11.2790     10.5970      1.7700     78.3900
    276     13.1890    -10.8690      9.5910      0.0100     78.3900
    277     14.8080    -11.4130     10.7640      1.5900     78.3900
    278     15.1850    -10.5250     10.8580      0.0100     78.3900
    279     12.7880    -10.4190     11.6890      1.7700     78.3900
    280     11.7460    -10.1350     11.4080      0.0100     78.3900
    281     13.6060     -9.2910     12.0760      1.5900     78.3900
    282     13.2060     -7.8350     11.6240      2.1000     78.3900
    283     11.8700     -7.5140     12.1700      1.5900     78.3900
    284     14.3120     -6.9140     11.9590      1.5900     78.3900
    285     13.0790     -7.9260     10.0610      1.5900     78.3900
    286     14.2500     -8.0000      9.2170      1.7700     78.3900
    287     14.9060     -8.8500      9.5150      0.0100     78.3900
    288     14.8480     -7.0600      9.2880      0.0100     78.3900
    289     13.8670     -8.2040      7.7440      1.7700     78.3900
    290     14.7710     -8.2330      7.1000      0.0100     78.3900
    291     13.1860     -9.4800      7.5830      1.5900     78.3900
    292     12.1250     -9.3370      6.6500      1.7700     78.3900
    293     12.2630    -10.1270      5.8770      0.0100     78.3900
    294     10.8170     -9.5160      7.2960      1.6800     78.3900
    295      9.6320     -9.8240      6.6820      1.7700     78.3900
    296      7.8010    -10.5280      3.8260      1.6800     78.3900
    297      8.4810    -10.4390      3.0990      0.0100     78.3900
    298      6.8320    -10.6120      3.5770      0.0100     78.3900
    299      9.4480    -10.0100      5.3630      1.6800     78.3900
    300      8.1800    -10.3040      5.0700      1.7700     78.3900
    301      7.1950    -10.4060      6.0160      1.6800     78.3900
    302      6.2580    -10.6360      5.7170      0.0100     78.3900
    303      7.3610    -10.2390      7.3820      1.7700     78.3900
    304      6.4140    -10.3600      8.1640      1.5900     78.3900
    305      8.7000     -9.9020      7.7000      1.7700     78.3900
    306      9.2840     -9.6310      8.9260      1.6800     78.3900
    307     10.5390     -9.4090      8.6390      1.7700     78.3900
    308     11.3120     -9.1680      9.3660      0.0100     78.3900
    309     12.2650     -7.9690      6.0230      1.7700     78.3900
    310     11.2910     -7.5400      5.7130      0.0100     78.3900
    311     13.1260     -8.0450      4.9040      1.5900     78.3900
    312     13.2830     -7.1390      4.6170      0.0100     78.3900
    313     12.8940     -7.1710      7.1610      1.7700     78.3900
    314     12.1370     -6.9700      7.9540      0.0100     78.3900
    315     13.6220     -5.9900      6.7520      1.5900     78.3900
    316     12.9060     -4.5850      6.8190      2.1000     78.3900
    317     12.1600     -4.4720      8.0880      1.5900     78.3900
    318     13.9010     -3.5270      6.5390      1.5900     78.3900
    319     11.8670     -4.6480      5.6380      1.5900     78.3900
    320     12.3100     -4.7540      4.2670      1.7700     78.3900
    321     13.0140     -5.6020      4.1240      0.0100     78.3900
    322     12.8420     -3.8230      3.9670      0.0100     78.3900
    323     11.1270     -4.9570      3.3080      1.7700     78.3900
    324     11.4680     -4.9820      2.2520      0.0100     78.3900
    325     10.4660     -6.2270      3.5790      1.5900     78.3900
    326      9.0590     -6.0710      3.4220      1.7700     78.3900
    327      8.7500     -6.8240      2.6600      0.0100     78.3900
    328      8.3270     -6.3130      4.7000      1.6800     78.3900
    329      8.9780     -6.2480      5.9110      1.7700     78.3900
    330     10.0320     -5.9860      5.8600      0.0100     78.3900
    331      6.9810     -6.6040      4.6430      1.7700     78.3900
    332      6.3580     -6.6500      3.5890      1.5900     78.3900
    333      6.3880     -6.8420      5.8560      1.6800     78.3900
    334      5.3970     -7.0530      5.8190      0.0100     78.3900
    335      6.9780     -6.7980      7.1020      1.7700     78.3900
    336      6.3080     -7.0050      8.1110      1.5900     78.3900
    337      8.3750     -6.4920      7.0800      1.7700     78.3900
    338      8.9150     -6.4440      8.0230      0.0100     78.3900
    339      8.8190     -4.6710      2.8680      1.7700     78.3900
    340      7.8670     -4.2310      3.2430      0.0100     78.3900
    341      8.8210     -4.7020      1.4480      1.5900     78.3900
    342      8.8470     -3.7890      1.1140      0.0100     78.3900
    343     10.0140     -3.9130      3.4310      1.7700     78.3900
    344      9.8580     -3.6970      4.5100      0.0100     78.3900
    345     10.3530     -2.7130      2.7100      1.5900     78.3900
    346      9.6530     -2.0460      2.8330      0.0100     78.3900

     ----------------------------
     INPUT FOR TESSERA DEFINITION
     ----------------------------
     NTSALL  =        60     MTHALL  =         4
     MTHAUT  =         0     AUTFRE  =    2.0000
     NTSFRZ  =        60     KEEPSM  =         0
     AREAKP  =   10.0000     BONDRY  =    1.0000
     AREATL  =    0.0100

     SPHERE     INITS       METHOD
          1        60       FIXPVA
          2        60       FIXPVA
          3        60       FIXPVA
          4        60       FIXPVA
          5        60       FIXPVA
          6        60       FIXPVA
          7        60       FIXPVA
          8        60       FIXPVA
          9        60       FIXPVA
         10        60       FIXPVA
         11        60       FIXPVA
         12        60       FIXPVA
         13        60       FIXPVA
         14        60       FIXPVA
         15        60       FIXPVA
         16        60       FIXPVA
         17        60       FIXPVA
         18        60       FIXPVA
         19        60       FIXPVA
         20        60       FIXPVA
         21        60       FIXPVA
         22        60       FIXPVA
         23        60       FIXPVA
         24        60       FIXPVA
         25        60       FIXPVA
         26        60       FIXPVA
         27        60       FIXPVA
         28        60       FIXPVA
         29        60       FIXPVA
         30        60       FIXPVA
         31        60       FIXPVA
         32        60       FIXPVA
         33        60       FIXPVA
         34        60       FIXPVA
         35        60       FIXPVA
         36        60       FIXPVA
         37        60       FIXPVA
         38        60       FIXPVA
         39        60       FIXPVA
         40        60       FIXPVA
         41        60       FIXPVA
         42        60       FIXPVA
         43        60       FIXPVA
         44        60       FIXPVA
         45        60       FIXPVA
         46        60       FIXPVA
         47        60       FIXPVA
         48        60       FIXPVA
         49        60       FIXPVA
         50        60       FIXPVA
         51        60       FIXPVA
         52        60       FIXPVA
         53        60       FIXPVA
         54        60       FIXPVA
         55        60       FIXPVA
         56        60       FIXPVA
         57        60       FIXPVA
         58        60       FIXPVA
         59        60       FIXPVA
         60        60       FIXPVA
         61        60       FIXPVA
         62        60       FIXPVA
         63        60       FIXPVA
         64        60       FIXPVA
         65        60       FIXPVA
         66        60       FIXPVA
         67        60       FIXPVA
         68        60       FIXPVA
         69        60       FIXPVA
         70        60       FIXPVA
         71        60       FIXPVA
         72        60       FIXPVA
         73        60       FIXPVA
         74        60       FIXPVA
         75        60       FIXPVA
         76        60       FIXPVA
         77        60       FIXPVA
         78        60       FIXPVA
         79        60       FIXPVA
         80        60       FIXPVA
         81        60       FIXPVA
         82        60       FIXPVA
         83        60       FIXPVA
         84        60       FIXPVA
         85        60       FIXPVA
         86        60       FIXPVA
         87        60       FIXPVA
         88        60       FIXPVA
         89        60       FIXPVA
         90        60       FIXPVA
         91        60       FIXPVA
         92        60       FIXPVA
         93        60       FIXPVA
         94        60       FIXPVA
         95        60       FIXPVA
         96        60       FIXPVA
         97        60       FIXPVA
         98        60       FIXPVA
         99        60       FIXPVA
        100        60       FIXPVA
        101        60       FIXPVA
        102        60       FIXPVA
        103        60       FIXPVA
        104        60       FIXPVA
        105        60       FIXPVA
        106        60       FIXPVA
        107        60       FIXPVA
        108        60       FIXPVA
        109        60       FIXPVA
        110        60       FIXPVA
        111        60       FIXPVA
        112        60       FIXPVA
        113        60       FIXPVA
        114        60       FIXPVA
        115        60       FIXPVA
        116        60       FIXPVA
        117        60       FIXPVA
        118        60       FIXPVA
        119        60       FIXPVA
        120        60       FIXPVA
        121        60       FIXPVA
        122        60       FIXPVA
        123        60       FIXPVA
        124        60       FIXPVA
        125        60       FIXPVA
        126        60       FIXPVA
        127        60       FIXPVA
        128        60       FIXPVA
        129        60       FIXPVA
        130        60       FIXPVA
        131        60       FIXPVA
        132        60       FIXPVA
        133        60       FIXPVA
        134        60       FIXPVA
        135        60       FIXPVA
        136        60       FIXPVA
        137        60       FIXPVA
        138        60       FIXPVA
        139        60       FIXPVA
        140        60       FIXPVA
        141        60       FIXPVA
        142        60       FIXPVA
        143        60       FIXPVA
        144        60       FIXPVA
        145        60       FIXPVA
        146        60       FIXPVA
        147        60       FIXPVA
        148        60       FIXPVA
        149        60       FIXPVA
        150        60       FIXPVA
        151        60       FIXPVA
        152        60       FIXPVA
        153        60       FIXPVA
        154        60       FIXPVA
        155        60       FIXPVA
        156        60       FIXPVA
        157        60       FIXPVA
        158        60       FIXPVA
        159        60       FIXPVA
        160        60       FIXPVA
        161        60       FIXPVA
        162        60       FIXPVA
        163        60       FIXPVA
        164        60       FIXPVA
        165        60       FIXPVA
        166        60       FIXPVA
        167        60       FIXPVA
        168        60       FIXPVA
        169        60       FIXPVA
        170        60       FIXPVA
        171        60       FIXPVA
        172        60       FIXPVA
        173        60       FIXPVA
        174        60       FIXPVA
        175        60       FIXPVA
        176        60       FIXPVA
        177        60       FIXPVA
        178        60       FIXPVA
        179        60       FIXPVA
        180        60       FIXPVA
        181        60       FIXPVA
        182        60       FIXPVA
        183        60       FIXPVA
        184        60       FIXPVA
        185        60       FIXPVA
        186        60       FIXPVA
        187        60       FIXPVA
        188        60       FIXPVA
        189        60       FIXPVA
        190        60       FIXPVA
        191        60       FIXPVA
        192        60       FIXPVA
        193        60       FIXPVA
        194        60       FIXPVA
        195        60       FIXPVA
        196        60       FIXPVA
        197        60       FIXPVA
        198        60       FIXPVA
        199        60       FIXPVA
        200        60       FIXPVA
        201        60       FIXPVA
        202        60       FIXPVA
        203        60       FIXPVA
        204        60       FIXPVA
        205        60       FIXPVA
        206        60       FIXPVA
        207        60       FIXPVA
        208        60       FIXPVA
        209        60       FIXPVA
        210        60       FIXPVA
        211        60       FIXPVA
        212        60       FIXPVA
        213        60       FIXPVA
        214        60       FIXPVA
        215        60       FIXPVA
        216        60       FIXPVA
        217        60       FIXPVA
        218        60       FIXPVA
        219        60       FIXPVA
        220        60       FIXPVA
        221        60       FIXPVA
        222        60       FIXPVA
        223        60       FIXPVA
        224        60       FIXPVA
        225        60       FIXPVA
        226        60       FIXPVA
        227        60       FIXPVA
        228        60       FIXPVA
        229        60       FIXPVA
        230        60       FIXPVA
        231        60       FIXPVA
        232        60       FIXPVA
        233        60       FIXPVA
        234        60       FIXPVA
        235        60       FIXPVA
        236        60       FIXPVA
        237        60       FIXPVA
        238        60       FIXPVA
        239        60       FIXPVA
        240        60       FIXPVA
        241        60       FIXPVA
        242        60       FIXPVA
        243        60       FIXPVA
        244        60       FIXPVA
        245        60       FIXPVA
        246        60       FIXPVA
        247        60       FIXPVA
        248        60       FIXPVA
        249        60       FIXPVA
        250        60       FIXPVA
        251        60       FIXPVA
        252        60       FIXPVA
        253        60       FIXPVA
        254        60       FIXPVA
        255        60       FIXPVA
        256        60       FIXPVA
        257        60       FIXPVA
        258        60       FIXPVA
        259        60       FIXPVA
        260        60       FIXPVA
        261        60       FIXPVA
        262        60       FIXPVA
        263        60       FIXPVA
        264        60       FIXPVA
        265        60       FIXPVA
        266        60       FIXPVA
        267        60       FIXPVA
        268        60       FIXPVA
        269        60       FIXPVA
        270        60       FIXPVA
        271        60       FIXPVA
        272        60       FIXPVA
        273        60       FIXPVA
        274        60       FIXPVA
        275        60       FIXPVA
        276        60       FIXPVA
        277        60       FIXPVA
        278        60       FIXPVA
        279        60       FIXPVA
        280        60       FIXPVA
        281        60       FIXPVA
        282        60       FIXPVA
        283        60       FIXPVA
        284        60       FIXPVA
        285        60       FIXPVA
        286        60       FIXPVA
        287        60       FIXPVA
        288        60       FIXPVA
        289        60       FIXPVA
        290        60       FIXPVA
        291        60       FIXPVA
        292        60       FIXPVA
        293        60       FIXPVA
        294        60       FIXPVA
        295        60       FIXPVA
        296        60       FIXPVA
        297        60       FIXPVA
        298        60       FIXPVA
        299        60       FIXPVA
        300        60       FIXPVA
        301        60       FIXPVA
        302        60       FIXPVA
        303        60       FIXPVA
        304        60       FIXPVA
        305        60       FIXPVA
        306        60       FIXPVA
        307        60       FIXPVA
        308        60       FIXPVA
        309        60       FIXPVA
        310        60       FIXPVA
        311        60       FIXPVA
        312        60       FIXPVA
        313        60       FIXPVA
        314        60       FIXPVA
        315        60       FIXPVA
        316        60       FIXPVA
        317        60       FIXPVA
        318        60       FIXPVA
        319        60       FIXPVA
        320        60       FIXPVA
        321        60       FIXPVA
        322        60       FIXPVA
        323        60       FIXPVA
        324        60       FIXPVA
        325        60       FIXPVA
        326        60       FIXPVA
        327        60       FIXPVA
        328        60       FIXPVA
        329        60       FIXPVA
        330        60       FIXPVA
        331        60       FIXPVA
        332        60       FIXPVA
        333        60       FIXPVA
        334        60       FIXPVA
        335        60       FIXPVA
        336        60       FIXPVA
        337        60       FIXPVA
        338        60       FIXPVA
        339        60       FIXPVA
        340        60       FIXPVA
        341        60       FIXPVA
        342        60       FIXPVA
        343        60       FIXPVA
        344        60       FIXPVA
        345        60       FIXPVA
        346        60       FIXPVA

     ------------------------------
      FIXPVA TESSELLATION FOR PCM
         PEIFENG SU AND HUI LI
     UNIVERSITY OF NEBRASKA-LINCOLN
     ------------------------------


 PCM DIMENSIONS: MXSP=   346, MXTS=     13840, MEMORY=        142209

     INPUT FOR CAVITY DEFINITION 
     ---------------------------
   ATOM               COORDINATES                RADIUS       EPS
      1     -4.3630    -10.1040      7.6110      0.0100     78.3900
      2     -3.6730     -9.9510      6.9340      1.5900     78.3900
      3     -4.3700     -9.6810      5.7080      1.7700     78.3900
      4     -5.0600     -8.8200      5.8690      0.0100     78.3900
      5     -4.9800    -10.5700      5.4320      0.0100     78.3900
      6     -3.4310     -9.3490      4.5470      1.7700     78.3900
      7     -4.0040     -9.1900      3.6060      0.0100     78.3900
      8     -2.7010     -8.1170      4.8320      1.5900     78.3900
      9     -1.3700     -8.2430      4.3520      1.7700     78.3900
     10     -1.1990     -7.3900      3.6570      0.0100     78.3900
     11     -0.3940     -8.1750      5.4490      1.6800     78.3900
     12      1.4500     -7.8900      6.6200      1.7700     78.3900
     13      0.4460     -8.1740      7.5410      1.6800     78.3900
     14     -0.6270     -8.3270      6.7980      1.7700     78.3900
     15     -1.6250     -8.5640      7.1740      0.0100     78.3900
     16      3.5390     -7.3480      5.6410      1.6800     78.3900
     17      2.9150     -7.4160      4.4590      1.7700     78.3900
     18      3.5460     -7.2280      3.5830      0.0100     78.3900
     19      1.6270     -7.6690      4.1970      1.6800     78.3900
     20      0.9450     -7.8960      5.3300      1.7700     78.3900
     21      2.8220     -7.5870      6.7690      1.7700     78.3900
     22      3.4460     -7.5170      7.9610      1.6800     78.3900
     23      2.9450     -7.6310      8.8220      0.0100     78.3900
     24      4.4330     -7.3470      8.0110      0.0100     78.3900
     25     -1.2910     -9.5410      3.5770      1.7700     78.3900
     26     -0.2850    -10.0030      3.6280      0.0100     78.3900
     27     -1.6480     -9.3150      2.2270      1.5900     78.3900
     28     -1.6240    -10.1720      1.7850      0.0100     78.3900
     29     -2.3360    -10.3920      4.2920      1.7700     78.3900
     30     -1.9550    -10.7100      5.2900      0.0100     78.3900
     31     -2.8810    -11.4880      3.5210      1.5900     78.3900
     32     -2.1860    -12.8990      3.6090      2.1000     78.3900
     33     -1.9520    -13.2260      5.0300      1.5900     78.3900
     34     -2.9570    -13.8750      2.8080      1.5900     78.3900
     35     -0.8020    -12.6550      2.9130      1.5900     78.3900
     36     -0.7080    -12.4610      1.4830      1.7700     78.3900
     37     -1.4010    -11.6680      1.1210      0.0100     78.3900
     38     -0.9790    -13.3990      0.9470      0.0100     78.3900
     39      0.7230    -12.0900      1.0670      1.7700     78.3900
     40      0.7710    -11.8480     -0.0170      0.0100     78.3900
     41      1.1980    -10.9240      1.7990      1.5900     78.3900
     42      2.5790    -11.1010      2.1000      1.7700     78.3900
     43      3.0950    -10.2260      1.6390      0.0100     78.3900
     44      2.8650    -11.1140      3.5620      1.6800     78.3900
     45      1.8670    -11.4080      4.4630      1.7700     78.3900
     46      0.8920    -11.6310      4.0350      0.0100     78.3900
     47      2.0880    -11.3810      5.7840      1.7700     78.3900
     48      1.2990    -11.5680      6.5110      0.0100     78.3900
     49      4.1530    -10.8510      4.0200      1.7700     78.3900
     50      5.0550    -10.6140      3.2010      1.5900     78.3900
     51      4.3960    -10.8290      5.3450      1.6800     78.3900
     52      3.4050    -11.0590      6.2230      1.7700     78.3900
     53      3.6640    -10.9600      7.5230      1.6800     78.3900
     54      4.6140    -10.7910      7.7990      0.0100     78.3900
     55      2.9860    -11.1580      8.2290      0.0100     78.3900
     56      3.0440    -12.3600      1.4030      1.7700     78.3900
     57      3.8310    -12.8870      1.9750      0.0100     78.3900
     58      3.5140    -12.0720      0.0980      1.5900     78.3900
     59      3.6830    -12.9290     -0.3270      0.0100     78.3900
     60      1.7620    -13.1740      1.3630      1.7700     78.3900
     61      1.5280    -13.5910      2.3700      0.0100     78.3900
     62      1.7150    -14.1660      0.3260      1.5900     78.3900
     63      2.3910    -15.5670      0.5680      2.1000     78.3900
     64      1.9330    -16.0450      1.8970      1.5900     78.3900
     65      2.0160    -16.3640     -0.6110      1.5900     78.3900
     66      3.9380    -15.2560      0.5740      1.5900     78.3900
     67      4.8710    -16.2010      1.1460      1.7700     78.3900
     68      5.3440    -16.7800      0.3230      0.0100     78.3900
     69      4.3680    -16.9490      1.8080      0.0100     78.3900
     70      5.9820    -15.5390      1.9880      1.7700     78.3900
     71      6.7860    -15.1370      1.3390      0.0100     78.3900
     72      5.4390    -14.4130      2.7330      1.5900     78.3900
     73      5.9560    -14.3830      4.0370      1.7700     78.3900
     74      6.3700    -13.3560      4.1480      0.0100     78.3900
     75      4.9020    -14.5900      5.0750      1.6800     78.3900
     76      3.7520    -15.2920      4.7830      1.7700     78.3900
     77      3.6550    -15.6730      3.7590      0.0100     78.3900
     78      2.7920    -15.4530      5.7070      1.7700     78.3900
     79      1.8610    -15.9730      5.4950      0.0100     78.3900
     80      5.0620    -14.0380      6.3430      1.7700     78.3900
     81      6.0790    -13.3760      6.5850      1.5900     78.3900
     82      4.1330    -14.2250      7.2970      1.6800     78.3900
     83      3.0010    -14.8820      6.9980      1.7700     78.3900
     84      2.0500    -14.9830      7.9220      1.6800     78.3900
     85      2.2130    -14.5780      8.8230      0.0100     78.3900
     86      1.1720    -15.4330      7.7520      0.0100     78.3900
     87      7.0850    -15.3970      4.1020      1.7700     78.3900
     88      7.1750    -15.8650      5.1040      0.0100     78.3900
     89      8.3290    -14.7970      3.7380      1.5900     78.3900
     90      8.3880    -13.8820      4.0410      0.0100     78.3900
     91      6.6100    -16.4320      3.0690      1.7700     78.3900
     92      5.7930    -17.0460      3.5100      0.0100     78.3900
     93      7.6640    -17.2480      2.5410      1.5900     78.3900
     94      7.5090    -18.4780      1.5720      2.1000     78.3900
     95      7.7670    -18.0180      0.1920      1.5900     78.3900
     96      8.3960    -19.5520      2.0580      1.5900     78.3900
     97      6.0140    -18.9230      1.6670      1.5900     78.3900
     98      5.3890    -19.8460      0.7540      1.7700     78.3900
     99      5.6080    -20.8780      1.0870      0.0100     78.3900
    100      5.7800    -19.7520     -0.2820      0.0100     78.3900
    101      3.8630    -19.6660      0.7920      1.7700     78.3900
    102      3.5570    -19.2550      1.7760      0.0100     78.3900
    103      3.4170    -18.7380     -0.2140      1.5900     78.3900
    104      2.7960    -19.4210     -1.2860      1.7700     78.3900
    105      1.7190    -19.1570     -1.2170      0.0100     78.3900
    106      3.3650    -19.0020     -2.5980      1.6800     78.3900
    107      4.6920    -18.6600     -2.6970      1.7700     78.3900
    108      5.2520    -18.6690     -1.7630      0.0100     78.3900
    109      2.5330    -18.9170     -3.6930      1.7700     78.3900
    110      1.3340    -19.1690     -3.6350      1.5900     78.3900
    111      3.1420    -18.5180     -4.8590      1.6800     78.3900
    112      2.5470    -18.4770     -5.6700      0.0100     78.3900
    113      4.4630    -18.1510     -5.0230      1.7700     78.3900
    114      4.8730    -17.7730     -6.1200      1.5900     78.3900
    115      5.2560    -18.2500     -3.8400      1.7700     78.3900
    116      6.3010    -17.9590     -3.8940      0.0100     78.3900
    117      2.9670    -20.9070     -1.0300      1.7700     78.3900
    118      3.9190    -21.2830     -1.4740      0.0100     78.3900
    119      1.8690    -21.6580     -1.5080      1.5900     78.3900
    120      1.1060    -21.4120     -0.9620      0.0100     78.3900
    121      3.0690    -20.9510      0.4930      1.7700     78.3900
    122      3.7120    -21.8190      0.7760      0.0100     78.3900
    123      1.7880    -20.9750      1.1710      1.5900     78.3900
    124      1.4440    -22.1110      2.2080      2.1000     78.3900
    125      0.2030    -21.7380      2.9270      1.5900     78.3900
    126      1.4360    -23.4080      1.4960      1.5900     78.3900
    127      2.6520    -22.1010      3.2110      1.5900     78.3900
    128      3.0410    -20.9280      3.9450      1.7700     78.3900
    129      2.6390    -20.9660      4.9810      0.0100     78.3900
    130      2.6460    -19.9910      3.4840      0.0100     78.3900
    131      4.5630    -20.8490      4.0000      1.7700     78.3900
    132      5.0290    -21.1440      3.0420      0.0100     78.3900
    133      4.9140    -19.4720      4.2110      1.5900     78.3900
    134      6.0830    -19.3920      4.9890      1.7700     78.3900
    135      6.8460    -18.8760      4.3670      0.0100     78.3900
    136      5.8200    -18.6280      6.2120      1.6800     78.3900
    137      4.5430    -18.5870      6.7320      1.7700     78.3900
    138      3.7790    -19.1430      6.1840      0.0100     78.3900
    139      6.8630    -17.9720      6.8150      1.7700     78.3900
    140      8.0170    -18.0180      6.4000      1.5900     78.3900
    141      6.5030    -17.2430      7.9100      1.6800     78.3900
    142      7.2520    -16.7980      8.4260      0.0100     78.3900
    143      5.2500    -17.1270      8.4650      1.7700     78.3900
    144      5.0840    -16.4210      9.4420      1.5900     78.3900
    145      4.2260    -17.8610      7.8020      1.7700     78.3900
    146      3.2050    -17.7990      8.1670      0.0100     78.3900
    147      6.5570    -20.7950      5.2640      1.7700     78.3900
    148      6.9580    -20.9100      6.2910      0.0100     78.3900
    149      7.5570    -21.1730      4.3320      1.5900     78.3900
    150      7.8090    -22.0820      4.5830      0.0100     78.3900
    151      5.2750    -21.6180      5.1130      1.7700     78.3900
    152      4.6480    -21.5370      6.0290      0.0100     78.3900
    153      5.4480    -22.9900      4.7140      1.5900     78.3900
    154      6.3380    -23.9900      5.5260      2.1000     78.3900
    155      6.3280    -25.2940      4.8210      1.5900     78.3900
    156      7.6810    -23.4040      5.7360      1.5900     78.3900
    157      5.6140    -24.0810      6.9090      1.5900     78.3900
    158      4.8870    -25.2610      7.3010      1.7700     78.3900
    159      5.3690    -26.2020      6.9450      0.0100     78.3900
    160      3.8690    -25.2430      6.8540      0.0100     78.3900
    161      4.7930    -25.3430      8.8290      1.7700     78.3900
    162      3.9860    -26.0420      9.1330      0.0100     78.3900
    163      6.0390    -25.9090      9.3270      1.5900     78.3900
    164      6.3790    -25.2900     10.5610      1.7700     78.3900
    165      6.4530    -26.1310     11.2910      0.0100     78.3900
    166      7.6890    -24.5860     10.5110      1.6800     78.3900
    167      8.2100    -24.1670      9.3060      1.7700     78.3900
    168      7.6110    -24.3780      8.4150      0.0100     78.3900
    169      9.4060    -23.5670      9.2420      1.7700     78.3900
    170      9.8530    -23.2550      8.3010      0.0100     78.3900
    171      8.3790    -24.3260     11.6950      1.7700     78.3900
    172      7.8770    -24.6710     12.7760      1.5900     78.3900
    173      9.6000    -23.7470     11.6410      1.6800     78.3900
    174     10.1200    -23.3740     10.4600      1.7700     78.3900
    175     11.3330    -22.8230     10.4380      1.6800     78.3900
    176     11.7890    -22.6390     11.3080      0.0100     78.3900
    177     11.7640    -22.5060      9.5930      0.0100     78.3900
    178      5.2270    -24.3870     10.9710      1.7700     78.3900
    179      5.5670    -23.4740     11.5060      0.0100     78.3900
    180      4.3160    -25.1100     11.7800      1.5900     78.3900
    181      3.5160    -24.5680     11.8740      0.0100     78.3900
    182      4.6190    -24.0280      9.6190      1.7700     78.3900
    183      5.2590    -23.2600      9.1240      0.0100     78.3900
    184      3.2210    -23.6570      9.6690      1.5900     78.3900
    185      2.8180    -22.1300      9.6850      2.1000     78.3900
    186      3.7450    -21.3520      8.8330      1.5900     78.3900
    187      1.3750    -22.0360      9.3870      1.5900     78.3900
    188      3.0130    -21.6930     11.1840      1.5900     78.3900
    189      3.2040    -20.2900     11.5260      1.7700     78.3900
    190      2.2300    -19.8270     11.8080      0.0100     78.3900
    191      3.6010    -19.6960     10.6660      0.0100     78.3900
    192      4.2090    -20.1190     12.6870      1.7700     78.3900
    193      3.7410    -20.3710     13.6610      0.0100     78.3900
    194      5.3200    -21.0470     12.5110      1.5900     78.3900
    195      6.5450    -20.3980     12.7750      1.7700     78.3900
    196      7.0640    -21.0390     13.5250      0.0100     78.3900
    197      7.3980    -20.2860     11.5610      1.6800     78.3900
    198      6.8600    -20.4590     10.3010      1.7700     78.3900
    199      5.7880    -20.6840     10.2500      0.0100     78.3900
    200      7.6260    -20.3850      9.2060      1.7700     78.3900
    201      7.2220    -20.5420      8.2100      0.0100     78.3900
    202      8.7550    -20.0050     11.7020      1.7700     78.3900
    203      9.2240    -19.8470     12.8390      1.5900     78.3900
    204      9.5390    -19.9190     10.6040      1.6800     78.3900
    205      9.0160    -20.1250      9.3860      1.7700     78.3900
    206      9.8360    -20.1090      8.3380      1.6800     78.3900
    207      9.5340    -20.2390      7.3920      0.0100     78.3900
    208     10.8110    -19.9520      8.4920      0.0100     78.3900
    209      6.2260    -19.0550     13.4050      1.7700     78.3900
    210      6.9800    -18.2770     13.1560      0.0100     78.3900
    211      6.1130    -19.1860     14.8130      1.5900     78.3900
    212      5.7900    -18.3370     15.1540      0.0100     78.3900
    213      4.8790    -18.7290     12.7720      1.7700     78.3900
    214      5.0280    -18.3810     11.7230      0.0100     78.3900
    215      4.0590    -17.8260     13.5460      1.5900     78.3900
    216      4.2980    -16.2730     13.4400      2.1000     78.3900
    217      4.6910    -15.9690     12.0600      1.5900     78.3900
    218      3.0970    -15.5830     13.9470      1.5900     78.3900
    219      5.5070    -15.9390     14.3940      1.5900     78.3900
    220      6.2220    -14.6800     14.1930      1.7700     78.3900
    221      5.7950    -13.8970     14.8560      0.0100     78.3900
    222      6.1310    -14.2940     13.1480      0.0100     78.3900
    223      7.7360    -14.8210     14.4620      1.7700     78.3900
    224      7.9340    -14.8440     15.5590      0.0100     78.3900
    225      8.2030    -16.0980     13.9150      1.5900     78.3900
    226      9.4530    -15.9260     13.2830      1.7700     78.3900
    227     10.1310    -16.6920     13.7240      0.0100     78.3900
    228      9.3630    -16.1540     11.8370      1.6800     78.3900
    229      9.9000    -16.5510      9.7440      1.7700     78.3900
    230      8.5140    -16.4960      9.7820      1.6800     78.3900
    231      8.2390    -16.2680     11.0460      1.7700     78.3900
    232      7.2300    -16.1710     11.4610      0.0100     78.3900
    233     12.1370    -16.7460      8.9940      1.6800     78.3900
    234     12.5030    -16.5140     10.2580      1.7700     78.3900
    235     13.5830    -16.5100     10.4450      0.0100     78.3900
    236     11.7330    -16.3090     11.3310      1.6800     78.3900
    237     10.4310    -16.3440     11.0010      1.7700     78.3900
    238     10.8140    -16.7680      8.6920      1.7700     78.3900
    239     10.4560    -16.9820      7.4170      1.6800     78.3900
    240      9.5130    -17.1840      7.1410      0.0100     78.3900
    241     11.1770    -17.1550      6.7440      0.0100     78.3900
    242      9.9550    -14.5460     13.6390      1.7700     78.3900
    243     10.5890    -14.1120     12.8420      0.0100     78.3900
    244     10.6830    -14.5930     14.8560      1.5900     78.3900
    245     10.7950    -13.6820     15.1650      0.0100     78.3900
    246      8.6560    -13.7690     13.7950      1.7700     78.3900
    247      8.2120    -13.5430     12.7940      0.0100     78.3900
    248      8.7970    -12.6010     14.6360      1.5900     78.3900
    249      8.8820    -11.1640     14.0070      2.1000     78.3900
    250      7.7280    -11.0310     13.0970      1.5900     78.3900
    251      8.9670    -10.1710     15.1010      1.5900     78.3900
    252     10.2240    -11.1580     13.1880      1.5900     78.3900
    253     11.5110    -11.1460     13.8500      1.7700     78.3900
    254     11.5680    -11.9240     14.6480      0.0100     78.3900
    255     11.6920    -10.1560     14.3250      0.0100     78.3900
    256     12.6520    -11.4140     12.8530      1.7700     78.3900
    257     13.6290    -11.4670     13.3790      0.0100     78.3900
    258     12.4420    -12.7040     12.2200      1.5900     78.3900
    259     12.7360    -12.6110     10.8410      1.7700     78.3900
    260     13.4580    -13.4310     10.6200      0.0100     78.3900
    261     11.5410    -12.8090     10.0180      1.6800     78.3900
    262     10.2060    -13.2600      8.3390      1.7700     78.3900
    263      9.3830    -13.0360      9.4300      1.6800     78.3900
    264     10.2190    -12.7620     10.3980      1.7700     78.3900
    265      9.9300    -12.5380     11.4220      0.0100     78.3900
    266     10.9870    -13.7580      6.1640      1.6800     78.3900
    267     12.2210    -13.5920      6.6450      1.7700     78.3900
    268     13.0290    -13.7400      5.9210      0.0100     78.3900
    269     12.6060    -13.2940      7.8910      1.6800     78.3900
    270     11.5370    -13.1250      8.6870      1.7700     78.3900
    271      9.9390    -13.6070      7.0040      1.7700     78.3900
    272      8.7180    -13.8450      6.5250      1.6800     78.3900
    273      7.8740    -13.6020      7.0170      0.0100     78.3900
    274      8.6310    -14.4010      5.7020      0.0100     78.3900
    275     13.4080    -11.2790     10.5970      1.7700     78.3900
    276     13.1890    -10.8690      9.5910      0.0100     78.3900
    277     14.8080    -11.4130     10.7640      1.5900     78.3900
    278     15.1850    -10.5250     10.8580      0.0100     78.3900
    279     12.7880    -10.4190     11.6890      1.7700     78.3900
    280     11.7460    -10.1350     11.4080      0.0100     78.3900
    281     13.6060     -9.2910     12.0760      1.5900     78.3900
    282     13.2060     -7.8350     11.6240      2.1000     78.3900
    283     11.8700     -7.5140     12.1700      1.5900     78.3900
    284     14.3120     -6.9140     11.9590      1.5900     78.3900
    285     13.0790     -7.9260     10.0610      1.5900     78.3900
    286     14.2500     -8.0000      9.2170      1.7700     78.3900
    287     14.9060     -8.8500      9.5150      0.0100     78.3900
    288     14.8480     -7.0600      9.2880      0.0100     78.3900
    289     13.8670     -8.2040      7.7440      1.7700     78.3900
    290     14.7710     -8.2330      7.1000      0.0100     78.3900
    291     13.1860     -9.4800      7.5830      1.5900     78.3900
    292     12.1250     -9.3370      6.6500      1.7700     78.3900
    293     12.2630    -10.1270      5.8770      0.0100     78.3900
    294     10.8170     -9.5160      7.2960      1.6800     78.3900
    295      9.6320     -9.8240      6.6820      1.7700     78.3900
    296      7.8010    -10.5280      3.8260      1.6800     78.3900
    297      8.4810    -10.4390      3.0990      0.0100     78.3900
    298      6.8320    -10.6120      3.5770      0.0100     78.3900
    299      9.4480    -10.0100      5.3630      1.6800     78.3900
    300      8.1800    -10.3040      5.0700      1.7700     78.3900
    301      7.1950    -10.4060      6.0160      1.6800     78.3900
    302      6.2580    -10.6360      5.7170      0.0100     78.3900
    303      7.3610    -10.2390      7.3820      1.7700     78.3900
    304      6.4140    -10.3600      8.1640      1.5900     78.3900
    305      8.7000     -9.9020      7.7000      1.7700     78.3900
    306      9.2840     -9.6310      8.9260      1.6800     78.3900
    307     10.5390     -9.4090      8.6390      1.7700     78.3900
    308     11.3120     -9.1680      9.3660      0.0100     78.3900
    309     12.2650     -7.9690      6.0230      1.7700     78.3900
    310     11.2910     -7.5400      5.7130      0.0100     78.3900
    311     13.1260     -8.0450      4.9040      1.5900     78.3900
    312     13.2830     -7.1390      4.6170      0.0100     78.3900
    313     12.8940     -7.1710      7.1610      1.7700     78.3900
    314     12.1370     -6.9700      7.9540      0.0100     78.3900
    315     13.6220     -5.9900      6.7520      1.5900     78.3900
    316     12.9060     -4.5850      6.8190      2.1000     78.3900
    317     12.1600     -4.4720      8.0880      1.5900     78.3900
    318     13.9010     -3.5270      6.5390      1.5900     78.3900
    319     11.8670     -4.6480      5.6380      1.5900     78.3900
    320     12.3100     -4.7540      4.2670      1.7700     78.3900
    321     13.0140     -5.6020      4.1240      0.0100     78.3900
    322     12.8420     -3.8230      3.9670      0.0100     78.3900
    323     11.1270     -4.9570      3.3080      1.7700     78.3900
    324     11.4680     -4.9820      2.2520      0.0100     78.3900
    325     10.4660     -6.2270      3.5790      1.5900     78.3900
    326      9.0590     -6.0710      3.4220      1.7700     78.3900
    327      8.7500     -6.8240      2.6600      0.0100     78.3900
    328      8.3270     -6.3130      4.7000      1.6800     78.3900
    329      8.9780     -6.2480      5.9110      1.7700     78.3900
    330     10.0320     -5.9860      5.8600      0.0100     78.3900
    331      6.9810     -6.6040      4.6430      1.7700     78.3900
    332      6.3580     -6.6500      3.5890      1.5900     78.3900
    333      6.3880     -6.8420      5.8560      1.6800     78.3900
[...]


          -------------
          GUESS OPTIONS
          -------------
          GUESS =HUCKEL            NORB  =       0          NORDER=       0
          MIX   =       F          PRTMO =       F          PUNMO =       F
          TOLZ  = 1.0E-08          TOLE  = 1.0E-05
          SYMDEN=       F          PURIFY=       F

 INITIAL GUESS ORBITALS GENERATED BY HUCKEL   ROUTINE.
 HUCKEL GUESS REQUIRES    920598 WORDS.

 SYMMETRIES FOR INITIAL GUESS ORBITALS FOLLOW.   BOTH SET(S).
    79 ORBITALS ARE OCCUPIED (   24 CORE ORBITALS).
    25=A       26=A       27=A       28=A       29=A       30=A       31=A   
    32=A       33=A       34=A       35=A       36=A       37=A       38=A   
    39=A       40=A       41=A       42=A       43=A       44=A       45=A   
    46=A       47=A       48=A       49=A       50=A       51=A       52=A   
    53=A       54=A       55=A       56=A       57=A       58=A       59=A   
    60=A       61=A       62=A       63=A       64=A       65=A       66=A   
    67=A       68=A       69=A       70=A       71=A       72=A       73=A   
    74=A       75=A       76=A       77=A       78=A       79=A       80=A   
    81=A       82=A       83=A       84=A       85=A       86=A       87=A   
    88=A       89=A   
 ...... END OF INITIAL ORBITAL SELECTION ......
 CPU     0: STEP CPU TIME=     0.15 TOTAL CPU TIME=          1.8 (      0.0 MIN)
 TOTAL WALL CLOCK TIME=          4.2 SECONDS, CPU UTILIZATION IS    42.00%

 Running initial guess for monomer       2


          -------------
          GUESS OPTIONS
          -------------
          GUESS =HUCKEL            NORB  =       0          NORDER=       0
          MIX   =       F          PRTMO =       F          PUNMO =       F
          TOLZ  = 1.0E-08          TOLE  = 1.0E-05
          SYMDEN=       F          PURIFY=       F

 INITIAL GUESS ORBITALS GENERATED BY HUCKEL   ROUTINE.
 HUCKEL GUESS REQUIRES    920598 WORDS.

 SYMMETRIES FOR INITIAL GUESS ORBITALS FOLLOW.   BOTH SET(S).
    79 ORBITALS ARE OCCUPIED (   24 CORE ORBITALS).
    25=A       26=A       27=A       28=A       29=A       30=A       31=A   
    32=A       33=A       34=A       35=A       36=A       37=A       38=A   
    39=A       40=A       41=A       42=A       43=A       44=A       45=A   
    46=A       47=A       48=A       49=A       50=A       51=A       52=A   
    53=A       54=A       55=A       56=A       57=A       58=A       59=A   
    60=A       61=A       62=A       63=A       64=A       65=A       66=A   
    67=A       68=A       69=A       70=A       71=A       72=A       73=A   
    74=A       75=A       76=A       77=A       78=A       79=A       80=A   
    81=A       82=A       83=A       84=A       85=A       86=A       87=A   
    88=A       89=A   
 ...... END OF INITIAL ORBITAL SELECTION ......
 CPU     0: STEP CPU TIME=     0.16 TOTAL CPU TIME=          1.9 (      0.0 MIN)
 TOTAL WALL CLOCK TIME=          4.6 SECONDS, CPU UTILIZATION IS    41.92%

 Running initial guess for monomer       1


          -------------
          GUESS OPTIONS
          -------------
          GUESS =HUCKEL            NORB  =       0          NORDER=       0
          MIX   =       F          PRTMO =       F          PUNMO =       F
          TOLZ  = 1.0E-08          TOLE  = 1.0E-05
          SYMDEN=       F          PURIFY=       F

 INITIAL GUESS ORBITALS GENERATED BY HUCKEL   ROUTINE.
 HUCKEL GUESS REQUIRES   1187385 WORDS.

 SYMMETRIES FOR INITIAL GUESS ORBITALS FOLLOW.   BOTH SET(S).
    90 ORBITALS ARE OCCUPIED (   27 CORE ORBITALS).
    28=A       29=A       30=A       31=A       32=A       33=A       34=A   
    35=A       36=A       37=A       38=A       39=A       40=A       41=A   
    42=A       43=A       44=A       45=A       46=A       47=A       48=A   
    49=A       50=A       51=A       52=A       53=A       54=A       55=A   
    56=A       57=A       58=A       59=A       60=A       61=A       62=A   
    63=A       64=A       65=A       66=A       67=A       68=A       69=A   
    70=A       71=A       72=A       73=A       74=A       75=A       76=A   
    77=A       78=A       79=A       80=A       81=A       82=A       83=A   
    84=A       85=A       86=A       87=A       88=A       89=A       90=A   
    91=A       92=A       93=A       94=A       95=A       96=A       97=A   
    98=A       99=A      100=A   
 ...... END OF INITIAL ORBITAL SELECTION ......
 CPU     0: STEP CPU TIME=     0.23 TOTAL CPU TIME=          2.2 (      0.0 MIN)
 TOTAL WALL CLOCK TIME=          5.2 SECONDS, CPU UTILIZATION IS    41.75%

 There are          25 separated and      30 SCF (      30 of them correlated) dimers.
 Estimate of max dimer size:  774 AOs,  178 occ. MOs

 Fragment statistics

      I  NAME     Q NAT0 NATB NA  NAO LAY MUL SCFTYP        NOP     MOL    CONV
 ==============================================================================
      1 F1       -1   35   1   90  388 1  1 G RHF             0      -1      -1
      2 F2       -1   31   1   79  341 1  1 G RHF             0      -1      -1
      3 F3       -1   31   1   79  341 1  1 G RHF             0      -1      -1
      4 F4       -1   30   1   79  339 1  1 G RHF             0      -1      -1
      5 F5       -1   30   1   79  339 1  1 G RHF             0      -1      -1
      6 F6       -1   31   1   79  341 1  1 G RHF             0      -1      -1
      7 F7       -1   31   1   79  341 1  1 G RHF             0      -1      -1
      8 F8       -1   33   1   85  371 1  1 G RHF             0      -1      -1
      9 F9       -1   33   1   85  371 1  1 G RHF             0      -1      -1
     10 F10      -1   34   1   89  386 1  1 G RHF             0      -1      -1
     11 F11       0   27   0   59  262 1  1 G RHF             0      -1      -1

 Close fragment pairs, distance relative to vdW radii

 CPU     0: STEP CPU TIME=     0.00 TOTAL CPU TIME=          2.2 (      0.0 MIN)
 TOTAL WALL CLOCK TIME=          5.2 SECONDS, CPU UTILIZATION IS    41.59%
 dmexch needs              4042036  words of memory.
 CPU     0: STEP CPU TIME=     0.02 TOTAL CPU TIME=          2.2 (      0.0 MIN)
 TOTAL WALL CLOCK TIME=          5.6 SECONDS, CPU UTILIZATION IS    38.68%

 Data exchange of   1338788 words took     0.5 s.

 RHF      monomer      1 corr= NONE       , L1=   388, L0=   364 ID=      1


 AO spaces for     1     0     0 n-mer: L1=   388, L0=   364

 DIRECT SCF CALCULATION, SCHWRZ=T   FDIFF=T,  DIRTHR=  0.00E+00 NITDIR=10

                                                                                   NONZERO     BLOCKS
 ITER EX DEM     TOTAL ENERGY        E CHANGE  DENSITY CHANGE     ORB. GRAD      INTEGRALS    SKIPPED
   1  0  0   850758.5716091512850758.5716091512   0.527930051   0.000000000      944412904   18749784
          ---------------START SECOND ORDER SCF---------------
   2  1  0    -1460.8139353240*****************   0.418305410   0.091024484      949524590   18757479
   3  2  0    -1461.0741933857    -0.2602580617   0.176195484   0.066211395      941656891   19077641
   4  3  0    -1461.4274127278    -0.3532193421   0.055599943   0.012534537      926986520   19437660
   5  4  0    -1461.4357880854    -0.0083753576   0.015186397   0.005548784      903576903   19806816
   6  5  0    -1461.4372848176    -0.0014967323   0.003668521   0.002434974      876771618   20158076
   7  6  0    -1461.4374916743    -0.0002068566   0.001181231   0.000765741      842420093   20550712
   8  7  0    -1461.4375291149    -0.0000374406   0.001105833   0.000356028      808144077   20886562
   9  8  0    -1461.4375365167    -0.0000074018   0.000484731   0.000153401      779661448   21162262
  10  9  0    -1461.4375381254    -0.0000016087   0.000326451   0.000074247      746049479   21486693
  11 10  0    -1461.4375383913    -0.0000002659   0.000105299   0.000036530      721331558   21669151
  12 11  0    -1461.4375384584    -0.0000000671   0.000021719   0.000010553      680894753   22008639
  13 12  0    -1461.4375384653    -0.0000000069   0.000010963   0.000005351      631409869   22456233
  14 13  0    -1461.4375384663    -0.0000000010   0.000005030   0.000003423      593765863   22795872
  15 14  0    -1461.4375384668    -0.0000000005   0.000001928   0.000000975      554144879   23142048
  16 15  0    -1461.4375384668    -0.0000000000   0.000001078   0.000000487      513732554   23473706
  17 16  0    -1461.4375384668     0.0000000000   0.000000288   0.000000095      476737679   23776387
  18 17  0    -1461.4375384668     0.0000000000   0.000000115   0.000000043      430028041   24141434

          -----------------
          DENSITY CONVERGED
          -----------------
     TIME TO FORM FOCK OPERATORS=      43.2 SECONDS (       2.4 SEC/ITER)
     FOCK TIME ON FIRST ITERATION=       3.5, LAST ITERATION=       1.4
     TIME TO SOLVE SCF EQUATIONS=       0.7 SECONDS (       0.0 SEC/ITER)

 FINAL RHF ENERGY IS    -1461.4375384668 AFTER  18 ITERATIONS
 ...... END OF RHF CALCULATION ......
 CPU     0: STEP CPU TIME=    62.28 TOTAL CPU TIME=         64.4 (      1.1 MIN)
 TOTAL WALL CLOCK TIME=        137.3 SECONDS, CPU UTILIZATION IS    46.95%
 DONE PCM POT.
 CPU     0: STEP CPU TIME=     0.42 TOTAL CPU TIME=         64.9 (      1.1 MIN)
 TOTAL WALL CLOCK TIME=        138.6 SECONDS, CPU UTILIZATION IS    46.81%

 Iter=  1 iFrag=      1 EFMO= -1522.278340895, DD= 0.431098300, DE=************


 RHF      monomer     10 corr= NONE       , L1=   386, L0=   362 ID=      2


 AO spaces for    10     0     0 n-mer: L1=   386, L0=   362

 DIRECT SCF CALCULATION, SCHWRZ=T   FDIFF=T,  DIRTHR=  0.00E+00 NITDIR=10

                                                                                   NONZERO     BLOCKS
 ITER EX DEM     TOTAL ENERGY        E CHANGE  DENSITY CHANGE     ORB. GRAD      INTEGRALS    SKIPPED
   1  0  0  1277009.9829941355*****************   0.531736890   0.000000000      900119690   17651907
          ---------------START SECOND ORDER SCF---------------
   2  1  0    -1447.4696447186*****************   0.422462508   0.099042329      904872364   17636679
   3  2  0    -1447.6745940015    -0.2049492829   0.193644585   0.082693914      900080763   17862993
   4  3  0    -1448.2989016983    -0.6243076967   0.145729094   0.023482180      888886192   18179022
   5  4  0    -1448.3163405934    -0.0174388951   0.053918386   0.020082037      877550368   18383260
   6  5  0    -1448.3262647375    -0.0099241441   0.020374026   0.011414599      857356109   18699433
   7  6  0    -1448.3269696673    -0.0007049298   0.010108112   0.007046567      840723363   18941422
   8  7  0    -1448.3275104761    -0.0005408087   0.003423731   0.001262984      821408450   19163580
   9  8  0    -1448.3275266998    -0.0000162237   0.001453045   0.000850423      789886357   19492045
  10  9  0    -1448.3275479857    -0.0000212859   0.000397674   0.000093834      761149227   19779560
  11 10  0    -1448.3275489281    -0.0000009423   0.000216542   0.000095449      717377084   20148650
  12 11  0    -1448.3275493027    -0.0000003747   0.000094502   0.000037009      693791554   20351096
  13 12  0    -1448.3275493356    -0.0000000329   0.000040923   0.000020059      652893344   20712625
  14 13  0    -1448.3275493484    -0.0000000128   0.000016184   0.000003254      616595654   20988812
  15 14  0    -1448.3275493501    -0.0000000017   0.000012196   0.000003773      584552393   21245119
  16 15  0    -1448.3275493510    -0.0000000009   0.000005452   0.000001667      549205500   21537936
  17 16  0    -1448.3275493508     0.0000000002   0.000001370   0.000000673      511530928   21867159
  18 17  0    -1448.3275493501     0.0000000007   0.000000793   0.000000201      476194261   22133882
  19 18  0    -1448.3275493510    -0.0000000009   0.000000329   0.000000099      440317148   22425742
  20 19  0    -1448.3275493497     0.0000000013   0.000000130   0.000000036      397413054   22770426

          -----------------
          DENSITY CONVERGED
          -----------------
     TIME TO FORM FOCK OPERATORS=      46.7 SECONDS (       2.3 SEC/ITER)
     FOCK TIME ON FIRST ITERATION=       2.9, LAST ITERATION=       1.2
     TIME TO SOLVE SCF EQUATIONS=       0.8 SECONDS (       0.0 SEC/ITER)

 FINAL RHF ENERGY IS    -1448.3275493497 AFTER  20 ITERATIONS
 ...... END OF RHF CALCULATION ......
 CPU     0: STEP CPU TIME=    76.40 TOTAL CPU TIME=        141.3 (      2.4 MIN)
 TOTAL WALL CLOCK TIME=        295.5 SECONDS, CPU UTILIZATION IS    47.80%
 DONE PCM POT.
 CPU     0: STEP CPU TIME=     0.42 TOTAL CPU TIME=        141.7 (      2.4 MIN)
 TOTAL WALL CLOCK TIME=        296.9 SECONDS, CPU UTILIZATION IS    47.73%

 Iter=  1 iFrag=     10 EFMO= -1506.979299126, DD= 0.462781722, DE=************


 RHF      monomer      8 corr= NONE       , L1=   371, L0=   348 ID=      3


 AO spaces for     8     0     0 n-mer: L1=   371, L0=   348

 DIRECT SCF CALCULATION, SCHWRZ=T   FDIFF=T,  DIRTHR=  0.00E+00 NITDIR=10

                                                                                   NONZERO     BLOCKS
 ITER EX DEM     TOTAL ENERGY        E CHANGE  DENSITY CHANGE     ORB. GRAD      INTEGRALS    SKIPPED
   1  0  0  1341073.2320070530*****************   0.541833659   0.000000000      817085865   14962924
          ---------------START SECOND ORDER SCF---------------
   2  1  0    -1367.9978855179*****************   0.440979579   0.106438512      820861410   14962410
   3  2  0    -1368.2677090793    -0.2698235614   0.182304650   0.089169619      815512041   15220171
   4  3  0    -1368.6408515844    -0.3731425051   0.059952937   0.011982689      804432943   15518335
   5  4  0    -1368.6501030264    -0.0092514419   0.016842371   0.005275139      787001986   15821574
   6  5  0    -1368.6519507131    -0.0018476867   0.003937808   0.001926586      766618261   16108258
   7  6  0    -1368.6521465313    -0.0001958183   0.001340788   0.000777794      739856712   16429377
   8  7  0    -1368.6521854760    -0.0000389446   0.000661939   0.000318477      711783885   16707015
   9  8  0    -1368.6521910700    -0.0000055940   0.000463573   0.000166427      685375580   16959318
  10  9  0    -1368.6521925654    -0.0000014954   0.000191959   0.000080945      658963452   17218649
  11 10  0    -1368.6521928469    -0.0000002815   0.000086534   0.000043069      637918682   17396296
  12 11  0    -1368.6521929319    -0.0000000850   0.000037024   0.000010717      604777544   17656762
  13 12  0    -1368.6521929416    -0.0000000097   0.000019079   0.000007978      568707731   17982948
  14 13  0    -1368.6521929432    -0.0000000016   0.000003606   0.000002337      536836731   18274133
  15 14  0    -1368.6521929442    -0.0000000010   0.000001861   0.000001000      499705280   18581432
  16 15  0    -1368.6521929431     0.0000000011   0.000001304   0.000000299      456765471   18932781
  17 16  0    -1368.6521929444    -0.0000000013   0.000000361   0.000000084      429003250   19166309
  18 17  0    -1368.6521929441     0.0000000003   0.000000093   0.000000056      383379437   19529589

          -----------------
          DENSITY CONVERGED
          -----------------
     TIME TO FORM FOCK OPERATORS=      38.9 SECONDS (       2.2 SEC/ITER)
     FOCK TIME ON FIRST ITERATION=       2.8, LAST ITERATION=       1.3
     TIME TO SOLVE SCF EQUATIONS=       0.6 SECONDS (       0.0 SEC/ITER)

 FINAL RHF ENERGY IS    -1368.6521929441 AFTER  18 ITERATIONS
 ...... END OF RHF CALCULATION ......
 CPU     0: STEP CPU TIME=    63.28 TOTAL CPU TIME=        205.0 (      3.4 MIN)
 TOTAL WALL CLOCK TIME=        427.9 SECONDS, CPU UTILIZATION IS    47.90%
 DONE PCM POT.
 CPU     0: STEP CPU TIME=     0.41 TOTAL CPU TIME=        205.4 (      3.4 MIN)
 TOTAL WALL CLOCK TIME=        429.2 SECONDS, CPU UTILIZATION IS    47.86%

 Iter=  1 iFrag=      8 EFMO= -1432.119739408, DD= 0.440512718, DE=************


 RHF      monomer      9 corr= NONE       , L1=   371, L0=   348 ID=      4


 AO spaces for     9     0     0 n-mer: L1=   371, L0=   348

 DIRECT SCF CALCULATION, SCHWRZ=T   FDIFF=T,  DIRTHR=  0.00E+00 NITDIR=10

                                                                                   NONZERO     BLOCKS
 ITER EX DEM     TOTAL ENERGY        E CHANGE  DENSITY CHANGE     ORB. GRAD      INTEGRALS    SKIPPED
   1  0  0  1258390.4604247755*****************   0.527325024   0.000000000      820481104   15032442
          ---------------START SECOND ORDER SCF---------------
   2  1  0    -1372.5909634453*****************   0.417536338   0.102299940      824764243   15029253
   3  2  0    -1372.8486080491    -0.2576446038   0.173934971   0.081061509      818781492   15289192
   4  3  0    -1373.2026232480    -0.3540151989   0.055725193   0.011303376      807207148   15579172
   5  4  0    -1373.2108964597    -0.0082732117   0.015602940   0.005233581      788618809   15887508
   6  5  0    -1373.2123115114    -0.0014150517   0.004081174   0.002742200      765851055   16189048
   7  6  0    -1373.2124992361    -0.0001877247   0.001151162   0.000731720      737812939   16505377
   8  7  0    -1373.2125343174    -0.0000350814   0.000886605   0.000347175      709250105   16779683
   9  8  0    -1373.2125406741    -0.0000063567   0.000481038   0.000139328      682385050   17029977
  10  9  0    -1373.2125421878    -0.0000015137   0.000149398   0.000052605      651952550   17312284
  11 10  0    -1373.2125424114    -0.0000002235   0.000066587   0.000017134      629145395   17487445
  12 11  0    -1373.2125424463    -0.0000000349   0.000019278   0.000010119      597509527   17741848
  13 12  0    -1373.2125424526    -0.0000000063   0.000006391   0.000001862      552616588   18136647
  14 13  0    -1373.2125424532    -0.0000000006   0.000003113   0.000001353      517488729   18433999
  15 14  0    -1373.2125424529     0.0000000003   0.000001330   0.000000447      476461791   18783158
  16 15  0    -1373.2125424529     0.0000000000   0.000000394   0.000000175      442502289   19083099
  17 16  0    -1373.2125424535    -0.0000000006   0.000000158   0.000000064      401092687   19385612

          -----------------
          DENSITY CONVERGED
          -----------------
     TIME TO FORM FOCK OPERATORS=      36.3 SECONDS (       2.1 SEC/ITER)
     FOCK TIME ON FIRST ITERATION=       3.1, LAST ITERATION=       1.2
     TIME TO SOLVE SCF EQUATIONS=       0.6 SECONDS (       0.0 SEC/ITER)

 FINAL RHF ENERGY IS    -1373.2125424535 AFTER  17 ITERATIONS
 ...... END OF RHF CALCULATION ......
 CPU     0: STEP CPU TIME=    67.81 TOTAL CPU TIME=        273.2 (      4.6 MIN)
 TOTAL WALL CLOCK TIME=        570.7 SECONDS, CPU UTILIZATION IS    47.87%
 DONE PCM POT.
 CPU     0: STEP CPU TIME=     0.40 TOTAL CPU TIME=        273.6 (      4.6 MIN)
 TOTAL WALL CLOCK TIME=        571.8 SECONDS, CPU UTILIZATION IS    47.84%

 Iter=  1 iFrag=      9 EFMO= -1432.127788916, DD= 0.444756982, DE=************


 RHF      monomer      6 corr= NONE       , L1=   341, L0=   320 ID=      5


 AO spaces for     6     0     0 n-mer: L1=   341, L0=   320

 DIRECT SCF CALCULATION, SCHWRZ=T   FDIFF=T,  DIRTHR=  0.00E+00 NITDIR=10

                                                                                   NONZERO     BLOCKS
 ITER EX DEM     TOTAL ENERGY        E CHANGE  DENSITY CHANGE     ORB. GRAD      INTEGRALS    SKIPPED
   1  0  0  1293262.0405132214*****************   0.523357295   0.000000000      632643054   10783679
          ---------------START SECOND ORDER SCF---------------
   2  1  0    -1311.9743387244*****************   0.403243017   0.098459057      636097776   10781353
   3  2  0    -1312.1984865532    -0.2241478288   0.167221297   0.079287709      631975277   10974972
   4  3  0    -1312.6148265625    -0.4163400093   0.054221444   0.019429409      623628026   11200398
   5  4  0    -1312.6271997158    -0.0123731534   0.011718383   0.006776741      612555922   11409484
   6  5  0    -1312.6289964158    -0.0017966999   0.009500159   0.003019458      594311163   11679658
