‘2LHP_5_fmo_input.inp’ -> ‘/scratch/hazwong/820702/./2LHP_5_fmo_input.inp’
‘rungms’ -> ‘/scratch/hazwong/820702/./rungms’
‘gms-files.csh’ -> ‘/scratch/hazwong/820702/./gms-files.csh’
----- GAMESS execution script 'rungms' -----
This job is running on host gollum083.lsa.umich.edu
under operating system Linux at Thu Dec 5 23:24:41 EST 2019
Available scratch disk space (Kbyte units) at beginning of the job is
Filesystem     1K-blocks  Used Available Use% Mounted on
/dev/sda4      426933580 33436 426900144   1% /scratch
GAMESS temporary binary files will be written to /scratch/hazwong/820702/2LHP_5/usrc
GAMESS supplementary output files will be written to /scratch/hazwong/820702/2LHP_5/src
Copying input file 2LHP_5_fmo_input.inp to your run's scratch directory...
cp 2LHP_5_fmo_input.inp /scratch/hazwong/820702/2LHP_5/usrc/2LHP_5_fmo_input.F05
unset echo
This is a GDDI run, keeping various output files on local disks
setenv OUTPUT /scratch/hazwong/820702/2LHP_5/usrc/2LHP_5_fmo_input.F06
setenv PUNCH /scratch/hazwong/820702/2LHP_5/usrc/2LHP_5_fmo_input.F07
unset echo
 
Assuming a single but multicore node.
 
/export/apps/CentOS7/gamess/src/build//ddikick.x /export/apps/CentOS7/gamess/src/build//gamess.R3.x 2LHP_5_fmo_input -ddi 1 16 gollum083.lsa.umich.edu:cpus=16 -scr /scratch/hazwong/820702/2LHP_5/usrc

 Distributed Data Interface kickoff program.
 Initiating 16 compute processes on 1 nodes to run the following command:
 /export/apps/CentOS7/gamess/src/build//gamess.R3.x 2LHP_5_fmo_input 

          ******************************************************
          *         GAMESS VERSION = 30 SEP 2018 (R3)         *
          *             FROM IOWA STATE UNIVERSITY             *
          * M.W.SCHMIDT, K.K.BALDRIDGE, J.A.BOATZ, S.T.ELBERT, *
          *   M.S.GORDON, J.H.JENSEN, S.KOSEKI, N.MATSUNAGA,   *
          *          K.A.NGUYEN, S.J.SU, T.L.WINDUS,           *
          *       TOGETHER WITH M.DUPUIS, J.A.MONTGOMERY       *
          *         J.COMPUT.CHEM.  14, 1347-1363(1993)        *
          **************** 64 BIT LINUX VERSION ****************

  SINCE 1993, STUDENTS AND POSTDOCS WORKING AT IOWA STATE UNIVERSITY
  AND ALSO IN THEIR VARIOUS JOBS AFTER LEAVING ISU HAVE MADE IMPORTANT
  CONTRIBUTIONS TO THE CODE:
     IVANA ADAMOVIC, CHRISTINE AIKENS, YURI ALEXEEV, POOJA ARORA,
     ANDREY ASADCHEV, ROB BELL, PRADIPTA BANDYOPADHYAY, JONATHAN BENTZ,
     BRETT BODE, KURT BRORSEN, CALEB CARLIN, GALINA CHABAN, WEI CHEN,
     CHEOL HO CHOI, PAUL DAY, ALBERT DEFUSCO, NUWAN DESILVA, TIM DUDLEY,
     DMITRI FEDOROV, ALEX FINDLATER, GRAHAM FLETCHER, MARK FREITAG,
     KURT GLAESEMANN, ANASTASIA GUNINA,
     DAN KEMP, GRANT MERRILL, NORIYUKI MINEZAWA, JONATHAN MULLIN,
     TAKESHI NAGATA, SEAN NEDD, HEATHER NETZLOFF, BOSILJKA NJEGIC, RYAN OLSON,
     MIKE PAK, BUU PHAM,
     SPENCER PRUITT, LUKE ROSKOP, JIM SHOEMAKER, LYUDMILA SLIPCHENKO,
     TONY SMITH, SAROM SOK LEANG, JIE SONG, TETSUYA TAKETSUGU, SIMON WEBB,
     PENG XU, SOOHAENG YOO, FEDERICO ZAHARIEV

  ADDITIONAL CODE HAS BEEN PROVIDED BY COLLABORATORS IN OTHER GROUPS:
     IOWA STATE UNIVERSITY:
          JOE IVANIC, AARON WEST, LAIMUTIS BYTAUTAS, KLAUS RUEDENBERG
     UNIVERSITY OF TOKYO: KIMIHIKO HIRAO, TAKAHITO NAKAJIMA,
          TAKAO TSUNEDA, MUNEAKI KAMIYA, SUSUMU YANAGISAWA,
          KIYOSHI YAGI, MAHITO CHIBA, SEIKEN TOKURA, NAOAKI KAWAKAMI
     UNIVERSITY OF AARHUS: FRANK JENSEN
     UNIVERSITY OF IOWA: VISVALDAS KAIRYS, HUI LI
     NATIONAL INST. OF STANDARDS AND TECHNOLOGY: WALT STEVENS, DAVID GARMER
     UNIVERSITY OF PISA: BENEDETTA MENNUCCI, JACOPO TOMASI
     UNIVERSITY OF MEMPHIS: HENRY KURTZ, PRAKASHAN KORAMBATH
     UNIVERSITY OF ALBERTA: TOBY ZENG, MARIUSZ KLOBUKOWSKI
     UNIVERSITY OF NEW ENGLAND: MARK SPACKMAN
     MIE UNIVERSITY: HIROAKI UMEDA
     NAT. INST. OF ADVANCED INDUSTRIAL SCIENCE AND TECHNOLOGY: KAZUO KITAURA
     MICHIGAN STATE UNIVERSITY:
          KAROL KOWALSKI, MARTA WLOCH, JEFFREY GOUR, JESSE LUTZ,
          WEI LI, JUN SHEN, J. EMILIANO DEUSTUA, PIOTR PIECUCH
     UNIVERSITY OF MINNESOTA:
          YINAN SHU
     UNIVERSITY OF SILESIA: MONIKA MUSIAL, STANISLAW KUCHARSKI
     FACULTES UNIVERSITAIRES NOTRE-DAME DE LA PAIX:
          OLIVIER QUINET, BENOIT CHAMPAGNE
     UNIVERSITY OF CALIFORNIA - SANTA BARBARA: BERNARD KIRTMAN
     INSTITUTE FOR MOLECULAR SCIENCE:
          KAZUYA ISHIMURA, MICHIO KATOUDA, AND SHIGERU NAGASE
     UNIVERSITY OF NOTRE DAME: ANNA POMOGAEVA, DAN CHIPMAN
     KYUSHU UNIVERSITY:
          HARUYUKI NAKANO,
          FENG LONG GU, JACEK KORCHOWIEC, MARCIN MAKOWSKI, AND YURIKO AOKI,
          HIROTOSHI MORI AND EISAKU MIYOSHI
     PENNSYLVANIA STATE UNIVERSITY:
          TZVETELIN IORDANOV, CHET SWALINA, JONATHAN SKONE,
          SHARON HAMMES-SCHIFFER
     WASEDA UNIVERSITY:
          MASATO KOBAYASHI, TOMOKO AKAMA, TSUGUKI TOUMA,
          TAKESHI YOSHIKAWA, YASUHIRO IKABATA, JUNJI SEINO,
          YUYA NAKAJIMA, HIROMI NAKAI
     NANJING UNIVERSITY: SHUHUA LI
     UNIVERSITY OF NEBRASKA:
          PEIFENG SU, DEJUN SI, NANDUN THELLAMUREGE, YALI WANG, HUI LI
     UNIVERSITY OF ZURICH: ROBERTO PEVERATI, KIM BALDRIDGE
     N. COPERNICUS UNIVERSITY AND JACKSON STATE UNIVERSITY:
          MARIA BARYSZ
     UNIVERSITY OF COPENHAGEN: Jimmy Kromann, CASPER STEINMANN
     TOKYO INSTITUTE OF TECHNOLOGY: HIROYA NAKATA
     NAGOYA UNIVERSITY: YOSHIO NISHIMOTO, STEPHAN IRLE
     MOSCOW STATE UNIVERSITY: VLADIMIR MIRONOV


 PARALLEL VERSION RUNNING ON       16 PROCESSORS IN        1 NODES.

 EXECUTION OF GAMESS BEGUN Thu Dec  5 23:24:42 2019

            ECHO OF THE FIRST FEW INPUT CARDS -
 INPUT CARD>!*** FMO 5.3 (Gamess) INPUT generated by Facio 22.1.1.32 ***                    
 INPUT CARD> $CONTRL RUNTYP=ENERGY NPRINT=-5 ISPHER=1 MAXIT=200 $END                        
 INPUT CARD> $SYSTEM MWORDS=63 MEMDDI=63 $END                                               
 INPUT CARD> $GDDI NGROUP=1 $END                                                            
 INPUT CARD> $SCF DIRSCF=.TRUE. NPUNCH=0 $END                                               
 INPUT CARD>!*** NumCPU : 2  MemPerNode : 512MB                                             
 INPUT CARD> $PCM SOLVNT=WATER IEF=-10 ICOMP=2 ICAV=1 IDISP=1 IFMO=-1 $END                  
 INPUT CARD> $PCMCAV RADII=SUAHF $END                                                       
 INPUT CARD> $TESCAV NTSALL=60 $END                                                         
 INPUT CARD> $FMOPRP                                                                        
 INPUT CARD>    NAODIR=200                                                                  
 INPUT CARD>    NGRFMO(1)=1, 1, 0, 0, 0,   0, 0, 0, 0, 0                                    
 INPUT CARD>    IPIEDA=1                                                                    
 INPUT CARD>    NPRINT=9                                                                    
 INPUT CARD> $END                                                                           
 INPUT CARD> $FMO                                                                           
 INPUT CARD>      SCFTYP(1)=RHF                                                             
 INPUT CARD>      MODGRD=10                                                                 
 INPUT CARD>      MODMUL=0                                                                  
 INPUT CARD>      MAXCAO=5                                                                  
 INPUT CARD>      MAXBND=13                                                                 
 INPUT CARD>      NLAYER=1                                                                  
 INPUT CARD>      MPLEVL(1)=2                                                               
 INPUT CARD>      NFRAG=11                                                                  
 INPUT CARD>      ICHARG(1)=-1, -1, -1, -1, 0, -1, -1, -1, -1, -1, 0                        
 INPUT CARD>      FRGNAM(1)=F1, F2, F3, F4, F5, F6, F7, F8, F9, F10, F11                    
 INPUT CARD>      indat(1)=0                                                                
 INPUT CARD>               1   -35   0                                                      
 INPUT CARD>               36   -65   0                                                     
 INPUT CARD>               66   -99   0                                                     
 INPUT CARD>               100   -133   0                                                   
 INPUT CARD>               134   -165   0                                                   
 INPUT CARD>               166   -195   0                                                   
 INPUT CARD>               196   -226   0                                                   
 INPUT CARD>               227   -259   0                                                   
 INPUT CARD>               260   -292   0                                                   
 INPUT CARD>               293   -325   0                                                   
 INPUT CARD>               326   -352   0                                                   
 INPUT CARD> $END                                                                           
 INPUT CARD>                                                                                
 INPUT CARD> $FMOBND                                                                        
 INPUT CARD>   -36   35       6-31G*    MINI                                                
 INPUT CARD>   -66   65       6-31G*    MINI                                                
 INPUT CARD>   -100   99       6-31G*    MINI                                               
 INPUT CARD>   -134   133       6-31G*    MINI                                              
 INPUT CARD>   -166   165       6-31G*    MINI                                              
 INPUT CARD>   -196   195       6-31G*    MINI                                              
 INPUT CARD>   -227   226       6-31G*    MINI                                              
 INPUT CARD>   -260   259       6-31G*    MINI                                              
 INPUT CARD>   -293   292       6-31G*    MINI                                              


 -------------------------------------------------------------
 GROUP DDI, PROGRAMMED BY: RYAN M. OLSON AND DMITRI G. FEDOROV
        FEDOROV ET AL., J. COMPUT. CHEM., 25 (2004) 872.
 -------------------------------------------------------------

 -------------------------------------------------------
 GDDI: INITIALIZATION COMPLETED FOR GROUP     1 OF     1
 WITH    16 PROCESSES BALTYP=DLB   global rank=        0
 -------------------------------------------------------

   63000000 WORDS OF MEMORY AVAILABLE


     RUN TITLE
     ---------
  FMO calculation                                                                

 THE POINT GROUP OF THE MOLECULE IS C1      
 THE ORDER OF THE PRINCIPAL AXIS IS     0

 ATOM   ATOMIC CHARGE
 H.1-1       1.0
 O.1-1       8.0
 C.1-1       6.0
 N.1-1       7.0
 P.1-1      15.0

     ATOMIC BASIS SET LIBRARY
     ----------------
 THE CONTRACTED PRIMITIVE FUNCTIONS HAVE BEEN UNNORMALIZED
 THE CONTRACTED BASIS FUNCTIONS ARE NOW NORMALIZED TO UNITY

  SHELL TYPE  PRIMITIVE        EXPONENT          CONTRACTION COEFFICIENT(S)

 H.1-1     

      1   S       1            18.7311370    0.033494604338
      1   S       2             2.8253944    0.234726953484
      1   S       3             0.6401217    0.813757326146

      2   S       4             0.1612778    1.000000000000

 O.1-1     

      3   S       5          5484.6716600    0.001831074430
      3   S       6           825.2349460    0.013950172200
      3   S       7           188.0469580    0.068445078098
      3   S       8            52.9645000    0.232714335992
      3   S       9            16.8975704    0.470192897984
      3   S      10             5.7996353    0.358520852987

      4   L      11            15.5396162   -0.110777549525    0.070874268231
      4   L      12             3.5999336   -0.148026262701    0.339752839147
      4   L      13             1.0137618    1.130767015354    0.727158577316

      5   L      14             0.2700058    1.000000000000    1.000000000000

      6   D      15             0.8000000    1.000000000000

 C.1-1     

      7   S      16          3047.5248800    0.001834737132
      7   S      17           457.3695180    0.014037322813
      7   S      18           103.9486850    0.068842622264
      7   S      19            29.2101553    0.232184443216
      7   S      20             9.2866630    0.467941348435
      7   S      21             3.1639270    0.362311985337

      8   L      22             7.8682723   -0.119332419775    0.068999066591
      8   L      23             1.8812885   -0.160854151696    0.316423960957
      8   L      24             0.5442493    1.143456437840    0.744308290898

      9   L      25             0.1687145    1.000000000000    1.000000000000

     10   D      26             0.8000000    1.000000000000

 N.1-1     

     11   S      27          4173.5114600    0.001834772160
     11   S      28           627.4579110    0.013994627002
     11   S      29           142.9020930    0.068586551812
     11   S      30            40.2343293    0.232240873040
     11   S      31            12.8202129    0.469069948082
     11   S      32             4.3904370    0.360455199063

     12   L      33            11.6263619   -0.114961181702    0.067579743878
     12   L      34             2.7162798   -0.169117478561    0.323907295893
     12   L      35             0.7722184    1.145851947027    0.740895139755

     13   L      36             0.2120315    1.000000000000    1.000000000000

     14   D      37             0.8000000    1.000000000000

 P.1-1     

     15   S      38         19413.3000000    0.001851598923
     15   S      39          2909.4200000    0.014206191735
     15   S      40           661.3640000    0.069999459277
     15   S      41           185.7590000    0.240078860331
     15   S      42            59.1943000    0.484761717984
     15   S      43            20.0310000    0.335199804993

     16   L      44           339.4780000   -0.002782170105    0.004564616191
     16   L      45            81.0101000   -0.036049901354    0.033693571881
     16   L      46            25.8780000   -0.116631004382    0.139754883368
     16   L      47             9.4522100    0.096832803638    0.339361716786
     16   L      48             3.6656600    0.614418023082    0.450920623685
     16   L      49             1.4674600    0.403798015170    0.238585800889

     17   L      50             2.1562300   -0.252924113863   -0.017765312733
     17   L      51             0.7489970    0.032851844678    0.274058196433
     17   L      52             0.2831450    1.081254761783    0.785421562957

     18   L      53             0.0998317    1.000000000000    1.000000000000

     19   D      54             0.5500000    1.000000000000

 TOTAL NUMBER OF BASIS SET SHELLS             =   19
 NUMBER OF CARTESIAN GAUSSIAN BASIS FUNCTIONS =   66

     $CONTRL OPTIONS
     ---------------
 SCFTYP=RHF          RUNTYP=ENERGY       EXETYP=RUN     
 MPLEVL=       0     CITYP =NONE         CCTYP =NONE         VBTYP =NONE    
 DFTTYP=NONE         TDDFT =NONE    
 MULT  =       1     ICHARG=       0     NZVAR =       0     COORD =UNIQUE  
 PP    =NONE         RELWFN=NONE         LOCAL =NONE         NUMGRD=       F
 ISPHER=       1     NOSYM =       0     MAXIT =     200     UNITS =ANGS    
 PLTORB=       F     MOLPLT=       F     AIMPAC=       F     FRIEND=        
 NPRINT=      -5     IREST =       0     GEOM  =INPUT   
 NORMF =       0     NORMP =       0     ITOL  =      24     ICUT  =      12
 INTTYP=BEST         GRDTYP=BEST         QMTTOL= 1.0E-06

     $SYSTEM OPTIONS
     ---------------
  REPLICATED MEMORY=    63000000 WORDS (ON EVERY NODE).
 DISTRIBUTED MEMDDI=          63 MILLION WORDS IN AGGREGATE,
 MEMDDI DISTRIBUTED OVER  16 PROCESSORS IS     3937500 WORDS/PROCESSOR.
 TOTAL MEMORY REQUESTED ON EACH PROCESSOR=    66937500 WORDS.
 TIMLIM=      525600.00 MINUTES, OR     365.0 DAYS.
 PARALL= T  BALTYP=  DLB     KDIAG=    0  COREFL= F
 MXSEQ2=     300 MXSEQ3=     150  mem10=         0

 ** LOOKING UP INTERNALLY STORED DATA FOR SOLVENT=WATER    **
 OPTICAL AND PHYSICAL CONSTANTS:
 EPS= 78.390; EPSINF=  1.776; RSOLV=  1.385 A; VMOL=  18.070 ML/MOL;
 TCE= .25700E-03 1/K; STEN= 71.810 DYN/CM;  DSTEN=  0.6500; CMF=  1.2770


     -----------------------------------
     INPUT FOR PCM SOLVATION CALCULATION 
     -----------------------------------
     IEF   =     -10
     ICOMP =       2     IFIELD=       0     ICAV  =       1
     IDISP =       1     IREP  =       0     IDP   =       0

     SOLVNT=WATER        EPS   = 78.3900     EPSINF=  1.7760
     VMOL  = 18.0700     TCE   =  0.00025700 STEN  = 71.8100
     DSTEN =  0.6500     CMF   =  1.2770     RSOLV =  1.3850

     NESFP =       0
     OMEGA = 40.0000     RET   =100.0000     FRO   =  0.7000

     TABS  =298.0000     IPRINT=       0

     --------------------------------
     INPUT FOR ITERATIVE C-PCM METHOD 
     --------------------------------
     IPCMIT  =         1     MXDIIS  =        50
     MXITR1  =       200     MXITR2  =       200
     THRES   = 0.100E-09     IMUL    =         3
     RCUT(1) =   20.0000     RCUT(2) =   50.0000

     IDIRCT  =         1
     IMGABI  =         0     RABI    =    4.0000
     IMGASC  =         0     RASC    =   20.0000
     THRSLS  = 0.500E-03     DENSLS  =    0.0100
     IEFPOL  =         1     REFPOL  =    0.0000

     INPUT FOR ISOTROPIC DIELECTRICS
     -------------------------------
     EPS=    78.39

          ----------------
          PROPERTIES INPUT
          ----------------

     MOMENTS            FIELD           POTENTIAL          DENSITY
 IEMOM =       1   IEFLD =       0   IEPOT =       0   IEDEN =       0
 WHERE =COMASS     WHERE =NUCLEI     WHERE =NUCLEI     WHERE =NUCLEI  
 OUTPUT=BOTH       OUTPUT=BOTH       OUTPUT=NONE       OUTPUT=BOTH    
 IEMINT=       0   IEFINT=       0                     IEDINT=       0
                                                       MORB  =       0
          EXTRAPOLATION IN EFFECT
          SOSCF IN EFFECT
 ORBITAL PRINTING OPTION: NPREO=     1 32767     2     1

     -------------------------------
     INTEGRAL TRANSFORMATION OPTIONS
     -------------------------------
     NWORD  =            0
     CUTOFF = 1.0E-10     MPTRAN =       0
     DIRTRF =       T     AOINTS =DUP     

          ----------------------
          INTEGRAL INPUT OPTIONS
          ----------------------
 NOPK  =       1 NORDER=       0 SCHWRZ=       T

 ..... DONE SETTING UP THE RUN .....
 CPU     0: STEP CPU TIME=     0.04 TOTAL CPU TIME=          0.0 (      0.0 MIN)
 TOTAL WALL CLOCK TIME=          0.1 SECONDS, CPU UTILIZATION IS    50.00%
 CPU     0: STEP CPU TIME=     0.00 TOTAL CPU TIME=          0.0 (      0.0 MIN)
 TOTAL WALL CLOCK TIME=          0.1 SECONDS, CPU UTILIZATION IS    50.00%

                    ----------------------
                    AO INTEGRAL TECHNOLOGY
                    ----------------------
     S,P,L SHELL ROTATED AXIS INTEGRALS, REPROGRAMMED BY
        KAZUYA ISHIMURA (IMS) AND JOSE SIERRA (SYNSTAR).
     S,P,D,L SHELL ROTATED AXIS INTEGRALS PROGRAMMED BY
        KAZUYA ISHIMURA (INSTITUTE FOR MOLECULAR SCIENCE).
     S,P,D,F,G SHELL TO TOTAL QUARTET ANGULAR MOMENTUM SUM 5,
        ERIC PROGRAM BY GRAHAM FLETCHER (ELORET AND NASA ADVANCED
        SUPERCOMPUTING DIVISION, AMES RESEARCH CENTER).
     S,P,D,F,G,L SHELL GENERAL RYS QUADRATURE PROGRAMMED BY
        MICHEL DUPUIS (PACIFIC NORTHWEST NATIONAL LABORATORY).
 Setting modorb=1 flag...
 Setting modorb=1 flag...

          -----------------------
          MP2 CONTROL INFORMATION
          -----------------------
          NACORE =        8  NBCORE =        8
          LMOMP2 =        F  AOINTS = DUP     
          METHOD =        2  NWORD  =               0
          MP2PRP =        F  OSPT   = NONE    
          CUTOFF = 1.00E-12  CPHFBS = BASISAO 
          CODE   = IMS     

          NUMBER OF CORE -A-  ORBITALS =     8
          NUMBER OF CORE -B-  ORBITALS =     8
          NUMBER OF OCC. -A-  ORBITALS =    18
          NUMBER OF OCC. -B-  ORBITALS =    18
          NUMBER OF MOLECULAR ORBITALS =    66
          NUMBER OF   BASIS  FUNCTIONS =    66

 CPU     0: STEP CPU TIME=     0.02 TOTAL CPU TIME=          0.1 (      0.0 MIN)
 TOTAL WALL CLOCK TIME=          0.1 SECONDS, CPU UTILIZATION IS    50.00%
 CPU     0: STEP CPU TIME=     0.00 TOTAL CPU TIME=          0.1 (      0.0 MIN)
 TOTAL WALL CLOCK TIME=          0.1 SECONDS, CPU UTILIZATION IS    50.00%

     INPUT FOR CAVITY DEFINITION 
     ---------------------------
   ATOM               COORDINATES                RADIUS       EPS
      1      4.2570     -3.4030      1.3150      0.0100     78.3900
      2      3.7390     -3.2340      0.5030      1.5900     78.3900
      3      3.7410     -4.4400     -0.2780      1.7700     78.3900
      4      3.3170     -5.2690      0.3300      0.0100     78.3900
      5      4.7860     -4.7170     -0.5460      0.0100     78.3900
      6      2.9280     -4.3050     -1.5680      1.7700     78.3900
      7      2.9720     -5.2350     -2.1700      0.0100     78.3900
      8      1.5280     -4.0540     -1.2490      1.5900     78.3900
      9      0.9890     -3.1470     -2.1950      1.7700     78.3900
     10      0.1070     -3.6590     -2.6520      0.0100     78.3900
     11      0.5480     -1.9070     -1.5460      1.6800     78.3900
     12     -0.4720     -0.0130     -1.0930      1.7700     78.3900
     13      0.3070     -0.3070      0.0190      1.6800     78.3900
     14      0.8900     -1.4410     -0.2970      1.7700     78.3900
     15      1.5860     -1.9930      0.3390      0.0100     78.3900
     16     -1.9680      1.0490     -2.5920      1.6800     78.3900
     17     -1.7010      0.0500     -3.4410      1.7700     78.3900
     18     -2.2240      0.1000     -4.4030      0.0100     78.3900
     19     -0.9080     -1.0150     -3.2730      1.6800     78.3900
     20     -0.3220     -0.9850     -2.0670      1.7700     78.3900
     21     -1.3560      1.0500     -1.3790      1.7700     78.3900
     22     -1.6220      2.0480     -0.5140      1.6800     78.3900
     23     -1.2070      2.0780      0.4030      0.0100     78.3900
     24     -2.2490      2.7880     -0.7690      0.0100     78.3900
     25      2.0460     -2.9100     -3.2510      1.7700     78.3900
     26      1.9990     -1.8910     -3.6860      0.0100     78.3900
     27      1.9040     -3.8780     -4.2690      1.5900     78.3900
     28      2.6310     -3.7460     -4.8900      0.0100     78.3900
     29      3.3330     -3.1230     -2.4600      1.7700     78.3900
     30      3.5180     -2.2540     -1.7860      0.0100     78.3900
     31      4.4940     -3.4790     -3.2490      1.5900     78.3900
     32      5.4550     -2.3370     -3.7610      2.1000     78.3900
     33      5.7590     -1.4390     -2.6290      1.5900     78.3900
     34      6.6160     -2.9560     -4.4380      1.5900     78.3900
     35      4.5910     -1.5520     -4.8090      1.5900     78.3900
     36      4.2200     -2.1460     -6.0700      1.7700     78.3900
     37      3.7520     -3.1450     -5.9260      0.0100     78.3900
     38      5.1240     -2.2920     -6.7010      0.0100     78.3900
     39      3.2400     -1.2600     -6.8520      1.7700     78.3900
     40      2.9230     -1.7580     -7.7940      0.0100     78.3900
     41      2.0360     -1.0190     -6.0670      1.5900     78.3900
     42      1.5680      0.3000     -6.3050      1.7700     78.3900
     43      0.5310      0.1970     -6.6990      0.0100     78.3900
     44      1.5610      1.1240     -5.0600      1.6800     78.3900
     45      2.3680      0.8100     -3.9860      1.7700     78.3900
     46      3.0170     -0.0520     -4.1280      0.0100     78.3900
     47      0.7310      2.2210     -5.0180      1.7700     78.3900
     48      0.0160      2.5520     -5.9580      1.5900     78.3900
     49      0.7510      2.9120     -3.8380      1.6800     78.3900
     50      0.1760      3.7490     -3.8340      0.0100     78.3900
     51      1.4880      2.6330     -2.7090      1.7700     78.3900
     52      1.3740      3.3380     -1.7090      1.5900     78.3900
     53      2.3410      1.4890     -2.8300      1.7700     78.3900
     54      2.9560      1.2010     -1.9800      0.0100     78.3900
     55      2.4510      0.8980     -7.3860      1.7700     78.3900
     56      2.6000      1.9840     -7.2390      0.0100     78.3900
     57      1.8990      0.6520     -8.6680      1.5900     78.3900
     58      2.5920      0.8290     -9.3210      0.0100     78.3900
     59      3.7580      0.1420     -7.1920      1.7700     78.3900
     60      4.2940      0.5120     -6.2870      0.0100     78.3900
     61      4.5940      0.0970     -8.3700      1.5900     78.3900
     62      5.7890      1.1110     -8.5340      2.1000     78.3900
     63      6.8340      0.7670     -7.5460      1.5900     78.3900
     64      6.1960      1.0940     -9.9550      1.5900     78.3900
     65      5.2010      2.5300     -8.1730      1.5900     78.3900
     66      4.3820      3.2570     -9.1230      1.7700     78.3900
     67      3.5000      2.6500     -9.4270      0.0100     78.3900
     68      4.9620      3.5020    -10.0430      0.0100     78.3900
     69      3.8660      4.5770     -8.5300      1.7700     78.3900
     70      3.1950      5.1050     -9.2420      0.0100     78.3900
     71      3.0860      4.2980     -7.3310      1.5900     78.3900
     72      3.3570      5.2700     -6.3410      1.7700     78.3900
     73      2.3620      5.6760     -6.0790      0.0100     78.3900
     74      3.9370      4.6740     -5.1250      1.6800     78.3900
     75      3.7710      5.1020     -3.8240      1.7700     78.3900
     76      2.4720      7.3250     -1.4880      1.6800     78.3900
     77      2.3970      7.3790     -0.4960      0.0100     78.3900
     78      1.9350      7.9650     -2.0480      0.0100     78.3900
     79      3.0390      6.1620     -3.4120      1.6800     78.3900
     80      3.0780      6.3130     -2.0870      1.7700     78.3900
     81      3.7480      5.4630     -1.2480      1.6800     78.3900
     82      3.7110      5.6370     -0.2620      0.0100     78.3900
     83      4.4880      4.3560     -1.6430      1.7700     78.3900
     84      5.0670      3.6370     -0.8220      1.5900     78.3900
     85      4.4830      4.2010     -3.0530      1.7700     78.3900
     86      5.0830      3.2330     -3.8440      1.6800     78.3900
     87      4.7330      3.5510     -5.0650      1.7700     78.3900
     88      5.0170      3.0000     -5.9600      0.0100     78.3900
     89      4.2340      6.3460     -6.9680      1.7700     78.3900
     90      4.9740      6.7720     -6.2550      0.0100     78.3900
     91      3.4240      7.3840     -7.5050      1.5900     78.3900
     92      3.0960      7.9450     -6.7870      0.0100     78.3900
     93      4.9480      5.5620     -8.0670      1.7700     78.3900
     94      5.7450      4.9310     -7.6070      0.0100     78.3900
     95      5.4100      6.3830     -9.1730      1.5900     78.3900
     96      6.9270      6.3010     -9.5810      2.1000     78.3900
     97      7.7330      6.0850     -8.3610      1.5900     78.3900
     98      7.0480      5.2920    -10.6560      1.5900     78.3900
     99      7.2760      7.7030    -10.2100      1.5900     78.3900
    100      8.5310      8.3600     -9.9170      1.7700     78.3900
    101      9.0490      8.6050    -10.8720      0.0100     78.3900
    102      9.2420      7.7050     -9.3470      0.0100     78.3900
    103      8.2940      9.6720     -9.1530      1.7700     78.3900
    104      7.7640     10.4140     -9.7860      0.0100     78.3900
    105      7.4580      9.4370     -7.9800      1.5900     78.3900
    106      7.9480     10.2000     -6.8910      1.7700     78.3900
    107      7.0900     10.7850     -6.4870      0.0100     78.3900
    108      8.4890      9.3390     -5.8340      1.6800     78.3900
    109      8.6960      9.6890     -4.5280      1.7700     78.3900
    110      8.4920     12.0120     -1.9690      1.6800     78.3900
    111      8.1560     12.8290     -2.4320      0.0100     78.3900
    112      8.6820     12.0550     -0.9830      0.0100     78.3900
    113      8.4410     10.8920     -3.9820      1.6800     78.3900
    114      8.6770     10.9110     -2.6740      1.7700     78.3900
    115      9.1430      9.8260     -1.9780      1.6800     78.3900
    116      9.2960      9.9210     -0.9850      0.0100     78.3900
    117      9.4350      8.5800     -2.5200      1.7700     78.3900
    118      9.8560      7.6470     -1.8270      1.5900     78.3900
    119      9.1980      8.5550     -3.9180      1.7700     78.3900
    120      9.3370      7.5190     -4.8330      1.6800     78.3900
    121      8.8870      8.0270     -5.9550      1.7700     78.3900
    122      8.8010      7.4960     -6.9050      0.0100     78.3900
    123      8.9900     11.1410     -7.4450      1.7700     78.3900
    124      9.7580     11.4120     -6.6940      0.0100     78.3900
    125      8.3650     12.3120     -7.9240      1.5900     78.3900
    126      9.0460     12.8280     -8.3700      0.0100     78.3900
    127      9.5730     10.3180     -8.5890      1.7700     78.3900
    128     10.2020      9.4910     -8.1880      0.0100     78.3900
    129     10.2440     11.0780     -9.6230      1.5900     78.3900
    130     11.7890     11.3710     -9.4900      2.1000     78.3900
    131     12.4880     10.0930     -9.2340      1.5900     78.3900
    132     12.2310     12.1370    -10.6740      1.5900     78.3900
    133     11.8880     12.2900     -8.2170      1.5900     78.3900
    134     11.4020     13.6530     -8.2880      1.7700     78.3900
    135     10.3380     13.6950     -8.6110      0.0100     78.3900
    136     11.9860     14.2400     -9.0330      0.0100     78.3900
    137     11.5360     14.3510     -6.9280      1.7700     78.3900
    138     11.1420     15.3880     -6.9670      0.0100     78.3900
    139     10.7750     13.6330     -5.9180      1.5900     78.3900
    140     11.4790     13.6630     -4.6880      1.7700     78.3900
    141     10.7940     14.1280     -3.9420      0.0100     78.3900
    142     11.8190     12.3040     -4.2470      1.6800     78.3900
    143     12.3620     10.5550     -3.0280      1.7700     78.3900
    144     12.1660     10.0810     -4.3160      1.6800     78.3900
    145     11.8420     11.1530     -4.9980      1.7700     78.3900
    146     11.6250     11.1730     -6.0670      0.0100     78.3900
    147     12.8560     10.6870     -0.7180      1.6800     78.3900
    148     12.6080     11.9980     -0.8200      1.7700     78.3900
    149     12.7350     12.5720      0.1050      0.0100     78.3900
    150     12.2660     12.7120     -1.8990      1.6800     78.3900
    151     12.1520     11.9230     -2.9750      1.7700     78.3900
    152     12.7230      9.9130     -1.8240      1.7700     78.3900
    153     12.9260      8.5870     -1.7240      1.6800     78.3900
    154     12.8350      7.9780     -2.5170      0.0100     78.3900
    155     13.1560      8.1720     -0.8400      0.0100     78.3900
    156     12.7040     14.5500     -4.8730      1.7700     78.3900
    157     13.5700     14.2010     -4.2710      0.0100     78.3900
    158     12.3840     15.8880     -4.5290      1.5900     78.3900
    159     13.1180     16.4700     -4.7960      0.0100     78.3900
    160     12.9650     14.3940     -6.3690      1.7700     78.3900
    161     13.4490     13.4160     -6.5820      0.0100     78.3900
    162     13.7080     15.4750     -6.9640      1.5900     78.3900
    163     14.6270     15.4640     -6.6430      0.0100     78.3900
    164     14.4780      6.6760      7.8580      0.0100     78.3900
    165     14.1670      7.4570      7.3620      1.5900     78.3900
    166     14.5530      8.6170      8.1130      1.7700     78.3900
    167     15.6530      8.5950      8.2760      0.0100     78.3900
    168     14.0660      8.5800      9.1120      0.0100     78.3900
    169     14.1870      9.9440      7.4310      1.7700     78.3900
    170     14.3920     10.8000      8.1120      0.0100     78.3900
    171     15.0220     10.1360      6.2460      1.5900     78.3900
    172     14.2460     10.7210      5.2100      1.7700     78.3900
    173     14.7950     11.6410      4.9000      0.0100     78.3900
    174     14.0780      9.7990      4.0460      1.6800     78.3900
    175     14.2940      8.4420      4.1720      1.7700     78.3900
    176     14.6030      8.1020      5.1610      0.0100     78.3900
    177     13.7290     10.3430      2.8280      1.7700     78.3900
    178     13.5530     11.5470      2.6670      1.5900     78.3900
    179     13.6010      9.4390      1.8050      1.6800     78.3900
    180     13.3690      9.8400      0.9030      0.0100     78.3900
    181     13.8710      8.0880      1.8410      1.7700     78.3900
    182     13.7950      7.4160      0.8130      1.5900     78.3900
    183     14.2150      7.5920      3.1380      1.7700     78.3900
    184     14.4350      6.5350      3.2570      0.0100     78.3900
    185     12.9150     11.1170      5.8250      1.7700     78.3900
    186     12.0900     11.0830      5.0880      0.0100     78.3900
    187     12.9980     12.4180      6.3750      1.5900     78.3900
    188     12.1500     12.6010      6.7980      0.0100     78.3900
    189     12.7470     10.0570      6.9070      1.7700     78.3900
    190     12.5010      9.0740      6.4410      0.0100     78.3900
    191     11.8540     10.4180      7.9870      1.5900     78.3900
    192     10.3510      9.9460      7.9320      2.1000     78.3900
    193     10.2960      8.5240      7.5330      1.5900     78.3900
    194      9.7130     10.2980      9.2200      1.5900     78.3900
    195      9.7230     10.8350      6.7920      1.5900     78.3900
    196      9.5740     12.2610      7.0140      1.7700     78.3900
    197     10.5390     12.7270      7.3150      0.0100     78.3900
    198      8.8440     12.4530      7.8360      0.0100     78.3900
    199      9.0710     12.9890      5.7560      1.7700     78.3900
    200      8.9440     14.0780      5.9620      0.0100     78.3900
    201     10.0550     12.8710      4.6890      1.5900     78.3900
    202      9.3770     12.7000      3.4450      1.7700     78.3900
    203      9.7460     13.5180      2.7830      0.0100     78.3900
    204      9.6650     11.3910      2.7960      1.6800     78.3900
    205     10.1380     10.3380      3.5400      1.7700     78.3900
    206     10.2870     10.5380      4.6010      0.0100     78.3900
    207     10.4280      9.1580      2.9790      1.7700     78.3900
    208     10.8470      8.3310      3.5500      0.0100     78.3900
    209      9.4140     11.2110      1.4380      1.7700     78.3900
    210      8.9570     12.1550      0.7760      1.5900     78.3900
    211      9.6760     10.0190      0.8580      1.6800     78.3900
    212     10.1880      9.0110      1.5850      1.7700     78.3900
    213     10.4860      7.8640      0.9790      1.6800     78.3900
    214     10.3160      7.7790     -0.0060      0.0100     78.3900
    215     10.8630      7.0820      1.4710      0.0100     78.3900
    216      7.8980     12.9000      3.6990      1.7700     78.3900
    217      7.2640     12.2890      3.0200      0.0100     78.3900
    218      7.5550     14.2680      3.5650      1.5900     78.3900
    219      6.6340     14.3540      3.8580      0.0100     78.3900
    220      7.7690     12.4340      5.1460      1.7700     78.3900
    221      7.8280     11.3220      5.2050      0.0100     78.3900
    222      6.6270     12.9580      5.8600      1.5900     78.3900
    223      5.2080     12.3030      5.6580      2.1000     78.3900
    224      5.3000     10.8600      5.9670      1.5900     78.3900
    225      4.2170     13.0810      6.4300      1.5900     78.3900
    226      4.9090     12.4980      4.1220      1.5900     78.3900
    227      3.9040     11.6830      3.4760      1.7700     78.3900
    228      2.9170     11.7890      3.9840      0.0100     78.3900
    229      4.1950     10.6060      3.5100      0.0100     78.3900
    230      3.7310     12.0720      2.0000      1.7700     78.3900
    231      3.4870     13.1520      1.9000      0.0100     78.3900
    232      4.9740     11.8340      1.2770      1.5900     78.3900
    233      4.6880     11.3590     -0.0290      1.7700     78.3900
    234      5.1690     12.0740     -0.7370      0.0100     78.3900
    235      5.2570     10.0190     -0.2430      1.6800     78.3900
    236      6.0420      8.1720     -1.1440      1.7700     78.3900
    237      6.2090      8.0340      0.2280      1.6800     78.3900
    238      5.7350      9.1540      0.7160      1.7700     78.3900
    239      5.7050      9.4160      1.7770      0.0100     78.3900
    240      6.0800      7.7700     -3.4730      1.6800     78.3900
    241      5.4880      8.9580     -3.6110      1.7700     78.3900
    242      5.2800      9.2570     -4.6430      0.0100     78.3900
    243      5.1360      9.8460     -2.6720      1.6800     78.3900
    244      5.4490      9.3860     -1.4490      1.7700     78.3900
    245      6.3800      7.3340     -2.2270      1.7700     78.3900
    246      6.9920      6.1460     -2.0880      1.6800     78.3900
    247      7.2850      5.7810     -1.2000      0.0100     78.3900
    248      7.2450      5.6360     -2.9080      0.0100     78.3900
    249      3.1790     11.3940     -0.2170      1.7700     78.3900
    250      2.8140     10.5520     -0.8460      0.0100     78.3900
    251      2.7810     12.6240     -0.7950      1.5900     78.3900
    252      1.8210     12.6890     -0.6930      0.0100     78.3900
    253      2.6860     11.2570      1.2200      1.7700     78.3900
    254      2.8310     10.2000      1.5470      0.0100     78.3900
    255      1.3460     11.7660      1.4570      1.5900     78.3900
    256      0.1940     10.7570      1.8610      2.1000     78.3900
    257      0.5900      9.3810      1.4780      1.5900     78.3900
    258     -0.2140     10.9510      3.2710      1.5900     78.3900
    259     -1.0150     11.1750      0.9480      1.5900     78.3900
    260     -1.6220     12.4900      0.9460      1.7700     78.3900
    261     -0.9930     13.2450      1.4720      0.0100     78.3900
    262     -2.6030     12.4590      1.4690      0.0100     78.3900
    263     -1.8910     13.0170     -0.4740      1.7700     78.3900
    264     -2.2300     14.0730     -0.4430      0.0100     78.3900
    265     -0.6520     12.9810     -1.2340      1.5900     78.3900
    266     -0.9260     12.6190     -2.5720      1.7700     78.3900
    267     -0.5170     13.4340     -3.2100      0.0100     78.3900
    268     -0.2610     11.3670     -2.9230      1.6800     78.3900
    269      0.6490      9.7310     -4.0570      1.7700     78.3900
    270      0.8420      9.4210     -2.7190      1.6800     78.3900
    271      0.2770     10.4180     -2.0860      1.7700     78.3900
    272      0.2330     10.5280     -1.0020      0.0100     78.3900
    273      0.6220      9.6180     -6.4200      1.6800     78.3900
    274     -0.0500     10.7710     -6.3930      1.7700     78.3900
    275     -0.3270     11.1740     -7.3730      0.0100     78.3900
    276     -0.4130     11.5100     -5.3390      1.6800     78.3900
    277     -0.0320     10.9230     -4.1940      1.7700     78.3900
    278      0.9950      9.0640     -5.2430      1.7700     78.3900
    279      1.6610      7.9090     -5.2820      1.6800     78.3900
    280      2.0230      7.4460     -4.4600      0.0100     78.3900
    281      1.5840      7.3720     -6.1180      0.0100     78.3900
    282     -2.4270     12.5460     -2.7510      1.7700     78.3900
    283     -2.7310     11.7440     -3.4540      0.0100     78.3900
    284     -2.9170     13.7920     -3.2080      1.5900     78.3900
    285     -3.8810     13.7810     -3.1090      0.0100     78.3900
    286     -2.9000     12.2340     -1.3380      1.7700     78.3900
    287     -2.7240     11.1570     -1.1150      0.0100     78.3900
    288     -4.2600     12.6650     -1.0790      1.5900     78.3900
    289     -5.3720     11.6110     -0.7110      2.1000     78.3900
    290     -4.8420     10.7090      0.3360      1.5900     78.3900
    291     -6.6270     12.3220     -0.3740      1.5900     78.3900
    292     -5.5860     10.8140     -2.0480      1.5900     78.3900
    293     -6.0540     11.4600     -3.2540      1.7700     78.3900
    294     -5.5600     12.4480     -3.4150      0.0100     78.3900
    295     -7.1500     11.6380     -3.1910      0.0100     78.3900
    296     -5.7900     10.6000     -4.5020      1.7700     78.3900
    297     -6.1720     11.1010     -5.4170      0.0100     78.3900
    298     -4.3510     10.4350     -4.6690      1.5900     78.3900
    299     -4.0650      9.1180     -5.1040      1.7700     78.3900
    300     -3.4430      9.2060     -6.0250      0.0100     78.3900
    301     -3.3190      8.3800     -4.0750      1.6800     78.3900
    302     -1.9610      7.0010     -3.0320      1.7700     78.3900
    303     -2.5600      7.7720     -2.0490      1.6800     78.3900
    304     -3.3430      8.5740     -2.7140      1.7700     78.3900
    305     -3.9600      9.3400     -2.2570      0.0100     78.3900
    306     -0.6560      5.3800     -4.1450      1.6800     78.3900
    307     -1.2130      5.8170     -5.2780      1.7700     78.3900
    308     -0.8870      5.2970     -6.1840      0.0100     78.3900
    309     -2.1060      6.7970     -5.4560      1.6800     78.3900
    310     -2.4320      7.3570     -4.2850      1.7700     78.3900
    311     -1.0070      5.9660     -2.9750      1.7700     78.3900
    312     -0.4520      5.5330     -1.8280      1.6800     78.3900
    313     -0.7150      5.9150     -0.9350      0.0100     78.3900
    314      0.2250      4.7940     -1.8350      0.0100     78.3900
    315     -5.3830      8.4630     -5.4500      1.7700     78.3900
    316     -5.3680      7.3670     -5.2900      0.0100     78.3900
    317     -5.7190      8.7360     -6.7970      1.5900     78.3900
    318     -6.6110      8.3940     -6.9410      0.0100     78.3900
    319     -6.3320      9.1600     -4.4790      1.7700     78.3900
    320     -6.1600      8.7880     -3.4420      0.0100     78.3900
    321     -7.7240      9.1380     -4.8780      1.5900     78.3900
    322     -8.6760      8.0710     -4.2080      2.1000     78.3900
    323     -8.3680      7.9820     -2.7680      1.5900     78.3900
    324    -10.0820      8.3630     -4.5610      1.5900     78.3900
    325     -8.2490      6.7110     -4.8820      1.5900     78.3900
    326     -8.4360      6.5150     -6.3030      1.7700     78.3900
    327     -7.9970      7.3510     -6.8940      0.0100     78.3900
    328     -9.5250      6.4660     -6.5460      0.0100     78.3900
    329     -7.7880      5.2070     -6.7830      1.7700     78.3900
    330     -8.0050      5.0400     -7.8630      0.0100     78.3900
    331     -6.3380      5.2810     -6.6460      1.5900     78.3900
    332     -5.8350      4.0130     -6.2410      1.7700     78.3900
    333     -5.0810      3.7170     -7.0090      0.0100     78.3900
    334     -5.1950      4.0800     -4.8890      1.6800     78.3900
    335     -5.4820      5.1040     -4.0130      1.7700     78.3900
    336     -6.2150      5.8250     -4.3690      0.0100     78.3900
    337     -4.3260      3.0760     -4.5260      1.7700     78.3900
    338     -4.0730      2.1250     -5.2580      1.5900     78.3900
    339     -3.7770      3.2040     -3.2770      1.6800     78.3900
    340     -3.1200      2.4790     -3.0140      0.0100     78.3900
    341     -4.0040      4.2070     -2.3590      1.7700     78.3900
    342     -3.4480      4.1760     -1.2630      1.5900     78.3900
    343     -4.9120      5.2190     -2.8060      1.7700     78.3900
    344     -5.1450      6.0440     -2.1340      0.0100     78.3900
    345     -7.0010      3.0310     -6.2830      1.7700     78.3900
    346     -6.9120      2.2590     -5.4890      0.0100     78.3900
    347     -7.0840      2.4020     -7.5560      1.5900     78.3900
    348     -7.9200      1.9020     -7.6140      0.0100     78.3900
    349     -8.1840      3.9500     -6.0040      1.7700     78.3900
    350     -8.2200      4.2090     -4.9250      0.0100     78.3900
    351     -9.4570      3.4530     -6.4510      1.5900     78.3900
    352     -9.6970      2.6450     -5.9590      0.0100     78.3900

     ----------------------------
     INPUT FOR TESSERA DEFINITION
     ----------------------------
     NTSALL  =        60     MTHALL  =         4
     MTHAUT  =         0     AUTFRE  =    2.0000
     NTSFRZ  =        60     KEEPSM  =         0
     AREAKP  =   10.0000     BONDRY  =    1.0000
     AREATL  =    0.0100

     SPHERE     INITS       METHOD
          1        60       FIXPVA
          2        60       FIXPVA
          3        60       FIXPVA
          4        60       FIXPVA
          5        60       FIXPVA
          6        60       FIXPVA
          7        60       FIXPVA
          8        60       FIXPVA
          9        60       FIXPVA
         10        60       FIXPVA
         11        60       FIXPVA
         12        60       FIXPVA
         13        60       FIXPVA
         14        60       FIXPVA
         15        60       FIXPVA
         16        60       FIXPVA
         17        60       FIXPVA
         18        60       FIXPVA
         19        60       FIXPVA
         20        60       FIXPVA
         21        60       FIXPVA
         22        60       FIXPVA
         23        60       FIXPVA
         24        60       FIXPVA
         25        60       FIXPVA
         26        60       FIXPVA
         27        60       FIXPVA
         28        60       FIXPVA
         29        60       FIXPVA
         30        60       FIXPVA
         31        60       FIXPVA
         32        60       FIXPVA
         33        60       FIXPVA
         34        60       FIXPVA
         35        60       FIXPVA
         36        60       FIXPVA
         37        60       FIXPVA
         38        60       FIXPVA
         39        60       FIXPVA
         40        60       FIXPVA
         41        60       FIXPVA
         42        60       FIXPVA
         43        60       FIXPVA
         44        60       FIXPVA
         45        60       FIXPVA
         46        60       FIXPVA
         47        60       FIXPVA
         48        60       FIXPVA
         49        60       FIXPVA
         50        60       FIXPVA
         51        60       FIXPVA
         52        60       FIXPVA
         53        60       FIXPVA
         54        60       FIXPVA
         55        60       FIXPVA
         56        60       FIXPVA
         57        60       FIXPVA
         58        60       FIXPVA
         59        60       FIXPVA
         60        60       FIXPVA
         61        60       FIXPVA
         62        60       FIXPVA
         63        60       FIXPVA
         64        60       FIXPVA
         65        60       FIXPVA
         66        60       FIXPVA
         67        60       FIXPVA
         68        60       FIXPVA
         69        60       FIXPVA
         70        60       FIXPVA
         71        60       FIXPVA
         72        60       FIXPVA
         73        60       FIXPVA
         74        60       FIXPVA
         75        60       FIXPVA
         76        60       FIXPVA
         77        60       FIXPVA
         78        60       FIXPVA
         79        60       FIXPVA
         80        60       FIXPVA
         81        60       FIXPVA
         82        60       FIXPVA
         83        60       FIXPVA
         84        60       FIXPVA
         85        60       FIXPVA
         86        60       FIXPVA
         87        60       FIXPVA
         88        60       FIXPVA
         89        60       FIXPVA
         90        60       FIXPVA
         91        60       FIXPVA
         92        60       FIXPVA
         93        60       FIXPVA
         94        60       FIXPVA
         95        60       FIXPVA
         96        60       FIXPVA
         97        60       FIXPVA
         98        60       FIXPVA
         99        60       FIXPVA
        100        60       FIXPVA
        101        60       FIXPVA
        102        60       FIXPVA
        103        60       FIXPVA
        104        60       FIXPVA
        105        60       FIXPVA
        106        60       FIXPVA
        107        60       FIXPVA
        108        60       FIXPVA
        109        60       FIXPVA
        110        60       FIXPVA
        111        60       FIXPVA
        112        60       FIXPVA
        113        60       FIXPVA
        114        60       FIXPVA
        115        60       FIXPVA
        116        60       FIXPVA
        117        60       FIXPVA
        118        60       FIXPVA
        119        60       FIXPVA
        120        60       FIXPVA
        121        60       FIXPVA
        122        60       FIXPVA
        123        60       FIXPVA
        124        60       FIXPVA
        125        60       FIXPVA
        126        60       FIXPVA
        127        60       FIXPVA
        128        60       FIXPVA
        129        60       FIXPVA
        130        60       FIXPVA
        131        60       FIXPVA
        132        60       FIXPVA
        133        60       FIXPVA
        134        60       FIXPVA
        135        60       FIXPVA
        136        60       FIXPVA
        137        60       FIXPVA
        138        60       FIXPVA
        139        60       FIXPVA
        140        60       FIXPVA
        141        60       FIXPVA
        142        60       FIXPVA
        143        60       FIXPVA
        144        60       FIXPVA
        145        60       FIXPVA
        146        60       FIXPVA
        147        60       FIXPVA
        148        60       FIXPVA
        149        60       FIXPVA
        150        60       FIXPVA
        151        60       FIXPVA
        152        60       FIXPVA
        153        60       FIXPVA
        154        60       FIXPVA
        155        60       FIXPVA
        156        60       FIXPVA
        157        60       FIXPVA
        158        60       FIXPVA
        159        60       FIXPVA
        160        60       FIXPVA
        161        60       FIXPVA
        162        60       FIXPVA
        163        60       FIXPVA
        164        60       FIXPVA
        165        60       FIXPVA
        166        60       FIXPVA
        167        60       FIXPVA
        168        60       FIXPVA
        169        60       FIXPVA
        170        60       FIXPVA
        171        60       FIXPVA
        172        60       FIXPVA
        173        60       FIXPVA
        174        60       FIXPVA
        175        60       FIXPVA
        176        60       FIXPVA
        177        60       FIXPVA
        178        60       FIXPVA
        179        60       FIXPVA
        180        60       FIXPVA
        181        60       FIXPVA
        182        60       FIXPVA
        183        60       FIXPVA
        184        60       FIXPVA
        185        60       FIXPVA
        186        60       FIXPVA
        187        60       FIXPVA
        188        60       FIXPVA
        189        60       FIXPVA
        190        60       FIXPVA
        191        60       FIXPVA
        192        60       FIXPVA
        193        60       FIXPVA
        194        60       FIXPVA
        195        60       FIXPVA
        196        60       FIXPVA
        197        60       FIXPVA
        198        60       FIXPVA
        199        60       FIXPVA
        200        60       FIXPVA
        201        60       FIXPVA
        202        60       FIXPVA
        203        60       FIXPVA
        204        60       FIXPVA
        205        60       FIXPVA
        206        60       FIXPVA
        207        60       FIXPVA
        208        60       FIXPVA
        209        60       FIXPVA
        210        60       FIXPVA
        211        60       FIXPVA
        212        60       FIXPVA
        213        60       FIXPVA
        214        60       FIXPVA
        215        60       FIXPVA
        216        60       FIXPVA
        217        60       FIXPVA
        218        60       FIXPVA
        219        60       FIXPVA
        220        60       FIXPVA
        221        60       FIXPVA
        222        60       FIXPVA
        223        60       FIXPVA
        224        60       FIXPVA
        225        60       FIXPVA
        226        60       FIXPVA
        227        60       FIXPVA
        228        60       FIXPVA
        229        60       FIXPVA
        230        60       FIXPVA
        231        60       FIXPVA
        232        60       FIXPVA
        233        60       FIXPVA
        234        60       FIXPVA
        235        60       FIXPVA
        236        60       FIXPVA
        237        60       FIXPVA
        238        60       FIXPVA
        239        60       FIXPVA
        240        60       FIXPVA
        241        60       FIXPVA
        242        60       FIXPVA
        243        60       FIXPVA
        244        60       FIXPVA
        245        60       FIXPVA
        246        60       FIXPVA
        247        60       FIXPVA
        248        60       FIXPVA
        249        60       FIXPVA
        250        60       FIXPVA
        251        60       FIXPVA
        252        60       FIXPVA
        253        60       FIXPVA
        254        60       FIXPVA
        255        60       FIXPVA
        256        60       FIXPVA
        257        60       FIXPVA
        258        60       FIXPVA
        259        60       FIXPVA
        260        60       FIXPVA
        261        60       FIXPVA
        262        60       FIXPVA
        263        60       FIXPVA
        264        60       FIXPVA
        265        60       FIXPVA
        266        60       FIXPVA
        267        60       FIXPVA
        268        60       FIXPVA
        269        60       FIXPVA
        270        60       FIXPVA
        271        60       FIXPVA
        272        60       FIXPVA
        273        60       FIXPVA
        274        60       FIXPVA
        275        60       FIXPVA
        276        60       FIXPVA
        277        60       FIXPVA
        278        60       FIXPVA
        279        60       FIXPVA
        280        60       FIXPVA
        281        60       FIXPVA
        282        60       FIXPVA
        283        60       FIXPVA
        284        60       FIXPVA
        285        60       FIXPVA
        286        60       FIXPVA
        287        60       FIXPVA
        288        60       FIXPVA
        289        60       FIXPVA
        290        60       FIXPVA
        291        60       FIXPVA
        292        60       FIXPVA
        293        60       FIXPVA
        294        60       FIXPVA
        295        60       FIXPVA
        296        60       FIXPVA
        297        60       FIXPVA
        298        60       FIXPVA
        299        60       FIXPVA
        300        60       FIXPVA
        301        60       FIXPVA
        302        60       FIXPVA
        303        60       FIXPVA
        304        60       FIXPVA
        305        60       FIXPVA
        306        60       FIXPVA
        307        60       FIXPVA
        308        60       FIXPVA
        309        60       FIXPVA
        310        60       FIXPVA
        311        60       FIXPVA
        312        60       FIXPVA
        313        60       FIXPVA
        314        60       FIXPVA
        315        60       FIXPVA
        316        60       FIXPVA
        317        60       FIXPVA
        318        60       FIXPVA
        319        60       FIXPVA
        320        60       FIXPVA
        321        60       FIXPVA
        322        60       FIXPVA
        323        60       FIXPVA
        324        60       FIXPVA
        325        60       FIXPVA
        326        60       FIXPVA
        327        60       FIXPVA
        328        60       FIXPVA
        329        60       FIXPVA
        330        60       FIXPVA
        331        60       FIXPVA
        332        60       FIXPVA
        333        60       FIXPVA
        334        60       FIXPVA
        335        60       FIXPVA
        336        60       FIXPVA
        337        60       FIXPVA
        338        60       FIXPVA
        339        60       FIXPVA
        340        60       FIXPVA
        341        60       FIXPVA
        342        60       FIXPVA
        343        60       FIXPVA
        344        60       FIXPVA
        345        60       FIXPVA
        346        60       FIXPVA
        347        60       FIXPVA
        348        60       FIXPVA
        349        60       FIXPVA
        350        60       FIXPVA
        351        60       FIXPVA
        352        60       FIXPVA

     ------------------------------
      FIXPVA TESSELLATION FOR PCM
         PEIFENG SU AND HUI LI
     UNIVERSITY OF NEBRASKA-LINCOLN
     ------------------------------


 PCM DIMENSIONS: MXSP=   352, MXTS=     14080, MEMORY=        144675

     INPUT FOR CAVITY DEFINITION 
     ---------------------------
   ATOM               COORDINATES                RADIUS       EPS
      1      4.2570     -3.4030      1.3150      0.0100     78.3900
      2      3.7390     -3.2340      0.5030      1.5900     78.3900
      3      3.7410     -4.4400     -0.2780      1.7700     78.3900
      4      3.3170     -5.2690      0.3300      0.0100     78.3900
      5      4.7860     -4.7170     -0.5460      0.0100     78.3900
      6      2.9280     -4.3050     -1.5680      1.7700     78.3900
      7      2.9720     -5.2350     -2.1700      0.0100     78.3900
      8      1.5280     -4.0540     -1.2490      1.5900     78.3900
      9      0.9890     -3.1470     -2.1950      1.7700     78.3900
     10      0.1070     -3.6590     -2.6520      0.0100     78.3900
     11      0.5480     -1.9070     -1.5460      1.6800     78.3900
     12     -0.4720     -0.0130     -1.0930      1.7700     78.3900
     13      0.3070     -0.3070      0.0190      1.6800     78.3900
     14      0.8900     -1.4410     -0.2970      1.7700     78.3900
     15      1.5860     -1.9930      0.3390      0.0100     78.3900
     16     -1.9680      1.0490     -2.5920      1.6800     78.3900
     17     -1.7010      0.0500     -3.4410      1.7700     78.3900
     18     -2.2240      0.1000     -4.4030      0.0100     78.3900
     19     -0.9080     -1.0150     -3.2730      1.6800     78.3900
     20     -0.3220     -0.9850     -2.0670      1.7700     78.3900
     21     -1.3560      1.0500     -1.3790      1.7700     78.3900
     22     -1.6220      2.0480     -0.5140      1.6800     78.3900
     23     -1.2070      2.0780      0.4030      0.0100     78.3900
     24     -2.2490      2.7880     -0.7690      0.0100     78.3900
     25      2.0460     -2.9100     -3.2510      1.7700     78.3900
     26      1.9990     -1.8910     -3.6860      0.0100     78.3900
     27      1.9040     -3.8780     -4.2690      1.5900     78.3900
     28      2.6310     -3.7460     -4.8900      0.0100     78.3900
     29      3.3330     -3.1230     -2.4600      1.7700     78.3900
     30      3.5180     -2.2540     -1.7860      0.0100     78.3900
     31      4.4940     -3.4790     -3.2490      1.5900     78.3900
     32      5.4550     -2.3370     -3.7610      2.1000     78.3900
     33      5.7590     -1.4390     -2.6290      1.5900     78.3900
     34      6.6160     -2.9560     -4.4380      1.5900     78.3900
     35      4.5910     -1.5520     -4.8090      1.5900     78.3900
     36      4.2200     -2.1460     -6.0700      1.7700     78.3900
     37      3.7520     -3.1450     -5.9260      0.0100     78.3900
     38      5.1240     -2.2920     -6.7010      0.0100     78.3900
     39      3.2400     -1.2600     -6.8520      1.7700     78.3900
     40      2.9230     -1.7580     -7.7940      0.0100     78.3900
     41      2.0360     -1.0190     -6.0670      1.5900     78.3900
     42      1.5680      0.3000     -6.3050      1.7700     78.3900
     43      0.5310      0.1970     -6.6990      0.0100     78.3900
     44      1.5610      1.1240     -5.0600      1.6800     78.3900
     45      2.3680      0.8100     -3.9860      1.7700     78.3900
     46      3.0170     -0.0520     -4.1280      0.0100     78.3900
     47      0.7310      2.2210     -5.0180      1.7700     78.3900
     48      0.0160      2.5520     -5.9580      1.5900     78.3900
     49      0.7510      2.9120     -3.8380      1.6800     78.3900
     50      0.1760      3.7490     -3.8340      0.0100     78.3900
     51      1.4880      2.6330     -2.7090      1.7700     78.3900
     52      1.3740      3.3380     -1.7090      1.5900     78.3900
     53      2.3410      1.4890     -2.8300      1.7700     78.3900
     54      2.9560      1.2010     -1.9800      0.0100     78.3900
     55      2.4510      0.8980     -7.3860      1.7700     78.3900
     56      2.6000      1.9840     -7.2390      0.0100     78.3900
     57      1.8990      0.6520     -8.6680      1.5900     78.3900
     58      2.5920      0.8290     -9.3210      0.0100     78.3900
     59      3.7580      0.1420     -7.1920      1.7700     78.3900
     60      4.2940      0.5120     -6.2870      0.0100     78.3900
     61      4.5940      0.0970     -8.3700      1.5900     78.3900
     62      5.7890      1.1110     -8.5340      2.1000     78.3900
     63      6.8340      0.7670     -7.5460      1.5900     78.3900
     64      6.1960      1.0940     -9.9550      1.5900     78.3900
     65      5.2010      2.5300     -8.1730      1.5900     78.3900
     66      4.3820      3.2570     -9.1230      1.7700     78.3900
     67      3.5000      2.6500     -9.4270      0.0100     78.3900
     68      4.9620      3.5020    -10.0430      0.0100     78.3900
     69      3.8660      4.5770     -8.5300      1.7700     78.3900
     70      3.1950      5.1050     -9.2420      0.0100     78.3900
     71      3.0860      4.2980     -7.3310      1.5900     78.3900
     72      3.3570      5.2700     -6.3410      1.7700     78.3900
     73      2.3620      5.6760     -6.0790      0.0100     78.3900
     74      3.9370      4.6740     -5.1250      1.6800     78.3900
     75      3.7710      5.1020     -3.8240      1.7700     78.3900
     76      2.4720      7.3250     -1.4880      1.6800     78.3900
     77      2.3970      7.3790     -0.4960      0.0100     78.3900
     78      1.9350      7.9650     -2.0480      0.0100     78.3900
     79      3.0390      6.1620     -3.4120      1.6800     78.3900
     80      3.0780      6.3130     -2.0870      1.7700     78.3900
     81      3.7480      5.4630     -1.2480      1.6800     78.3900
     82      3.7110      5.6370     -0.2620      0.0100     78.3900
     83      4.4880      4.3560     -1.6430      1.7700     78.3900
     84      5.0670      3.6370     -0.8220      1.5900     78.3900
     85      4.4830      4.2010     -3.0530      1.7700     78.3900
     86      5.0830      3.2330     -3.8440      1.6800     78.3900
     87      4.7330      3.5510     -5.0650      1.7700     78.3900
     88      5.0170      3.0000     -5.9600      0.0100     78.3900
     89      4.2340      6.3460     -6.9680      1.7700     78.3900
     90      4.9740      6.7720     -6.2550      0.0100     78.3900
     91      3.4240      7.3840     -7.5050      1.5900     78.3900
     92      3.0960      7.9450     -6.7870      0.0100     78.3900
     93      4.9480      5.5620     -8.0670      1.7700     78.3900
     94      5.7450      4.9310     -7.6070      0.0100     78.3900
     95      5.4100      6.3830     -9.1730      1.5900     78.3900
     96      6.9270      6.3010     -9.5810      2.1000     78.3900
     97      7.7330      6.0850     -8.3610      1.5900     78.3900
     98      7.0480      5.2920    -10.6560      1.5900     78.3900
     99      7.2760      7.7030    -10.2100      1.5900     78.3900
    100      8.5310      8.3600     -9.9170      1.7700     78.3900
    101      9.0490      8.6050    -10.8720      0.0100     78.3900
    102      9.2420      7.7050     -9.3470      0.0100     78.3900
    103      8.2940      9.6720     -9.1530      1.7700     78.3900
    104      7.7640     10.4140     -9.7860      0.0100     78.3900
    105      7.4580      9.4370     -7.9800      1.5900     78.3900
    106      7.9480     10.2000     -6.8910      1.7700     78.3900
    107      7.0900     10.7850     -6.4870      0.0100     78.3900
    108      8.4890      9.3390     -5.8340      1.6800     78.3900
    109      8.6960      9.6890     -4.5280      1.7700     78.3900
    110      8.4920     12.0120     -1.9690      1.6800     78.3900
    111      8.1560     12.8290     -2.4320      0.0100     78.3900
    112      8.6820     12.0550     -0.9830      0.0100     78.3900
    113      8.4410     10.8920     -3.9820      1.6800     78.3900
    114      8.6770     10.9110     -2.6740      1.7700     78.3900
    115      9.1430      9.8260     -1.9780      1.6800     78.3900
    116      9.2960      9.9210     -0.9850      0.0100     78.3900
    117      9.4350      8.5800     -2.5200      1.7700     78.3900
    118      9.8560      7.6470     -1.8270      1.5900     78.3900
    119      9.1980      8.5550     -3.9180      1.7700     78.3900
    120      9.3370      7.5190     -4.8330      1.6800     78.3900
    121      8.8870      8.0270     -5.9550      1.7700     78.3900
    122      8.8010      7.4960     -6.9050      0.0100     78.3900
    123      8.9900     11.1410     -7.4450      1.7700     78.3900
    124      9.7580     11.4120     -6.6940      0.0100     78.3900
    125      8.3650     12.3120     -7.9240      1.5900     78.3900
    126      9.0460     12.8280     -8.3700      0.0100     78.3900
    127      9.5730     10.3180     -8.5890      1.7700     78.3900
    128     10.2020      9.4910     -8.1880      0.0100     78.3900
    129     10.2440     11.0780     -9.6230      1.5900     78.3900
    130     11.7890     11.3710     -9.4900      2.1000     78.3900
    131     12.4880     10.0930     -9.2340      1.5900     78.3900
    132     12.2310     12.1370    -10.6740      1.5900     78.3900
    133     11.8880     12.2900     -8.2170      1.5900     78.3900
    134     11.4020     13.6530     -8.2880      1.7700     78.3900
    135     10.3380     13.6950     -8.6110      0.0100     78.3900
    136     11.9860     14.2400     -9.0330      0.0100     78.3900
    137     11.5360     14.3510     -6.9280      1.7700     78.3900
    138     11.1420     15.3880     -6.9670      0.0100     78.3900
    139     10.7750     13.6330     -5.9180      1.5900     78.3900
    140     11.4790     13.6630     -4.6880      1.7700     78.3900
    141     10.7940     14.1280     -3.9420      0.0100     78.3900
    142     11.8190     12.3040     -4.2470      1.6800     78.3900
    143     12.3620     10.5550     -3.0280      1.7700     78.3900
    144     12.1660     10.0810     -4.3160      1.6800     78.3900
    145     11.8420     11.1530     -4.9980      1.7700     78.3900
    146     11.6250     11.1730     -6.0670      0.0100     78.3900
    147     12.8560     10.6870     -0.7180      1.6800     78.3900
    148     12.6080     11.9980     -0.8200      1.7700     78.3900
    149     12.7350     12.5720      0.1050      0.0100     78.3900
    150     12.2660     12.7120     -1.8990      1.6800     78.3900
    151     12.1520     11.9230     -2.9750      1.7700     78.3900
    152     12.7230      9.9130     -1.8240      1.7700     78.3900
    153     12.9260      8.5870     -1.7240      1.6800     78.3900
    154     12.8350      7.9780     -2.5170      0.0100     78.3900
    155     13.1560      8.1720     -0.8400      0.0100     78.3900
    156     12.7040     14.5500     -4.8730      1.7700     78.3900
    157     13.5700     14.2010     -4.2710      0.0100     78.3900
    158     12.3840     15.8880     -4.5290      1.5900     78.3900
    159     13.1180     16.4700     -4.7960      0.0100     78.3900
    160     12.9650     14.3940     -6.3690      1.7700     78.3900
    161     13.4490     13.4160     -6.5820      0.0100     78.3900
    162     13.7080     15.4750     -6.9640      1.5900     78.3900
    163     14.6270     15.4640     -6.6430      0.0100     78.3900
    164     14.4780      6.6760      7.8580      0.0100     78.3900
    165     14.1670      7.4570      7.3620      1.5900     78.3900
    166     14.5530      8.6170      8.1130      1.7700     78.3900
    167     15.6530      8.5950      8.2760      0.0100     78.3900
    168     14.0660      8.5800      9.1120      0.0100     78.3900
    169     14.1870      9.9440      7.4310      1.7700     78.3900
    170     14.3920     10.8000      8.1120      0.0100     78.3900
    171     15.0220     10.1360      6.2460      1.5900     78.3900
    172     14.2460     10.7210      5.2100      1.7700     78.3900
    173     14.7950     11.6410      4.9000      0.0100     78.3900
    174     14.0780      9.7990      4.0460      1.6800     78.3900
    175     14.2940      8.4420      4.1720      1.7700     78.3900
    176     14.6030      8.1020      5.1610      0.0100     78.3900
    177     13.7290     10.3430      2.8280      1.7700     78.3900
    178     13.5530     11.5470      2.6670      1.5900     78.3900
    179     13.6010      9.4390      1.8050      1.6800     78.3900
    180     13.3690      9.8400      0.9030      0.0100     78.3900
    181     13.8710      8.0880      1.8410      1.7700     78.3900
    182     13.7950      7.4160      0.8130      1.5900     78.3900
    183     14.2150      7.5920      3.1380      1.7700     78.3900
    184     14.4350      6.5350      3.2570      0.0100     78.3900
    185     12.9150     11.1170      5.8250      1.7700     78.3900
    186     12.0900     11.0830      5.0880      0.0100     78.3900
    187     12.9980     12.4180      6.3750      1.5900     78.3900
    188     12.1500     12.6010      6.7980      0.0100     78.3900
    189     12.7470     10.0570      6.9070      1.7700     78.3900
    190     12.5010      9.0740      6.4410      0.0100     78.3900
    191     11.8540     10.4180      7.9870      1.5900     78.3900
    192     10.3510      9.9460      7.9320      2.1000     78.3900
    193     10.2960      8.5240      7.5330      1.5900     78.3900
    194      9.7130     10.2980      9.2200      1.5900     78.3900
    195      9.7230     10.8350      6.7920      1.5900     78.3900
    196      9.5740     12.2610      7.0140      1.7700     78.3900
    197     10.5390     12.7270      7.3150      0.0100     78.3900
    198      8.8440     12.4530      7.8360      0.0100     78.3900
    199      9.0710     12.9890      5.7560      1.7700     78.3900
    200      8.9440     14.0780      5.9620      0.0100     78.3900
    201     10.0550     12.8710      4.6890      1.5900     78.3900
    202      9.3770     12.7000      3.4450      1.7700     78.3900
    203      9.7460     13.5180      2.7830      0.0100     78.3900
    204      9.6650     11.3910      2.7960      1.6800     78.3900
    205     10.1380     10.3380      3.5400      1.7700     78.3900
    206     10.2870     10.5380      4.6010      0.0100     78.3900
    207     10.4280      9.1580      2.9790      1.7700     78.3900
    208     10.8470      8.3310      3.5500      0.0100     78.3900
    209      9.4140     11.2110      1.4380      1.7700     78.3900
    210      8.9570     12.1550      0.7760      1.5900     78.3900
    211      9.6760     10.0190      0.8580      1.6800     78.3900
    212     10.1880      9.0110      1.5850      1.7700     78.3900
    213     10.4860      7.8640      0.9790      1.6800     78.3900
    214     10.3160      7.7790     -0.0060      0.0100     78.3900
    215     10.8630      7.0820      1.4710      0.0100     78.3900
    216      7.8980     12.9000      3.6990      1.7700     78.3900
    217      7.2640     12.2890      3.0200      0.0100     78.3900
    218      7.5550     14.2680      3.5650      1.5900     78.3900
    219      6.6340     14.3540      3.8580      0.0100     78.3900
    220      7.7690     12.4340      5.1460      1.7700     78.3900
    221      7.8280     11.3220      5.2050      0.0100     78.3900
    222      6.6270     12.9580      5.8600      1.5900     78.3900
    223      5.2080     12.3030      5.6580      2.1000     78.3900
    224      5.3000     10.8600      5.9670      1.5900     78.3900
    225      4.2170     13.0810      6.4300      1.5900     78.3900
    226      4.9090     12.4980      4.1220      1.5900     78.3900
    227      3.9040     11.6830      3.4760      1.7700     78.3900
    228      2.9170     11.7890      3.9840      0.0100     78.3900
    229      4.1950     10.6060      3.5100      0.0100     78.3900
    230      3.7310     12.0720      2.0000      1.7700     78.3900
    231      3.4870     13.1520      1.9000      0.0100     78.3900
    232      4.9740     11.8340      1.2770      1.5900     78.3900
    233      4.6880     11.3590     -0.0290      1.7700     78.3900
    234      5.1690     12.0740     -0.7370      0.0100     78.3900
    235      5.2570     10.0190     -0.2430      1.6800     78.3900
    236      6.0420      8.1720     -1.1440      1.7700     78.3900
    237      6.2090      8.0340      0.2280      1.6800     78.3900
    238      5.7350      9.1540      0.7160      1.7700     78.3900
    239      5.7050      9.4160      1.7770      0.0100     78.3900
    240      6.0800      7.7700     -3.4730      1.6800     78.3900
    241      5.4880      8.9580     -3.6110      1.7700     78.3900
    242      5.2800      9.2570     -4.6430      0.0100     78.3900
    243      5.1360      9.8460     -2.6720      1.6800     78.3900
    244      5.4490      9.3860     -1.4490      1.7700     78.3900
    245      6.3800      7.3340     -2.2270      1.7700     78.3900
    246      6.9920      6.1460     -2.0880      1.6800     78.3900
    247      7.2850      5.7810     -1.2000      0.0100     78.3900
    248      7.2450      5.6360     -2.9080      0.0100     78.3900
    249      3.1790     11.3940     -0.2170      1.7700     78.3900
    250      2.8140     10.5520     -0.8460      0.0100     78.3900
    251      2.7810     12.6240     -0.7950      1.5900     78.3900
    252      1.8210     12.6890     -0.6930      0.0100     78.3900
    253      2.6860     11.2570      1.2200      1.7700     78.3900
    254      2.8310     10.2000      1.5470      0.0100     78.3900
    255      1.3460     11.7660      1.4570      1.5900     78.3900
    256      0.1940     10.7570      1.8610      2.1000     78.3900
    257      0.5900      9.3810      1.4780      1.5900     78.3900
    258     -0.2140     10.9510      3.2710      1.5900     78.3900
    259     -1.0150     11.1750      0.9480      1.5900     78.3900
    260     -1.6220     12.4900      0.9460      1.7700     78.3900
    261     -0.9930     13.2450      1.4720      0.0100     78.3900
    262     -2.6030     12.4590      1.4690      0.0100     78.3900
    263     -1.8910     13.0170     -0.4740      1.7700     78.3900
    264     -2.2300     14.0730     -0.4430      0.0100     78.3900
    265     -0.6520     12.9810     -1.2340      1.5900     78.3900
    266     -0.9260     12.6190     -2.5720      1.7700     78.3900
    267     -0.5170     13.4340     -3.2100      0.0100     78.3900
    268     -0.2610     11.3670     -2.9230      1.6800     78.3900
    269      0.6490      9.7310     -4.0570      1.7700     78.3900
    270      0.8420      9.4210     -2.7190      1.6800     78.3900
    271      0.2770     10.4180     -2.0860      1.7700     78.3900
    272      0.2330     10.5280     -1.0020      0.0100     78.3900
    273      0.6220      9.6180     -6.4200      1.6800     78.3900
    274     -0.0500     10.7710     -6.3930      1.7700     78.3900
    275     -0.3270     11.1740     -7.3730      0.0100     78.3900
    276     -0.4130     11.5100     -5.3390      1.6800     78.3900
    277     -0.0320     10.9230     -4.1940      1.7700     78.3900
    278      0.9950      9.0640     -5.2430      1.7700     78.3900
    279      1.6610      7.9090     -5.2820      1.6800     78.3900
    280      2.0230      7.4460     -4.4600      0.0100     78.3900
    281      1.5840      7.3720     -6.1180      0.0100     78.3900
    282     -2.4270     12.5460     -2.7510      1.7700     78.3900
    283     -2.7310     11.7440     -3.4540      0.0100     78.3900
    284     -2.9170     13.7920     -3.2080      1.5900     78.3900
    285     -3.8810     13.7810     -3.1090      0.0100     78.3900
    286     -2.9000     12.2340     -1.3380      1.7700     78.3900
    287     -2.7240     11.1570     -1.1150      0.0100     78.3900
    288     -4.2600     12.6650     -1.0790      1.5900     78.3900
    289     -5.3720     11.6110     -0.7110      2.1000     78.3900
    290     -4.8420     10.7090      0.3360      1.5900     78.3900
    291     -6.6270     12.3220     -0.3740      1.5900     78.3900
    292     -5.5860     10.8140     -2.0480      1.5900     78.3900
    293     -6.0540     11.4600     -3.2540      1.7700     78.3900
    294     -5.5600     12.4480     -3.4150      0.0100     78.3900
    295     -7.1500     11.6380     -3.1910      0.0100     78.3900
    296     -5.7900     10.6000     -4.5020      1.7700     78.3900
    297     -6.1720     11.1010     -5.4170      0.0100     78.3900
    298     -4.3510     10.4350     -4.6690      1.5900     78.3900
    299     -4.0650      9.1180     -5.1040      1.7700     78.3900
    300     -3.4430      9.2060     -6.0250      0.0100     78.3900
    301     -3.3190      8.3800     -4.0750      1.6800     78.3900
    302     -1.9610      7.0010     -3.0320      1.7700     78.3900
    303     -2.5600      7.7720     -2.0490      1.6800     78.3900
    304     -3.3430      8.5740     -2.7140      1.7700     78.3900
    305     -3.9600      9.3400     -2.2570      0.0100     78.3900
    306     -0.6560      5.3800     -4.1450      1.6800     78.3900
    307     -1.2130      5.8170     -5.2780      1.7700     78.3900
    308     -0.8870      5.2970     -6.1840      0.0100     78.3900
    309     -2.1060      6.7970     -5.4560      1.6800     78.3900
    310     -2.4320      7.3570     -4.2850      1.7700     78.3900
    311     -1.0070      5.9660     -2.9750      1.7700     78.3900
    312     -0.4520      5.5330     -1.8280      1.6800     78.3900
    313     -0.7150      5.9150     -0.9350      0.0100     78.3900
    314      0.2250      4.7940     -1.8350      0.0100     78.3900
    315     -5.3830      8.4630     -5.4500      1.7700     78.3900
    316     -5.3680      7.3670     -5.2900      0.0100     78.3900
    317     -5.7190      8.7360     -6.7970      1.5900     78.3900
    318     -6.6110      8.3940     -6.9410      0.0100     78.3900
    319     -6.3320      9.1600     -4.4790      1.7700     78.3900
    320     -6.1600      8.7880     -3.4420      0.0100     78.3900
    321     -7.7240      9.1380     -4.8780      1.5900     78.3900
    322     -8.6760      8.0710     -4.2080      2.1000     78.3900
    323     -8.3680      7.9820     -2.7680      1.5900     78.3900
    324    -10.0820      8.3630     -4.5610      1.5900     78.3900
[...]
   300   10   1.0   0.00    0.0    0.000000    0.257162    0.254159
   301   10   7.0   0.00    0.0    0.000000   -0.798375   -0.808645
   302   10   6.0   0.00    0.0    0.000001    0.063624    0.063112
   303   10   7.0   7.30   14.3    0.125680   -0.605065   -0.610775
   304   10   6.0   2.20    3.9    0.004836    0.278389    0.263498
   305   10   1.0   0.00    0.0    0.000000    0.295823    0.316976
   306   10   7.0   0.00    0.0    0.000064   -0.784794   -0.771854
   307   10   6.0   6.67   11.8   -0.040016    0.288569    0.291979
   308   10   1.0   0.00    0.0    0.000000    0.247089    0.240733
   309   10   7.0   5.45   10.7    0.090210   -0.665739   -0.671531
   310   10   6.0   0.00    0.0    0.000000    0.683560    0.688690
   311   10   6.0   0.00    0.0    0.000000    0.730720    0.732732
   312   10   7.0   8.68   17.0   -0.081379   -0.962000   -1.034859
   313   10   1.0   0.00    0.0    0.000000    0.440606    0.436961
   314   10   1.0   0.00    0.0    0.000000    0.439112    0.499838
   315   10   6.0   0.94    1.7    0.004858    0.149405    0.111537
   316   10   1.0   0.00    0.0    0.000000    0.181366    0.220505
   317   10   8.0  15.87   34.7    0.077619   -0.821143   -0.841154
   318   10   1.0   0.00    0.0    0.000000    0.496832    0.523661
   319   10   6.0   0.95    1.7   -0.014237    0.132196    0.096503
   320   10   1.0   0.00    0.0    0.000000    0.256415    0.258998
   321   10   8.0   3.92    8.6    0.052510   -0.798013   -0.803813
   322   10  15.0   9.11   11.4    0.115656    1.605980    1.658504
   323   10   8.0  13.56   29.6    0.309037   -0.891640   -0.889846
   324   10   8.0  17.37   38.0    0.361302   -0.887889   -0.883793
   325   10   8.0   2.50    5.5    0.033817   -0.974277   -0.788208
   326   11   6.0  12.24   21.6   -0.095295    0.201540   -0.026872
   327   11   1.0   0.00    0.0    0.000000    0.150803    0.168632
   328   11   1.0   0.00    0.0    0.000000    0.248719    0.230320
   329   11   6.0   5.68   10.0   -0.049782    0.090843    0.149320
   330   11   1.0   0.00    0.0    0.000000    0.255994    0.227857
   331   11   8.0   3.24    7.1    0.040390   -0.729126   -0.736226
   332   11   6.0   6.50   11.5   -0.051345    0.412618    0.412011
   333   11   1.0   0.00    0.0    0.000000    0.266336    0.264664
   334   11   7.0   0.00    0.0    0.000005   -0.831171   -0.838702
   335   11   6.0   3.35    5.9   -0.007792    0.189130    0.175759
   336   11   1.0   0.00    0.0    0.000000    0.307298    0.327376
   337   11   6.0   4.31    7.6   -0.014035    1.117328    1.117340
   338   11   8.0  12.20   26.7    0.169194   -0.684326   -0.689859
   339   11   7.0   0.94    1.8    0.003376   -0.933757   -1.014936
   340   11   1.0   0.00    0.0    0.000000    0.483804    0.544405
   341   11   6.0   2.29    4.0   -0.005383    0.882395    0.888206
   342   11   8.0  11.64   25.4    0.147584   -0.732657   -0.716983
   343   11   6.0   9.37   16.5   -0.032698   -0.448151   -0.448009
   344   11   1.0   0.00    0.0    0.000000    0.275961    0.274034
   345   11   6.0   7.01   12.4   -0.063815    0.118412    0.119339
   346   11   1.0   0.00    0.0    0.000000    0.228907    0.227576
   347   11   8.0  20.93   45.8    0.042503   -0.837853   -0.838953
   348   11   1.0   0.00    0.0    0.000000    0.502559    0.502230
   349   11   6.0   5.16    9.1   -0.059360    0.162875    0.145868
   350   11   1.0   0.00    0.0    0.000000    0.223342    0.225095
   351   11   8.0  22.65   49.5   -0.010439   -0.848802   -0.852678
   352   11   1.0   0.00    0.0    0.000000    0.508922    0.508034

 Done with FMO properties.
 CPU     0: STEP CPU TIME=     0.01 TOTAL CPU TIME=      17688.4 (    294.8 MIN)
 TOTAL WALL CLOCK TIME=      43339.2 SECONDS, CPU UTILIZATION IS    40.81%
 CPU     0: STEP CPU TIME=     0.00 TOTAL CPU TIME=      17688.4 (    294.8 MIN)
 TOTAL WALL CLOCK TIME=      43339.2 SECONDS, CPU UTILIZATION IS    40.81%

 Total timing statistics in pairs (CPU,wall) for each rank, sec

    Rank   total     SCF    corr     DFT    CPHF     EFP    solv     ESP    geom
 -------------------------------------------------------------------------------
       1   17688.4   5101.6   6871.2      0.0    0.0   0.0  161.4  5216.0    0.0
       1   43339.3  10974.9  20584.7      0.0    0.0   0.0  459.7 10496.0    0.0
       2   17775.6   5070.3   6998.0      0.0    0.0   0.0  161.5  5214.4    0.0
       2   43339.3  10958.8  20599.2      0.0    0.0   0.0  459.8 10495.3    0.0
       3   17761.7   5041.9   6969.2      0.0    0.0   0.0  163.4  5253.5    0.0
       3   43339.3  10958.7  20599.3      0.0    0.0   0.0  459.9 10495.4    0.0
       4   17528.9   5102.8   6711.2      0.0    0.0   0.0  162.0  5221.5    0.0
       4   43339.3  10959.9  20599.1      0.0    0.0   0.0  458.6 10495.2    0.0
       5   17431.4   5055.9   6681.8      0.0    0.0   0.0  161.0  5199.2    0.0
       5   43339.3  10959.5  20599.1      0.0    0.0   0.0  459.1 10495.4    0.0
       6   17519.3   5046.6   6776.2      0.0    0.0   0.0  162.0  5207.0    0.0
       6   43339.3  10960.0  20599.1      0.0    0.0   0.0  458.4 10495.3    0.0
       7   17814.6   5072.8   7054.1      0.0    0.0   0.0  161.3  5191.1    0.0
       7   43339.3  10960.1  20599.1      0.0    0.0   0.0  458.5 10495.2    0.0
       8   17597.4   5056.2   6862.6      0.0    0.0   0.0  160.8  5192.8    0.0
       8   43339.3  10960.6  20599.0      0.0    0.0   0.0  457.7 10495.2    0.0
       9   17482.2   5084.9   6746.1      0.0    0.0   0.0  158.5  5171.4    0.0
       9   43339.4  10960.3  20599.1      0.0    0.0   0.0  458.2 10495.2    0.0
      10   17618.4   5050.8   6905.4      0.0    0.0   0.0  159.7  5170.1    0.0
      10   43339.4  10960.2  20599.0      0.0    0.0   0.0  458.4 10495.2    0.0
      11   17678.9   5065.3   6941.9      0.0    0.0   0.0  159.2  5182.2    0.0
      11   43339.3  10960.7  20599.0      0.0    0.0   0.0  458.1 10495.1    0.0
      12   17430.1   5024.4   6734.4      0.0    0.0   0.0  159.8  5184.9    0.0
      12   43339.3  10961.0  20599.0      0.0    0.0   0.0  457.3 10495.0    0.0
      13   17617.2   5089.5   6888.4      0.0    0.0   0.0  159.5  5153.8    0.0
      13   43339.3  10961.9  20599.0      0.0    0.0   0.0  457.3 10495.0    0.0
      14   17714.7   5084.2   6939.9      0.0    0.0   0.0  160.0  5204.6    0.0
      14   43339.3  10961.0  20599.0      0.0    0.0   0.0  457.5 10494.9    0.0
      15   17543.2   5090.6   6799.3      0.0    0.0   0.0  159.7  5160.7    0.0
      15   43339.3  10960.7  20599.0      0.0    0.0   0.0  457.6 10494.9    0.0
      16   17558.9   5056.7   6807.5      0.0    0.0   0.0  160.0  5212.1    0.0
      16   43339.3  10961.7  20599.0      0.0    0.0   0.0  456.3 10494.7    0.0
averaged   17610.1   5068.4   6855.4      0.0    0.0   0.0  160.6  5196.0    0.0
averaged   43339.3  10961.2  20598.2      0.0    0.0   0.0  458.3 10495.2    0.0

  FMO  timing statistics in pairs (CPU,wall) for each rank, sec

    Rank  FMOini FMOscf1  FMOdm1 FMOsyn1 FMOscf2  FMOes2 FMOsyn2 FMOscf3 FMOsyn3
 -------------------------------------------------------------------------------
       1    2.2    6712.6    0.3    0.0   10735.6     237.5    0.0    0.0    0.0
       1    5.4   14128.8    0.7    0.0   28706.8     497.0    0.2    0.0    0.0
       2    1.6    6699.9    0.1    0.0   10837.7     236.3    0.0    0.0    0.0
       2    5.4   14128.7    0.7    0.0   28705.7     498.1    0.2    0.0    0.0
       3    1.9    6697.7    0.2    0.0   10826.7     235.3    0.0    0.0    0.0
       3    5.4   14128.8    0.7    0.0   28707.6     496.2    0.2    0.0    0.0
       4    1.7    6723.7    0.1    0.0   10568.5     235.0    0.0    0.0    0.0
       4    5.4   14128.8    0.7    0.0   28708.8     495.0    0.2    0.0    0.0
       5    2.0    6694.3    0.2    0.0   10498.8     236.1    0.0    0.0    0.0
       5    5.4   14128.8    0.7    0.0   28708.2     495.6    0.2    0.0    0.0
       6    1.7    6714.2    0.1    0.0   10570.7     232.5    0.0    0.0    0.0
       6    5.4   14128.8    0.7    0.0   28708.6     495.2    0.2    0.0    0.0
       7    1.9    6695.3    0.1    0.0   10879.1     238.2    0.0    0.0    0.0
       7    5.4   14128.8    0.7    0.0   28707.8     496.0    0.2    0.0    0.0
       8    1.6    6707.5    0.1    0.0   10657.0     231.3    0.0    0.0    0.0
       8    5.4   14128.8    0.7    0.0   28707.6     496.2    0.2    0.0    0.0
       9    1.9    6675.9    0.3    0.0   10578.2     225.9    0.0    0.0    0.0
       9    5.4   14128.8    0.7    0.0   28709.0     494.8    0.2    0.0    0.0
      10    1.5    6668.7    0.0    0.0   10709.6     238.5    0.0    0.0    0.0
      10    5.4   14128.8    0.7    0.0   28707.1     496.8    0.2    0.0    0.0
      11    1.7    6682.2    0.1    0.0   10760.1     234.7    0.0    0.0    0.0
      11    5.4   14128.8    0.7    0.0   28707.9     495.9    0.2    0.0    0.0
      12    1.5    6694.5    0.1    0.0   10501.0     233.1    0.0    0.0    0.0
      12    5.4   14128.8    0.7    0.0   28709.3     494.5    0.2    0.0    0.0
      13    1.8    6686.4    0.2    0.0   10698.5     230.2    0.0    0.0    0.0
      13    5.4   14128.8    0.7    0.0   28706.2     497.6    0.2    0.0    0.0
      14    1.5    6684.0    0.1    0.0   10796.4     232.7    0.0    0.0    0.0
      14    5.4   14128.8    0.7    0.0   28708.3     495.5    0.2    0.0    0.0
      15    1.6    6721.9    0.2    0.0   10581.4     238.1    0.0    0.0    0.0
      15    5.4   14128.8    0.7    0.0   28707.1     496.7    0.2    0.0    0.0
      16    1.5    6740.6    0.1    0.0   10587.0     229.6    0.0    0.0    0.0
      16    5.4   14128.8    0.7    0.0   28708.0     495.8    0.2    0.0    0.0
averaged    1.7    6700.0    0.1    0.0   10674.1     234.1    0.0    0.0    0.0
averaged    5.4   14128.8    0.7    0.0   28707.8     496.1    0.2    0.0    0.0
             62806209  WORDS OF DYNAMIC MEMORY USED
 EXECUTION OF GAMESS TERMINATED NORMALLY Fri Dec  6 11:27:02 2019
 DDI: 263640 bytes (0.3 MB / 0 MWords) used by master data server.

 ----------------------------------------
 CPU timing information for all processes
 ========================================
 0: 17256.124 + 432.426 = 17688.551
 1: 17387.939 + 387.824 = 17775.763
 2: 17356.245 + 405.601 = 17761.846
 3: 17147.04 + 382.69 = 17529.73
 4: 17037.993 + 393.478 = 17431.472
 5: 17136.395 + 382.960 = 17519.355
 6: 17400.486 + 414.249 = 17814.735
 7: 17204.438 + 393.94 = 17597.532
 8: 17068.259 + 414.20 = 17482.279
 9: 17228.129 + 390.435 = 17618.565
 10: 17288.76 + 390.903 = 17678.980
 11: 17055.791 + 374.412 = 17430.203
 12: 17214.145 + 403.118 = 17617.264
 13: 17325.130 + 389.637 = 17714.768
 14: 17154.785 + 388.550 = 17543.336
 15: 17183.465 + 375.496 = 17558.962
 ----------------------------------------
 ddikick.x: exited gracefully.
unset echo
----- accounting info -----
Files used on the master node gollum083.lsa.umich.edu were:
-rw-r--r-- 1 hazwong frank    17598 Dec  5 23:24 /scratch/hazwong/820702/2LHP_5/usrc/2LHP_5_fmo_input.F05
-rw-r--r-- 1 hazwong frank      634 Dec  6 11:27 /scratch/hazwong/820702/2LHP_5/usrc/2LHP_5_fmo_input.F06.001
-rw-r--r-- 1 hazwong frank      634 Dec  6 11:27 /scratch/hazwong/820702/2LHP_5/usrc/2LHP_5_fmo_input.F06.002
-rw-r--r-- 1 hazwong frank      634 Dec  6 11:27 /scratch/hazwong/820702/2LHP_5/usrc/2LHP_5_fmo_input.F06.003
-rw-r--r-- 1 hazwong frank      634 Dec  6 11:27 /scratch/hazwong/820702/2LHP_5/usrc/2LHP_5_fmo_input.F06.004
-rw-r--r-- 1 hazwong frank      634 Dec  6 11:27 /scratch/hazwong/820702/2LHP_5/usrc/2LHP_5_fmo_input.F06.005
-rw-r--r-- 1 hazwong frank      634 Dec  6 11:27 /scratch/hazwong/820702/2LHP_5/usrc/2LHP_5_fmo_input.F06.006
-rw-r--r-- 1 hazwong frank      634 Dec  6 11:27 /scratch/hazwong/820702/2LHP_5/usrc/2LHP_5_fmo_input.F06.007
-rw-r--r-- 1 hazwong frank      634 Dec  6 11:27 /scratch/hazwong/820702/2LHP_5/usrc/2LHP_5_fmo_input.F06.008
-rw-r--r-- 1 hazwong frank      634 Dec  6 11:27 /scratch/hazwong/820702/2LHP_5/usrc/2LHP_5_fmo_input.F06.009
-rw-r--r-- 1 hazwong frank      634 Dec  6 11:27 /scratch/hazwong/820702/2LHP_5/usrc/2LHP_5_fmo_input.F06.010
-rw-r--r-- 1 hazwong frank      634 Dec  6 11:27 /scratch/hazwong/820702/2LHP_5/usrc/2LHP_5_fmo_input.F06.011
-rw-r--r-- 1 hazwong frank      634 Dec  6 11:27 /scratch/hazwong/820702/2LHP_5/usrc/2LHP_5_fmo_input.F06.012
-rw-r--r-- 1 hazwong frank      634 Dec  6 11:27 /scratch/hazwong/820702/2LHP_5/usrc/2LHP_5_fmo_input.F06.013
-rw-r--r-- 1 hazwong frank      634 Dec  6 11:27 /scratch/hazwong/820702/2LHP_5/usrc/2LHP_5_fmo_input.F06.014
-rw-r--r-- 1 hazwong frank      634 Dec  6 11:27 /scratch/hazwong/820702/2LHP_5/usrc/2LHP_5_fmo_input.F06.015
-rw-r--r-- 1 hazwong frank    10850 Dec  6 11:27 /scratch/hazwong/820702/2LHP_5/usrc/2LHP_5_fmo_input.F07
-rw-r--r-- 1 hazwong frank        0 Dec  5 23:24 /scratch/hazwong/820702/2LHP_5/usrc/2LHP_5_fmo_input.F07.001
-rw-r--r-- 1 hazwong frank        0 Dec  5 23:24 /scratch/hazwong/820702/2LHP_5/usrc/2LHP_5_fmo_input.F07.002
-rw-r--r-- 1 hazwong frank        0 Dec  5 23:24 /scratch/hazwong/820702/2LHP_5/usrc/2LHP_5_fmo_input.F07.003
-rw-r--r-- 1 hazwong frank        0 Dec  5 23:24 /scratch/hazwong/820702/2LHP_5/usrc/2LHP_5_fmo_input.F07.004
-rw-r--r-- 1 hazwong frank        0 Dec  5 23:24 /scratch/hazwong/820702/2LHP_5/usrc/2LHP_5_fmo_input.F07.005
-rw-r--r-- 1 hazwong frank        0 Dec  5 23:24 /scratch/hazwong/820702/2LHP_5/usrc/2LHP_5_fmo_input.F07.006
-rw-r--r-- 1 hazwong frank        0 Dec  5 23:24 /scratch/hazwong/820702/2LHP_5/usrc/2LHP_5_fmo_input.F07.007
-rw-r--r-- 1 hazwong frank        0 Dec  5 23:24 /scratch/hazwong/820702/2LHP_5/usrc/2LHP_5_fmo_input.F07.008
-rw-r--r-- 1 hazwong frank        0 Dec  5 23:24 /scratch/hazwong/820702/2LHP_5/usrc/2LHP_5_fmo_input.F07.009
-rw-r--r-- 1 hazwong frank        0 Dec  5 23:24 /scratch/hazwong/820702/2LHP_5/usrc/2LHP_5_fmo_input.F07.010
-rw-r--r-- 1 hazwong frank        0 Dec  5 23:24 /scratch/hazwong/820702/2LHP_5/usrc/2LHP_5_fmo_input.F07.011
-rw-r--r-- 1 hazwong frank        0 Dec  5 23:24 /scratch/hazwong/820702/2LHP_5/usrc/2LHP_5_fmo_input.F07.012
-rw-r--r-- 1 hazwong frank        0 Dec  5 23:24 /scratch/hazwong/820702/2LHP_5/usrc/2LHP_5_fmo_input.F07.013
-rw-r--r-- 1 hazwong frank        0 Dec  5 23:24 /scratch/hazwong/820702/2LHP_5/usrc/2LHP_5_fmo_input.F07.014
-rw-r--r-- 1 hazwong frank        0 Dec  5 23:24 /scratch/hazwong/820702/2LHP_5/usrc/2LHP_5_fmo_input.F07.015
-rw-r--r-- 1 hazwong frank    65440 Dec  6 11:27 /scratch/hazwong/820702/2LHP_5/usrc/2LHP_5_fmo_input.F10.000
-rw-r--r-- 1 hazwong frank        0 Dec  5 23:24 /scratch/hazwong/820702/2LHP_5/usrc/2LHP_5_fmo_input.F26.000
-rw-r--r-- 1 hazwong frank        0 Dec  5 23:24 /scratch/hazwong/820702/2LHP_5/usrc/2LHP_5_fmo_input.F26.001
-rw-r--r-- 1 hazwong frank        0 Dec  5 23:24 /scratch/hazwong/820702/2LHP_5/usrc/2LHP_5_fmo_input.F26.002
-rw-r--r-- 1 hazwong frank        0 Dec  5 23:24 /scratch/hazwong/820702/2LHP_5/usrc/2LHP_5_fmo_input.F26.003
-rw-r--r-- 1 hazwong frank        0 Dec  5 23:24 /scratch/hazwong/820702/2LHP_5/usrc/2LHP_5_fmo_input.F26.004
-rw-r--r-- 1 hazwong frank        0 Dec  5 23:24 /scratch/hazwong/820702/2LHP_5/usrc/2LHP_5_fmo_input.F26.005
-rw-r--r-- 1 hazwong frank        0 Dec  5 23:24 /scratch/hazwong/820702/2LHP_5/usrc/2LHP_5_fmo_input.F26.006
-rw-r--r-- 1 hazwong frank        0 Dec  5 23:24 /scratch/hazwong/820702/2LHP_5/usrc/2LHP_5_fmo_input.F26.007
-rw-r--r-- 1 hazwong frank        0 Dec  5 23:24 /scratch/hazwong/820702/2LHP_5/usrc/2LHP_5_fmo_input.F26.008
-rw-r--r-- 1 hazwong frank        0 Dec  5 23:24 /scratch/hazwong/820702/2LHP_5/usrc/2LHP_5_fmo_input.F26.009
-rw-r--r-- 1 hazwong frank        0 Dec  5 23:24 /scratch/hazwong/820702/2LHP_5/usrc/2LHP_5_fmo_input.F26.010
-rw-r--r-- 1 hazwong frank        0 Dec  5 23:24 /scratch/hazwong/820702/2LHP_5/usrc/2LHP_5_fmo_input.F26.011
-rw-r--r-- 1 hazwong frank        0 Dec  5 23:24 /scratch/hazwong/820702/2LHP_5/usrc/2LHP_5_fmo_input.F26.012
-rw-r--r-- 1 hazwong frank        0 Dec  5 23:24 /scratch/hazwong/820702/2LHP_5/usrc/2LHP_5_fmo_input.F26.013
-rw-r--r-- 1 hazwong frank        0 Dec  5 23:24 /scratch/hazwong/820702/2LHP_5/usrc/2LHP_5_fmo_input.F26.014
-rw-r--r-- 1 hazwong frank        0 Dec  5 23:24 /scratch/hazwong/820702/2LHP_5/usrc/2LHP_5_fmo_input.F26.015
-rw-r--r-- 1 hazwong frank        0 Dec  5 23:24 /scratch/hazwong/820702/2LHP_5/usrc/2LHP_5_fmo_input.F27.000
-rw-r--r-- 1 hazwong frank        0 Dec  5 23:24 /scratch/hazwong/820702/2LHP_5/usrc/2LHP_5_fmo_input.F27.001
-rw-r--r-- 1 hazwong frank        0 Dec  5 23:24 /scratch/hazwong/820702/2LHP_5/usrc/2LHP_5_fmo_input.F27.002
-rw-r--r-- 1 hazwong frank        0 Dec  5 23:24 /scratch/hazwong/820702/2LHP_5/usrc/2LHP_5_fmo_input.F27.003
-rw-r--r-- 1 hazwong frank        0 Dec  5 23:24 /scratch/hazwong/820702/2LHP_5/usrc/2LHP_5_fmo_input.F27.004
-rw-r--r-- 1 hazwong frank        0 Dec  5 23:24 /scratch/hazwong/820702/2LHP_5/usrc/2LHP_5_fmo_input.F27.005
-rw-r--r-- 1 hazwong frank        0 Dec  5 23:24 /scratch/hazwong/820702/2LHP_5/usrc/2LHP_5_fmo_input.F27.006
-rw-r--r-- 1 hazwong frank        0 Dec  5 23:24 /scratch/hazwong/820702/2LHP_5/usrc/2LHP_5_fmo_input.F27.007
-rw-r--r-- 1 hazwong frank        0 Dec  5 23:24 /scratch/hazwong/820702/2LHP_5/usrc/2LHP_5_fmo_input.F27.008
-rw-r--r-- 1 hazwong frank        0 Dec  5 23:24 /scratch/hazwong/820702/2LHP_5/usrc/2LHP_5_fmo_input.F27.009
-rw-r--r-- 1 hazwong frank        0 Dec  5 23:24 /scratch/hazwong/820702/2LHP_5/usrc/2LHP_5_fmo_input.F27.010
-rw-r--r-- 1 hazwong frank        0 Dec  5 23:24 /scratch/hazwong/820702/2LHP_5/usrc/2LHP_5_fmo_input.F27.011
-rw-r--r-- 1 hazwong frank        0 Dec  5 23:24 /scratch/hazwong/820702/2LHP_5/usrc/2LHP_5_fmo_input.F27.012
-rw-r--r-- 1 hazwong frank        0 Dec  5 23:24 /scratch/hazwong/820702/2LHP_5/usrc/2LHP_5_fmo_input.F27.013
-rw-r--r-- 1 hazwong frank        0 Dec  5 23:24 /scratch/hazwong/820702/2LHP_5/usrc/2LHP_5_fmo_input.F27.014
-rw-r--r-- 1 hazwong frank        0 Dec  5 23:24 /scratch/hazwong/820702/2LHP_5/usrc/2LHP_5_fmo_input.F27.015
-rw-r--r-- 1 hazwong frank 22331392 Dec  6 03:20 /scratch/hazwong/820702/2LHP_5/usrc/2LHP_5_fmo_input.F40.000
-rw-r--r-- 1 hazwong frank 22331392 Dec  6 03:20 /scratch/hazwong/820702/2LHP_5/usrc/2LHP_5_fmo_input.F40.001
-rw-r--r-- 1 hazwong frank 22331392 Dec  6 03:20 /scratch/hazwong/820702/2LHP_5/usrc/2LHP_5_fmo_input.F40.002
-rw-r--r-- 1 hazwong frank 22331392 Dec  6 03:20 /scratch/hazwong/820702/2LHP_5/usrc/2LHP_5_fmo_input.F40.003
-rw-r--r-- 1 hazwong frank 22331392 Dec  6 03:20 /scratch/hazwong/820702/2LHP_5/usrc/2LHP_5_fmo_input.F40.004
-rw-r--r-- 1 hazwong frank 22331392 Dec  6 03:20 /scratch/hazwong/820702/2LHP_5/usrc/2LHP_5_fmo_input.F40.005
-rw-r--r-- 1 hazwong frank 22331392 Dec  6 03:20 /scratch/hazwong/820702/2LHP_5/usrc/2LHP_5_fmo_input.F40.006
-rw-r--r-- 1 hazwong frank 22331392 Dec  6 03:20 /scratch/hazwong/820702/2LHP_5/usrc/2LHP_5_fmo_input.F40.007
-rw-r--r-- 1 hazwong frank 22331392 Dec  6 03:20 /scratch/hazwong/820702/2LHP_5/usrc/2LHP_5_fmo_input.F40.008
-rw-r--r-- 1 hazwong frank 22331392 Dec  6 03:20 /scratch/hazwong/820702/2LHP_5/usrc/2LHP_5_fmo_input.F40.009
-rw-r--r-- 1 hazwong frank 22331392 Dec  6 03:20 /scratch/hazwong/820702/2LHP_5/usrc/2LHP_5_fmo_input.F40.010
-rw-r--r-- 1 hazwong frank 22331392 Dec  6 03:20 /scratch/hazwong/820702/2LHP_5/usrc/2LHP_5_fmo_input.F40.011
-rw-r--r-- 1 hazwong frank 22331392 Dec  6 03:20 /scratch/hazwong/820702/2LHP_5/usrc/2LHP_5_fmo_input.F40.012
-rw-r--r-- 1 hazwong frank 22331392 Dec  6 03:20 /scratch/hazwong/820702/2LHP_5/usrc/2LHP_5_fmo_input.F40.013
-rw-r--r-- 1 hazwong frank 22331392 Dec  6 03:20 /scratch/hazwong/820702/2LHP_5/usrc/2LHP_5_fmo_input.F40.014
-rw-r--r-- 1 hazwong frank 22331392 Dec  6 03:20 /scratch/hazwong/820702/2LHP_5/usrc/2LHP_5_fmo_input.F40.015
ls: No match.
ls: No match.
ls: No match.
Fri Dec  6 11:27:05 EST 2019
0.192u 0.083s 12:02:23.74 0.0%	0+0k 1744+136io 26pf+0w
