‘2LHP_1_fmo_input.inp’ -> ‘/scratch/hazwong/820698/./2LHP_1_fmo_input.inp’
‘rungms’ -> ‘/scratch/hazwong/820698/./rungms’
‘gms-files.csh’ -> ‘/scratch/hazwong/820698/./gms-files.csh’
----- GAMESS execution script 'rungms' -----
This job is running on host gollum080.lsa.umich.edu
under operating system Linux at Thu Dec 5 23:24:41 EST 2019
Available scratch disk space (Kbyte units) at beginning of the job is
Filesystem     1K-blocks   Used Available Use% Mounted on
/dev/sda4      426933580 387968 426545612   1% /scratch
GAMESS temporary binary files will be written to /scratch/hazwong/820698/2LHP_1/usrc
GAMESS supplementary output files will be written to /scratch/hazwong/820698/2LHP_1/src
Copying input file 2LHP_1_fmo_input.inp to your run's scratch directory...
cp 2LHP_1_fmo_input.inp /scratch/hazwong/820698/2LHP_1/usrc/2LHP_1_fmo_input.F05
unset echo
This is a GDDI run, keeping various output files on local disks
setenv OUTPUT /scratch/hazwong/820698/2LHP_1/usrc/2LHP_1_fmo_input.F06
setenv PUNCH /scratch/hazwong/820698/2LHP_1/usrc/2LHP_1_fmo_input.F07
unset echo
 
Assuming a single but multicore node.
 
/export/apps/CentOS7/gamess/src/build//ddikick.x /export/apps/CentOS7/gamess/src/build//gamess.R3.x 2LHP_1_fmo_input -ddi 1 16 gollum080.lsa.umich.edu:cpus=16 -scr /scratch/hazwong/820698/2LHP_1/usrc

 Distributed Data Interface kickoff program.
 Initiating 16 compute processes on 1 nodes to run the following command:
 /export/apps/CentOS7/gamess/src/build//gamess.R3.x 2LHP_1_fmo_input 

          ******************************************************
          *         GAMESS VERSION = 30 SEP 2018 (R3)         *
          *             FROM IOWA STATE UNIVERSITY             *
          * M.W.SCHMIDT, K.K.BALDRIDGE, J.A.BOATZ, S.T.ELBERT, *
          *   M.S.GORDON, J.H.JENSEN, S.KOSEKI, N.MATSUNAGA,   *
          *          K.A.NGUYEN, S.J.SU, T.L.WINDUS,           *
          *       TOGETHER WITH M.DUPUIS, J.A.MONTGOMERY       *
          *         J.COMPUT.CHEM.  14, 1347-1363(1993)        *
          **************** 64 BIT LINUX VERSION ****************

  SINCE 1993, STUDENTS AND POSTDOCS WORKING AT IOWA STATE UNIVERSITY
  AND ALSO IN THEIR VARIOUS JOBS AFTER LEAVING ISU HAVE MADE IMPORTANT
  CONTRIBUTIONS TO THE CODE:
     IVANA ADAMOVIC, CHRISTINE AIKENS, YURI ALEXEEV, POOJA ARORA,
     ANDREY ASADCHEV, ROB BELL, PRADIPTA BANDYOPADHYAY, JONATHAN BENTZ,
     BRETT BODE, KURT BRORSEN, CALEB CARLIN, GALINA CHABAN, WEI CHEN,
     CHEOL HO CHOI, PAUL DAY, ALBERT DEFUSCO, NUWAN DESILVA, TIM DUDLEY,
     DMITRI FEDOROV, ALEX FINDLATER, GRAHAM FLETCHER, MARK FREITAG,
     KURT GLAESEMANN, ANASTASIA GUNINA,
     DAN KEMP, GRANT MERRILL, NORIYUKI MINEZAWA, JONATHAN MULLIN,
     TAKESHI NAGATA, SEAN NEDD, HEATHER NETZLOFF, BOSILJKA NJEGIC, RYAN OLSON,
     MIKE PAK, BUU PHAM,
     SPENCER PRUITT, LUKE ROSKOP, JIM SHOEMAKER, LYUDMILA SLIPCHENKO,
     TONY SMITH, SAROM SOK LEANG, JIE SONG, TETSUYA TAKETSUGU, SIMON WEBB,
     PENG XU, SOOHAENG YOO, FEDERICO ZAHARIEV

  ADDITIONAL CODE HAS BEEN PROVIDED BY COLLABORATORS IN OTHER GROUPS:
     IOWA STATE UNIVERSITY:
          JOE IVANIC, AARON WEST, LAIMUTIS BYTAUTAS, KLAUS RUEDENBERG
     UNIVERSITY OF TOKYO: KIMIHIKO HIRAO, TAKAHITO NAKAJIMA,
          TAKAO TSUNEDA, MUNEAKI KAMIYA, SUSUMU YANAGISAWA,
          KIYOSHI YAGI, MAHITO CHIBA, SEIKEN TOKURA, NAOAKI KAWAKAMI
     UNIVERSITY OF AARHUS: FRANK JENSEN
     UNIVERSITY OF IOWA: VISVALDAS KAIRYS, HUI LI
     NATIONAL INST. OF STANDARDS AND TECHNOLOGY: WALT STEVENS, DAVID GARMER
     UNIVERSITY OF PISA: BENEDETTA MENNUCCI, JACOPO TOMASI
     UNIVERSITY OF MEMPHIS: HENRY KURTZ, PRAKASHAN KORAMBATH
     UNIVERSITY OF ALBERTA: TOBY ZENG, MARIUSZ KLOBUKOWSKI
     UNIVERSITY OF NEW ENGLAND: MARK SPACKMAN
     MIE UNIVERSITY: HIROAKI UMEDA
     NAT. INST. OF ADVANCED INDUSTRIAL SCIENCE AND TECHNOLOGY: KAZUO KITAURA
     MICHIGAN STATE UNIVERSITY:
          KAROL KOWALSKI, MARTA WLOCH, JEFFREY GOUR, JESSE LUTZ,
          WEI LI, JUN SHEN, J. EMILIANO DEUSTUA, PIOTR PIECUCH
     UNIVERSITY OF MINNESOTA:
          YINAN SHU
     UNIVERSITY OF SILESIA: MONIKA MUSIAL, STANISLAW KUCHARSKI
     FACULTES UNIVERSITAIRES NOTRE-DAME DE LA PAIX:
          OLIVIER QUINET, BENOIT CHAMPAGNE
     UNIVERSITY OF CALIFORNIA - SANTA BARBARA: BERNARD KIRTMAN
     INSTITUTE FOR MOLECULAR SCIENCE:
          KAZUYA ISHIMURA, MICHIO KATOUDA, AND SHIGERU NAGASE
     UNIVERSITY OF NOTRE DAME: ANNA POMOGAEVA, DAN CHIPMAN
     KYUSHU UNIVERSITY:
          HARUYUKI NAKANO,
          FENG LONG GU, JACEK KORCHOWIEC, MARCIN MAKOWSKI, AND YURIKO AOKI,
          HIROTOSHI MORI AND EISAKU MIYOSHI
     PENNSYLVANIA STATE UNIVERSITY:
          TZVETELIN IORDANOV, CHET SWALINA, JONATHAN SKONE,
          SHARON HAMMES-SCHIFFER
     WASEDA UNIVERSITY:
          MASATO KOBAYASHI, TOMOKO AKAMA, TSUGUKI TOUMA,
          TAKESHI YOSHIKAWA, YASUHIRO IKABATA, JUNJI SEINO,
          YUYA NAKAJIMA, HIROMI NAKAI
     NANJING UNIVERSITY: SHUHUA LI
     UNIVERSITY OF NEBRASKA:
          PEIFENG SU, DEJUN SI, NANDUN THELLAMUREGE, YALI WANG, HUI LI
     UNIVERSITY OF ZURICH: ROBERTO PEVERATI, KIM BALDRIDGE
     N. COPERNICUS UNIVERSITY AND JACKSON STATE UNIVERSITY:
          MARIA BARYSZ
     UNIVERSITY OF COPENHAGEN: Jimmy Kromann, CASPER STEINMANN
     TOKYO INSTITUTE OF TECHNOLOGY: HIROYA NAKATA
     NAGOYA UNIVERSITY: YOSHIO NISHIMOTO, STEPHAN IRLE
     MOSCOW STATE UNIVERSITY: VLADIMIR MIRONOV


 PARALLEL VERSION RUNNING ON       16 PROCESSORS IN        1 NODES.

 EXECUTION OF GAMESS BEGUN Thu Dec  5 23:24:41 2019

            ECHO OF THE FIRST FEW INPUT CARDS -
 INPUT CARD>!*** FMO 5.3 (Gamess) INPUT generated by Facio 22.1.1.32 ***                    
 INPUT CARD> $CONTRL RUNTYP=ENERGY NPRINT=-5 ISPHER=1 MAXIT=200 $END                        
 INPUT CARD> $SYSTEM MWORDS=63 MEMDDI=63 $END                                               
 INPUT CARD> $GDDI NGROUP=1 $END                                                            
 INPUT CARD> $SCF DIRSCF=.TRUE. NPUNCH=0 $END                                               
 INPUT CARD>!*** NumCPU : 2  MemPerNode : 512MB                                             
 INPUT CARD> $PCM SOLVNT=WATER IEF=-10 ICOMP=2 ICAV=1 IDISP=1 IFMO=-1 $END                  
 INPUT CARD> $PCMCAV RADII=SUAHF $END                                                       
 INPUT CARD> $TESCAV NTSALL=60 $END                                                         
 INPUT CARD> $FMOPRP                                                                        
 INPUT CARD>    NAODIR=200                                                                  
 INPUT CARD>    NGRFMO(1)=1, 1, 0, 0, 0,   0, 0, 0, 0, 0                                    
 INPUT CARD>    IPIEDA=1                                                                    
 INPUT CARD>    NPRINT=9                                                                    
 INPUT CARD> $END                                                                           
 INPUT CARD> $FMO                                                                           
 INPUT CARD>      SCFTYP(1)=RHF                                                             
 INPUT CARD>      MODGRD=10                                                                 
 INPUT CARD>      MODMUL=0                                                                  
 INPUT CARD>      MAXCAO=5                                                                  
 INPUT CARD>      MAXBND=13                                                                 
 INPUT CARD>      NLAYER=1                                                                  
 INPUT CARD>      MPLEVL(1)=2                                                               
 INPUT CARD>      NFRAG=11                                                                  
 INPUT CARD>      ICHARG(1)=-1, -1, -1, -1, 0, -1, -1, -1, -1, -1, 0                        
 INPUT CARD>      FRGNAM(1)=F1, F2, F3, F4, F5, F6, F7, F8, F9, F10, F11                    
 INPUT CARD>      indat(1)=0                                                                
 INPUT CARD>               1   -35   0                                                      
 INPUT CARD>               36   -65   0                                                     
 INPUT CARD>               66   -99   0                                                     
 INPUT CARD>               100   -133   0                                                   
 INPUT CARD>               134   -165   0                                                   
 INPUT CARD>               166   -195   0                                                   
 INPUT CARD>               196   -226   0                                                   
 INPUT CARD>               227   -259   0                                                   
 INPUT CARD>               260   -292   0                                                   
 INPUT CARD>               293   -325   0                                                   
 INPUT CARD>               326   -352   0                                                   
 INPUT CARD> $END                                                                           
 INPUT CARD>                                                                                
 INPUT CARD> $FMOBND                                                                        
 INPUT CARD>   -36   35       6-31G*    MINI                                                
 INPUT CARD>   -66   65       6-31G*    MINI                                                
 INPUT CARD>   -100   99       6-31G*    MINI                                               
 INPUT CARD>   -134   133       6-31G*    MINI                                              
 INPUT CARD>   -166   165       6-31G*    MINI                                              
 INPUT CARD>   -196   195       6-31G*    MINI                                              
 INPUT CARD>   -227   226       6-31G*    MINI                                              
 INPUT CARD>   -260   259       6-31G*    MINI                                              
 INPUT CARD>   -293   292       6-31G*    MINI                                              


 -------------------------------------------------------------
 GROUP DDI, PROGRAMMED BY: RYAN M. OLSON AND DMITRI G. FEDOROV
        FEDOROV ET AL., J. COMPUT. CHEM., 25 (2004) 872.
 -------------------------------------------------------------

 -------------------------------------------------------
 GDDI: INITIALIZATION COMPLETED FOR GROUP     1 OF     1
 WITH    16 PROCESSES BALTYP=DLB   global rank=        0
 -------------------------------------------------------

   63000000 WORDS OF MEMORY AVAILABLE


     RUN TITLE
     ---------
  FMO calculation                                                                

 THE POINT GROUP OF THE MOLECULE IS C1      
 THE ORDER OF THE PRINCIPAL AXIS IS     0

 ATOM   ATOMIC CHARGE
 H.1-1       1.0
 O.1-1       8.0
 C.1-1       6.0
 N.1-1       7.0
 P.1-1      15.0

     ATOMIC BASIS SET LIBRARY
     ----------------
 THE CONTRACTED PRIMITIVE FUNCTIONS HAVE BEEN UNNORMALIZED
 THE CONTRACTED BASIS FUNCTIONS ARE NOW NORMALIZED TO UNITY

  SHELL TYPE  PRIMITIVE        EXPONENT          CONTRACTION COEFFICIENT(S)

 H.1-1     

      1   S       1            18.7311370    0.033494604338
      1   S       2             2.8253944    0.234726953484
      1   S       3             0.6401217    0.813757326146

      2   S       4             0.1612778    1.000000000000

 O.1-1     

      3   S       5          5484.6716600    0.001831074430
      3   S       6           825.2349460    0.013950172200
      3   S       7           188.0469580    0.068445078098
      3   S       8            52.9645000    0.232714335992
      3   S       9            16.8975704    0.470192897984
      3   S      10             5.7996353    0.358520852987

      4   L      11            15.5396162   -0.110777549525    0.070874268231
      4   L      12             3.5999336   -0.148026262701    0.339752839147
      4   L      13             1.0137618    1.130767015354    0.727158577316

      5   L      14             0.2700058    1.000000000000    1.000000000000

      6   D      15             0.8000000    1.000000000000

 C.1-1     

      7   S      16          3047.5248800    0.001834737132
      7   S      17           457.3695180    0.014037322813
      7   S      18           103.9486850    0.068842622264
      7   S      19            29.2101553    0.232184443216
      7   S      20             9.2866630    0.467941348435
      7   S      21             3.1639270    0.362311985337

      8   L      22             7.8682723   -0.119332419775    0.068999066591
      8   L      23             1.8812885   -0.160854151696    0.316423960957
      8   L      24             0.5442493    1.143456437840    0.744308290898

      9   L      25             0.1687145    1.000000000000    1.000000000000

     10   D      26             0.8000000    1.000000000000

 N.1-1     

     11   S      27          4173.5114600    0.001834772160
     11   S      28           627.4579110    0.013994627002
     11   S      29           142.9020930    0.068586551812
     11   S      30            40.2343293    0.232240873040
     11   S      31            12.8202129    0.469069948082
     11   S      32             4.3904370    0.360455199063

     12   L      33            11.6263619   -0.114961181702    0.067579743878
     12   L      34             2.7162798   -0.169117478561    0.323907295893
     12   L      35             0.7722184    1.145851947027    0.740895139755

     13   L      36             0.2120315    1.000000000000    1.000000000000

     14   D      37             0.8000000    1.000000000000

 P.1-1     

     15   S      38         19413.3000000    0.001851598923
     15   S      39          2909.4200000    0.014206191735
     15   S      40           661.3640000    0.069999459277
     15   S      41           185.7590000    0.240078860331
     15   S      42            59.1943000    0.484761717984
     15   S      43            20.0310000    0.335199804993

     16   L      44           339.4780000   -0.002782170105    0.004564616191
     16   L      45            81.0101000   -0.036049901354    0.033693571881
     16   L      46            25.8780000   -0.116631004382    0.139754883368
     16   L      47             9.4522100    0.096832803638    0.339361716786
     16   L      48             3.6656600    0.614418023082    0.450920623685
     16   L      49             1.4674600    0.403798015170    0.238585800889

     17   L      50             2.1562300   -0.252924113863   -0.017765312733
     17   L      51             0.7489970    0.032851844678    0.274058196433
     17   L      52             0.2831450    1.081254761783    0.785421562957

     18   L      53             0.0998317    1.000000000000    1.000000000000

     19   D      54             0.5500000    1.000000000000

 TOTAL NUMBER OF BASIS SET SHELLS             =   19
 NUMBER OF CARTESIAN GAUSSIAN BASIS FUNCTIONS =   66

     $CONTRL OPTIONS
     ---------------
 SCFTYP=RHF          RUNTYP=ENERGY       EXETYP=RUN     
 MPLEVL=       0     CITYP =NONE         CCTYP =NONE         VBTYP =NONE    
 DFTTYP=NONE         TDDFT =NONE    
 MULT  =       1     ICHARG=       0     NZVAR =       0     COORD =UNIQUE  
 PP    =NONE         RELWFN=NONE         LOCAL =NONE         NUMGRD=       F
 ISPHER=       1     NOSYM =       0     MAXIT =     200     UNITS =ANGS    
 PLTORB=       F     MOLPLT=       F     AIMPAC=       F     FRIEND=        
 NPRINT=      -5     IREST =       0     GEOM  =INPUT   
 NORMF =       0     NORMP =       0     ITOL  =      24     ICUT  =      12
 INTTYP=BEST         GRDTYP=BEST         QMTTOL= 1.0E-06

     $SYSTEM OPTIONS
     ---------------
  REPLICATED MEMORY=    63000000 WORDS (ON EVERY NODE).
 DISTRIBUTED MEMDDI=          63 MILLION WORDS IN AGGREGATE,
 MEMDDI DISTRIBUTED OVER  16 PROCESSORS IS     3937500 WORDS/PROCESSOR.
 TOTAL MEMORY REQUESTED ON EACH PROCESSOR=    66937500 WORDS.
 TIMLIM=      525600.00 MINUTES, OR     365.0 DAYS.
 PARALL= T  BALTYP=  DLB     KDIAG=    0  COREFL= F
 MXSEQ2=     300 MXSEQ3=     150  mem10=         0

 ** LOOKING UP INTERNALLY STORED DATA FOR SOLVENT=WATER    **
 OPTICAL AND PHYSICAL CONSTANTS:
 EPS= 78.390; EPSINF=  1.776; RSOLV=  1.385 A; VMOL=  18.070 ML/MOL;
 TCE= .25700E-03 1/K; STEN= 71.810 DYN/CM;  DSTEN=  0.6500; CMF=  1.2770


     -----------------------------------
     INPUT FOR PCM SOLVATION CALCULATION 
     -----------------------------------
     IEF   =     -10
     ICOMP =       2     IFIELD=       0     ICAV  =       1
     IDISP =       1     IREP  =       0     IDP   =       0

     SOLVNT=WATER        EPS   = 78.3900     EPSINF=  1.7760
     VMOL  = 18.0700     TCE   =  0.00025700 STEN  = 71.8100
     DSTEN =  0.6500     CMF   =  1.2770     RSOLV =  1.3850

     NESFP =       0
     OMEGA = 40.0000     RET   =100.0000     FRO   =  0.7000

     TABS  =298.0000     IPRINT=       0

     --------------------------------
     INPUT FOR ITERATIVE C-PCM METHOD 
     --------------------------------
     IPCMIT  =         1     MXDIIS  =        50
     MXITR1  =       200     MXITR2  =       200
     THRES   = 0.100E-09     IMUL    =         3
     RCUT(1) =   20.0000     RCUT(2) =   50.0000

     IDIRCT  =         1
     IMGABI  =         0     RABI    =    4.0000
     IMGASC  =         0     RASC    =   20.0000
     THRSLS  = 0.500E-03     DENSLS  =    0.0100
     IEFPOL  =         1     REFPOL  =    0.0000

     INPUT FOR ISOTROPIC DIELECTRICS
     -------------------------------
     EPS=    78.39

          ----------------
          PROPERTIES INPUT
          ----------------

     MOMENTS            FIELD           POTENTIAL          DENSITY
 IEMOM =       1   IEFLD =       0   IEPOT =       0   IEDEN =       0
 WHERE =COMASS     WHERE =NUCLEI     WHERE =NUCLEI     WHERE =NUCLEI  
 OUTPUT=BOTH       OUTPUT=BOTH       OUTPUT=NONE       OUTPUT=BOTH    
 IEMINT=       0   IEFINT=       0                     IEDINT=       0
                                                       MORB  =       0
          EXTRAPOLATION IN EFFECT
          SOSCF IN EFFECT
 ORBITAL PRINTING OPTION: NPREO=     1 32767     2     1

     -------------------------------
     INTEGRAL TRANSFORMATION OPTIONS
     -------------------------------
     NWORD  =            0
     CUTOFF = 1.0E-10     MPTRAN =       0
     DIRTRF =       T     AOINTS =DUP     

          ----------------------
          INTEGRAL INPUT OPTIONS
          ----------------------
 NOPK  =       1 NORDER=       0 SCHWRZ=       T

 ..... DONE SETTING UP THE RUN .....
 CPU     0: STEP CPU TIME=     0.04 TOTAL CPU TIME=          0.0 (      0.0 MIN)
 TOTAL WALL CLOCK TIME=          0.1 SECONDS, CPU UTILIZATION IS    50.00%
 CPU     0: STEP CPU TIME=     0.00 TOTAL CPU TIME=          0.0 (      0.0 MIN)
 TOTAL WALL CLOCK TIME=          0.1 SECONDS, CPU UTILIZATION IS    50.00%

                    ----------------------
                    AO INTEGRAL TECHNOLOGY
                    ----------------------
     S,P,L SHELL ROTATED AXIS INTEGRALS, REPROGRAMMED BY
        KAZUYA ISHIMURA (IMS) AND JOSE SIERRA (SYNSTAR).
     S,P,D,L SHELL ROTATED AXIS INTEGRALS PROGRAMMED BY
        KAZUYA ISHIMURA (INSTITUTE FOR MOLECULAR SCIENCE).
     S,P,D,F,G SHELL TO TOTAL QUARTET ANGULAR MOMENTUM SUM 5,
        ERIC PROGRAM BY GRAHAM FLETCHER (ELORET AND NASA ADVANCED
        SUPERCOMPUTING DIVISION, AMES RESEARCH CENTER).
     S,P,D,F,G,L SHELL GENERAL RYS QUADRATURE PROGRAMMED BY
        MICHEL DUPUIS (PACIFIC NORTHWEST NATIONAL LABORATORY).
 Setting modorb=1 flag...
 Setting modorb=1 flag...

          -----------------------
          MP2 CONTROL INFORMATION
          -----------------------
          NACORE =        8  NBCORE =        8
          LMOMP2 =        F  AOINTS = DUP     
          METHOD =        2  NWORD  =               0
          MP2PRP =        F  OSPT   = NONE    
          CUTOFF = 1.00E-12  CPHFBS = BASISAO 
          CODE   = IMS     

          NUMBER OF CORE -A-  ORBITALS =     8
          NUMBER OF CORE -B-  ORBITALS =     8
          NUMBER OF OCC. -A-  ORBITALS =    18
          NUMBER OF OCC. -B-  ORBITALS =    18
          NUMBER OF MOLECULAR ORBITALS =    66
          NUMBER OF   BASIS  FUNCTIONS =    66

 CPU     0: STEP CPU TIME=     0.02 TOTAL CPU TIME=          0.1 (      0.0 MIN)
 TOTAL WALL CLOCK TIME=          0.1 SECONDS, CPU UTILIZATION IS    50.00%
 CPU     0: STEP CPU TIME=     0.00 TOTAL CPU TIME=          0.1 (      0.0 MIN)
 TOTAL WALL CLOCK TIME=          0.1 SECONDS, CPU UTILIZATION IS    50.00%

     INPUT FOR CAVITY DEFINITION 
     ---------------------------
   ATOM               COORDINATES                RADIUS       EPS
      1      4.5950     -4.3720      0.7350      0.0100     78.3900
      2      4.1570     -4.1050     -0.0950      1.5900     78.3900
      3      4.0910     -5.2740     -0.9240      1.7700     78.3900
      4      3.6350     -6.1080     -0.3450      0.0100     78.3900
      5      5.1230     -5.5790     -1.2060      0.0100     78.3900
      6      3.2860     -5.0570     -2.2070      1.7700     78.3900
      7      3.3110     -5.9590     -2.8500      0.0100     78.3900
      8      1.8880     -4.8090     -1.8800      1.5900     78.3900
      9      1.3680     -3.8340     -2.7690      1.7700     78.3900
     10      0.4720     -4.2970     -3.2500      0.0100     78.3900
     11      0.9580     -2.6270     -2.0480      1.6800     78.3900
     12     -0.0230     -0.7420     -1.4870      1.7700     78.3900
     13      0.7510     -1.1150     -0.3950      1.6800     78.3900
     14      1.3090     -2.2410     -0.7750      1.7700     78.3900
     15      1.9950     -2.8420     -0.1710      0.0100     78.3900
     16     -1.4850      0.4410     -2.9280      1.6800     78.3900
     17     -1.2420     -0.5160     -3.8300      1.7700     78.3900
     18     -1.7590     -0.3960     -4.7880      0.0100     78.3900
     19     -0.4840     -1.6130     -3.7180      1.6800     78.3900
     20      0.1050     -1.6610     -2.5140      1.7700     78.3900
     21     -0.8820      0.3550     -1.7150      1.7700     78.3900
     22     -1.1340      1.3040     -0.7950      1.6800     78.3900
     23     -0.7060      1.2800      0.1180      0.0100     78.3900
     24     -1.7340      2.0790     -1.0090      0.0100     78.3900
     25      2.4240     -3.5620     -3.8190      1.7700     78.3900
     26      2.3920     -2.5220     -4.2050      0.0100     78.3900
     27      2.2630     -4.4700     -4.8890      1.5900     78.3900
     28      2.9920     -4.3130     -5.5030      0.0100     78.3900
     29      3.7080     -3.8410     -3.0450      1.7700     78.3900
     30      3.9130     -3.0120     -2.3280      0.0100     78.3900
     31      4.8550     -4.1860     -3.8590      1.5900     78.3900
     32      5.8670     -3.0510     -4.2680      2.1000     78.3900
     33      6.1680     -2.2090     -3.0930      1.5900     78.3900
     34      7.0280     -3.6600     -4.9540      1.5900     78.3900
     35      5.0510     -2.1800     -5.2890      1.5900     78.3900
     36      4.6940     -2.7130     -6.5830      1.7700     78.3900
     37      4.1410     -3.6710     -6.4850      0.0100     78.3900
     38      5.6090     -2.9180     -7.1840      0.0100     78.3900
     39      3.8210     -1.7290     -7.3750      1.7700     78.3900
     40      3.5430     -2.1520     -8.3650      0.0100     78.3900
     41      2.5810     -1.4660     -6.6570      1.5900     78.3900
     42      2.2080     -0.1060     -6.8370      1.7700     78.3900
     43      1.1910     -0.1240     -7.2940      0.0100     78.3900
     44      2.1670      0.6370     -5.5490      1.6800     78.3900
     45      2.8260      0.1690     -4.4340      1.7700     78.3900
     46      3.3760     -0.7590     -4.5750      0.0100     78.3900
     47      1.4360      1.8030     -5.4980      1.7700     78.3900
     48      0.8440      2.2610     -6.4700      1.5900     78.3900
     49      1.4110      2.4090     -4.2720      1.6800     78.3900
     50      0.8240      3.2350     -4.2130      0.0100     78.3900
     51      1.9860      1.9710     -3.1030      1.7700     78.3900
     52      1.8250      2.6050     -2.0630      1.5900     78.3900
     53      2.7440      0.7650     -3.2360      1.7700     78.3900
     54      3.2310      0.3520     -2.3560      0.0100     78.3900
     55      3.1890      0.5000     -7.8220      1.7700     78.3900
     56      3.3930      1.5730     -7.6210      0.0100     78.3900
     57      2.6950      0.3390     -9.1410      1.5900     78.3900
     58      3.4110      0.5900     -9.7380      0.0100     78.3900
     59      4.4370     -0.3420     -7.5870      1.7700     78.3900
     60      4.9290     -0.0610     -6.6230      0.0100     78.3900
     61      5.3520     -0.3760     -8.7040      1.5900     78.3900
     62      6.5620      0.6260     -8.7470      2.1000     78.3900
     63      7.2440      0.6210     -7.4330      1.5900     78.3900
     64      7.4050      0.3050     -9.9220      1.5900     78.3900
     65      5.9150      2.0400     -8.9440      1.5900     78.3900
     66      5.2340      2.4270    -10.1550      1.7700     78.3900
     67      4.4540      1.6860    -10.4450      0.0100     78.3900
     68      5.9500      2.4960    -10.9990      0.0100     78.3900
     69      4.5720      3.8040    -10.0000      1.7700     78.3900
     70      4.0110      4.0870    -10.9160      0.0100     78.3900
     71      3.6110      3.7580     -8.9130      1.5900     78.3900
     72      3.6700      4.9690     -8.1830      1.7700     78.3900
     73      2.6350      5.3820     -8.1800      0.0100     78.3900
     74      4.0920      4.7410     -6.7990      1.6800     78.3900
     75      3.7790      5.5430     -5.7410      1.7700     78.3900
     76      2.2350      8.3660     -4.4520      1.6800     78.3900
     77      1.8410      8.7880     -5.2700      0.0100     78.3900
     78      1.9720      8.7160     -3.5530      0.0100     78.3900
     79      3.0500      6.6780     -5.7980      1.6800     78.3900
     80      2.9070      7.2330     -4.6010      1.7700     78.3900
     81      3.3650      6.6560     -3.4500      1.6800     78.3900
     82      3.4210      7.2500     -2.6380      0.0100     78.3900
     83      4.1430      5.5160     -3.3590      1.7700     78.3900
     84      4.5330      5.1110     -2.2590      1.5900     78.3900
     85      4.3350      4.9240     -4.6350      1.7700     78.3900
     86      5.0160      3.7660     -5.0000      1.6800     78.3900
     87      4.8490      3.7010     -6.2990      1.7700     78.3900
     88      5.2340      2.9110     -6.9410      0.0100     78.3900
     89      4.5860      5.9170     -8.9270      1.7700     78.3900
     90      5.1420      6.5950     -8.2490      0.0100     78.3900
     91      3.8350      6.6840     -9.8490      1.5900     78.3900
     92      4.4660      7.1560    -10.4070      0.0100     78.3900
     93      5.5270      4.9540     -9.6380      1.7700     78.3900
     94      6.2710      4.5340     -8.9200      0.0100     78.3900
     95      6.1330      5.4890    -10.8380      1.5900     78.3900
     96      7.5650      6.1430    -10.7530      2.1000     78.3900
     97      8.4500      5.2220    -10.0050      1.5900     78.3900
     98      7.9970      6.4700    -12.1340      1.5900     78.3900
     99      7.3620      7.4570     -9.9070      1.5900     78.3900
    100      6.8040      8.6360    -10.5350      1.7700     78.3900
    101      5.7410      8.4690    -10.8220      0.0100     78.3900
    102      7.3650      8.9140    -11.4540      0.0100     78.3900
    103      6.8650      9.8510     -9.5990      1.7700     78.3900
    104      6.4950     10.7640    -10.1140      0.0100     78.3900
    105      5.9880      9.6300     -8.4560      1.5900     78.3900
    106      6.6040     10.1620     -7.2920      1.7700     78.3900
    107      5.8710     10.8750     -6.8510      0.0100     78.3900
    108      6.8930      9.1080     -6.3070      1.6800     78.3900
    109      7.1200      9.2880     -4.9690      1.7700     78.3900
    110      7.5400     11.3940     -2.2520      1.6800     78.3900
    111      7.3670     12.2950     -2.6460      0.0100     78.3900
    112      7.7970     11.3260     -1.2840      0.0100     78.3900
    113      7.1530     10.4680     -4.3250      1.6800     78.3900
    114      7.4320     10.3320     -3.0320      1.7700     78.3900
    115      7.6210      9.1150     -2.4320      1.6800     78.3900
    116      7.8060      9.0980     -1.4410      0.0100     78.3900
    117      7.5400      7.8760     -3.0600      1.7700     78.3900
    118      7.7010      6.8210     -2.4380      1.5900     78.3900
    119      7.2950      8.0180     -4.4510      1.7700     78.3900
    120      7.2030      7.0570     -5.4500      1.6800     78.3900
    121      6.9780      7.7530     -6.5380      1.7700     78.3900
    122      6.8490      7.3470     -7.5400      0.0100     78.3900
    123      7.8410     10.9220     -7.7250      1.7700     78.3900
    124      8.6450     10.8970     -6.9640      0.0100     78.3900
    125      7.5050     12.2660     -8.0100      1.5900     78.3900
    126      8.3000     12.6880     -8.3570      0.0100     78.3900
    127      8.2380     10.1660     -8.9860      1.7700     78.3900
    128      8.6880      9.1850     -8.7120      0.0100     78.3900
    129      9.0380     10.9240     -9.9270      1.5900     78.3900
    130     10.6030     10.7460     -9.9040      2.1000     78.3900
    131     10.9320      9.3130     -9.7760      1.5900     78.3900
    132     11.2020     11.4570    -11.0580      1.5900     78.3900
    133     11.0540     11.4700     -8.5780      1.5900     78.3900
    134     10.9980     12.9170     -8.5190      1.7700     78.3900
    135      9.9730     13.2970     -8.7370      0.0100     78.3900
    136     11.6920     13.3710     -9.2670      0.0100     78.3900
    137     11.4070     13.4250     -7.1320      1.7700     78.3900
    138     11.3880     14.5340     -7.0880      0.0100     78.3900
    139     10.4720     12.9350     -6.1290      1.5900     78.3900
    140     11.1860     12.6280     -4.9410      1.7700     78.3900
    141     10.7230     13.2340     -4.1300      0.0100     78.3900
    142     11.0590     11.2050     -4.6070      1.6800     78.3900
    143     10.9800      9.2890     -3.5330      1.7700     78.3900
    144     10.6090      9.0140     -4.8420      1.6800     78.3900
    145     10.6760     10.1790     -5.4370      1.7700     78.3900
    146     10.4720     10.3550     -6.4940      0.0100     78.3900
    147     11.4960      9.0650     -1.2340      1.6800     78.3900
    148     11.7420     10.3790     -1.2400      1.7700     78.3900
    149     12.0670     10.7990     -0.2830      0.0100     78.3900
    150     11.6740     11.2460     -2.2570      1.6800     78.3900
    151     11.2670     10.6340     -3.3790      1.7700     78.3900
    152     11.1030      8.4720     -2.3890      1.7700     78.3900
    153     10.8420      7.1540     -2.3850      1.6800     78.3900
    154     10.5280      6.6740     -3.2050      0.0100     78.3900
    155     10.9420      6.6200     -1.5410      0.0100     78.3900
    156     12.6300     13.0660     -5.1330      1.7700     78.3900
    157     13.3460     12.3960     -4.6120      0.0100     78.3900
    158     12.7940     14.4000     -4.6770      1.5900     78.3900
    159     13.6660     14.7220     -4.9590      0.0100     78.3900
    160     12.7810     12.9460     -6.6450      1.7700     78.3900
    161     12.9030     11.8810     -6.9390      0.0100     78.3900
    162     13.8300     13.7570     -7.2020      1.5900     78.3900
    163     14.6920     13.4170     -6.9120      0.0100     78.3900
    164     11.8270      4.1070      6.9960      0.0100     78.3900
    165     11.8660      4.9520      6.5110      1.5900     78.3900
    166     12.5870      5.8710      7.3450      1.7700     78.3900
    167     13.6170      5.4790      7.5050      0.0100     78.3900
    168     12.0960      5.9270      8.3420      0.0100     78.3900
    169     12.6870      7.2910      6.7660      1.7700     78.3900
    170     13.1750      7.9730      7.4950      0.0100     78.3900
    171     13.5190      7.2830      5.5660      1.5900     78.3900
    172     12.9710      8.1730      4.6050      1.7700     78.3900
    173     13.7910      8.8740      4.3270      0.0100     78.3900
    174     12.4750      7.4550      3.3930      1.6800     78.3900
    175     12.2140      6.1000      3.4160      1.7700     78.3900
    176     12.4200      5.5970      4.3610      0.0100     78.3900
    177     12.3100      8.1790      2.2330      1.7700     78.3900
    178     12.5640      9.3780      2.1640      1.5900     78.3900
    179     11.8560      7.4590      1.1570      1.6800     78.3900
    180     11.7550      7.9840      0.2960      0.0100     78.3900
    181     11.6320      6.0990      1.0920      1.7700     78.3900
    182     11.3080      5.5770      0.0260      1.5900     78.3900
    183     11.8150      5.4140      2.3360      1.7700     78.3900
    184     11.6730      4.3360      2.3690      0.0100     78.3900
    185     11.8660      8.9480      5.3010      1.7700     78.3900
    186     11.0610      9.2390      4.6000      0.0100     78.3900
    187     12.3880     10.1030      5.9300      1.5900     78.3900
    188     11.6440     10.5240      6.3770      0.0100     78.3900
    189     11.3670      7.9300      6.3190      1.7700     78.3900
    190     10.7950      7.1340      5.7980      0.0100     78.3900
    191     10.6670      8.4790      7.4630      1.5900     78.3900
    192      9.0910      8.5720      7.4260      2.1000     78.3900
    193      8.5460      7.2850      6.9400      1.5900     78.3900
    194      8.6050      9.0390      8.7420      1.5900     78.3900
    195      8.8100      9.7000      6.3590      1.5900     78.3900
    196      9.2200     11.0700      6.6110      1.7700     78.3900
    197     10.2820     11.1370      6.9430      0.0100     78.3900
    198      8.6090     11.5190      7.4250      0.0100     78.3900
    199      9.0470     11.9580      5.3660      1.7700     78.3900
    200      9.3670     13.0010      5.5730      0.0100     78.3900
    201      9.8720     11.4600      4.2710      1.5900     78.3900
    202      9.1710     11.6230      3.0410      1.7700     78.3900
    203      9.8360     12.2350      2.3890      0.0100     78.3900
    204      8.8800     10.3310      2.3510      1.6800     78.3900
    205      8.8950      9.1500      3.0540      1.7700     78.3900
    206      9.1390      9.2290      4.1130      0.0100     78.3900
    207      8.6560      7.9760      2.4560      1.7700     78.3900
    208      8.7200      7.0300      2.9890      0.0100     78.3900
    209      8.5150     10.3210      1.0070      1.7700     78.3900
    210      8.4210     11.3980      0.3980      1.5900     78.3900
    211      8.2670      9.1460      0.3840      1.6800     78.3900
    212      8.3520      7.9910      1.0650      1.7700     78.3900
    213      8.1550      6.8420      0.4210      1.6800     78.3900
    214      7.9600      6.8520     -0.5630      0.0100     78.3900
    215      8.1840      5.9570      0.8910      0.0100     78.3900
    216      7.9140     12.4120      3.3410      1.7700     78.3900
    217      7.0730     12.1440      2.6720      0.0100     78.3900
    218      8.1720     13.7960      3.2450      1.5900     78.3900
    219      7.3630     14.2450      3.5230      0.0100     78.3900
    220      7.6280     12.0060      4.7810      1.7700     78.3900
    221      7.2430     10.9600      4.8140      0.0100     78.3900
    222      6.8140     12.9450      5.5260      1.5900     78.3900
    223      5.2650     12.6850      5.6410      2.1000     78.3900
    224      5.0300     11.2340      5.7730      1.5900     78.3900
    225      4.7020     13.5450      6.7040      1.5900     78.3900
    226      4.6940     13.1540      4.2580      1.5900     78.3900
    227      4.7830     14.5210      3.8010      1.7700     78.3900
    228      5.8050     14.9380      3.9500      0.0100     78.3900
    229      4.0690     15.1650      4.3600      0.0100     78.3900
    230      4.4500     14.6270      2.3060      1.7700     78.3900
    231      4.5640     15.6690      1.9400      0.0100     78.3900
    232      5.3890     13.7970      1.5620      1.5900     78.3900
    233      4.7060     13.1210      0.5280      1.7700     78.3900
    234      5.2460     13.3750     -0.4170      0.0100     78.3900
    235      4.7280     11.6700      0.7250      1.6800     78.3900
    236      4.7190      9.5140      0.3230      1.7700     78.3900
    237      4.9240      9.6450      1.6880      1.6800     78.3900
    238      4.9160     10.9420      1.8750      1.7700     78.3900
    239      5.0630     11.4280      2.8360      0.0100     78.3900
    240      4.4630      8.6390     -1.8470      1.6800     78.3900
    241      4.2960      9.8910     -2.2680      1.7700     78.3900
    242      4.1250     10.0100     -3.3430      0.0100     78.3900
    243      4.3310     11.0160     -1.5610      1.6800     78.3900
    244      4.5740     10.7560     -0.2700      1.7700     78.3900
    245      4.6710      8.3960     -0.5290      1.7700     78.3900
    246      4.8120      7.1240     -0.1110      1.6800     78.3900
    247      4.8860      6.8840      0.8620      0.0100     78.3900
    248      4.7410      6.3710     -0.7710      0.0100     78.3900
    249      3.3020     13.6660      0.4640      1.7700     78.3900
    250      2.5620     12.8950      0.1680      0.0100     78.3900
    251      3.2560     14.7590     -0.4310      1.5900     78.3900
    252      2.3710     15.1380     -0.3580      0.0100     78.3900
    253      3.0580     14.1090      1.8980      1.7700     78.3900
    254      2.8450     13.2240      2.5430      0.0100     78.3900
    255      2.0720     15.1560      2.0310      1.5900     78.3900
    256      0.5910     14.8450      2.4560      2.1000     78.3900
    257      0.5890     13.8220      3.5200      1.5900     78.3900
    258     -0.0770     16.1290      2.7620      1.5900     78.3900
    259     -0.0840     14.2190      1.1830      1.5900     78.3900
    260     -0.2030     14.8660     -0.1000      1.7700     78.3900
    261      0.7000     15.4700     -0.3390      0.0100     78.3900
    262     -1.0680     15.5650     -0.0970      0.0100     78.3900
    263     -0.4270     13.8530     -1.2440      1.7700     78.3900
    264     -0.4900     14.3800     -2.2190      0.0100     78.3900
    265      0.7080     12.9490     -1.3230      1.5900     78.3900
    266      0.2630     11.6280     -1.5640      1.7700     78.3900
    267      0.8160     11.2720     -2.4660      0.0100     78.3900
    268      0.5630     10.7510     -0.4200      1.6800     78.3900
    269      1.0950      9.0180      0.8310      1.7700     78.3900
    270      0.8730     10.0660      1.7040      1.6800     78.3900
    271      0.5500     11.0630      0.9220      1.7700     78.3900
    272      0.3020     12.0560      1.2800      0.0100     78.3900
    273      1.5100      6.8700     -0.0440      1.6800     78.3900
    274      1.2930      7.4100     -1.2410      1.7700     78.3900
    275      1.3750      6.7110     -2.0730      0.0100     78.3900
    276      1.0370      8.6740     -1.5880      1.6800     78.3900
    277      0.9110      9.4280     -0.4840      1.7700     78.3900
    278      1.4300      7.6650      1.0450      1.7700     78.3900
    279      1.6840      7.1310      2.2530      1.6800     78.3900
    280      1.6790      7.6780      3.0960      0.0100     78.3900
    281      1.9660      6.1690      2.3190      0.0100     78.3900
    282     -1.2180     11.6870     -1.8720      1.7700     78.3900
    283     -1.7670     10.7890     -1.5150      0.0100     78.3900
    284     -1.4160     11.8340     -3.2650      1.5900     78.3900
    285     -2.3770     11.8630     -3.4170      0.0100     78.3900
    286     -1.6540     12.9380     -1.0990      1.7700     78.3900
    287     -1.7390     12.7010     -0.0150      0.0100     78.3900
    288     -2.8400     13.6120     -1.5880      1.5900     78.3900
    289     -4.2180     12.8510     -1.4950      2.1000     78.3900
    290     -4.1760     11.8830     -0.3760      1.5900     78.3900
    291     -5.2980     13.8610     -1.4730      1.5900     78.3900
    292     -4.2960     12.0530     -2.8510      1.5900     78.3900
    293     -5.2850     10.9950     -2.9960      1.7700     78.3900
    294     -6.3200     11.4080     -3.0030      0.0100     78.3900
    295     -5.2120     10.2720     -2.1480      0.0100     78.3900
    296     -5.0740     10.1860     -4.2960      1.7700     78.3900
    297     -5.4590     10.7450     -5.1750      0.0100     78.3900
    298     -3.6470      9.9700     -4.5210      1.5900     78.3900
    299     -3.4310      8.6570     -4.9950      1.7700     78.3900
    300     -2.8110      8.7360     -5.9180      0.0100     78.3900
    301     -2.7220      7.8640     -3.9870      1.6800     78.3900
    302     -1.4610      6.3670     -2.9890      1.7700     78.3900
    303     -1.9660      7.1800     -1.9840      1.6800     78.3900
    304     -2.6970      8.0570     -2.6240      1.7700     78.3900
    305     -3.2460      8.8790     -2.1570      0.0100     78.3900
    306     -0.3100      4.6650     -4.1540      1.6800     78.3900
    307     -0.8490      5.1650     -5.2710      1.7700     78.3900
    308     -0.5830      4.6400     -6.1940      0.0100     78.3900
    309     -1.6620      6.2160     -5.4150      1.6800     78.3900
    310     -1.9240      6.7790     -4.2270      1.7700     78.3900
    311     -0.6050      5.2460     -2.9680      1.7700     78.3900
    312     -0.0660      4.7280     -1.8500      1.6800     78.3900
    313     -0.2320      5.1210     -0.9380      0.0100     78.3900
    314      0.5640      3.9490     -1.9070      0.0100     78.3900
    315     -4.7810      8.0780     -5.3410      1.7700     78.3900
    316     -4.8090      6.9750     -5.2450      0.0100     78.3900
    317     -5.1380      8.4450     -6.6610      1.5900     78.3900
    318     -6.0360      8.1250     -6.8140      0.0100     78.3900
    319     -5.6680      8.7630     -4.3070      1.7700     78.3900
    320     -5.4840      8.3360     -3.2930      0.0100     78.3900
    321     -7.0690      8.8080     -4.6530      1.5900     78.3900
    322     -8.0360      7.6950     -4.1080      2.1000     78.3900
    323     -7.7370      7.4850     -2.6770      1.5900     78.3900
    324     -9.4270      8.0580     -4.4600      1.5900     78.3900
    325     -7.6070      6.3980     -4.8860      1.5900     78.3900
    326     -7.8350      6.2550     -6.3020      1.7700     78.3900
    327     -7.4060      7.1110     -6.8680      0.0100     78.3900
    328     -8.9270      6.2170     -6.5130      0.0100     78.3900
    329     -7.2230      4.9570     -6.8480      1.7700     78.3900
    330     -7.4450      4.8430     -7.9320      0.0100     78.3900
    331     -5.7720      4.9880     -6.7050      1.5900     78.3900
    332     -5.3020      3.6880     -6.3700      1.7700     78.3900
    333     -4.5580      3.4220     -7.1570      0.0100     78.3900
    334     -4.6610      3.6600     -5.0200      1.6800     78.3900
    335     -4.9310      4.6340     -4.0840      1.7700     78.3900
    336     -5.6440      5.3910     -4.3980      0.0100     78.3900
    337     -3.7960      2.6310     -4.7270      1.7700     78.3900
    338     -3.5390      1.7370     -5.5280      1.5900     78.3900
    339     -3.2480      2.6740     -3.4700      1.6800     78.3900
    340     -2.6090      1.9190     -3.2510      0.0100     78.3900
    341     -3.4760      3.6110     -2.4840      1.7700     78.3900
    342     -2.9450      3.4930     -1.3820      1.5900     78.3900
    343     -4.3610      4.6670     -2.8720      1.7700     78.3900
    344     -4.5790      5.4610     -2.1610      0.0100     78.3900
    345     -6.4940      2.7410     -6.4650      1.7700     78.3900
    346     -6.4220      1.9170     -5.7250      0.0100     78.3900
    347     -6.5940      2.2030     -7.7760      1.5900     78.3900
    348     -7.4460      1.7430     -7.8630      0.0100     78.3900
    349     -7.6530      3.6730     -6.1270      1.7700     78.3900
    350     -7.6840      3.8730     -5.0320      0.0100     78.3900
    351     -8.9360      3.2270     -6.6000      1.5900     78.3900
    352     -9.1970      2.4120     -6.1320      0.0100     78.3900

     ----------------------------
     INPUT FOR TESSERA DEFINITION
     ----------------------------
     NTSALL  =        60     MTHALL  =         4
     MTHAUT  =         0     AUTFRE  =    2.0000
     NTSFRZ  =        60     KEEPSM  =         0
     AREAKP  =   10.0000     BONDRY  =    1.0000
     AREATL  =    0.0100

     SPHERE     INITS       METHOD
          1        60       FIXPVA
          2        60       FIXPVA
          3        60       FIXPVA
          4        60       FIXPVA
          5        60       FIXPVA
          6        60       FIXPVA
          7        60       FIXPVA
          8        60       FIXPVA
          9        60       FIXPVA
         10        60       FIXPVA
         11        60       FIXPVA
         12        60       FIXPVA
         13        60       FIXPVA
         14        60       FIXPVA
         15        60       FIXPVA
         16        60       FIXPVA
         17        60       FIXPVA
         18        60       FIXPVA
         19        60       FIXPVA
         20        60       FIXPVA
         21        60       FIXPVA
         22        60       FIXPVA
         23        60       FIXPVA
         24        60       FIXPVA
         25        60       FIXPVA
         26        60       FIXPVA
         27        60       FIXPVA
         28        60       FIXPVA
         29        60       FIXPVA
         30        60       FIXPVA
         31        60       FIXPVA
         32        60       FIXPVA
         33        60       FIXPVA
         34        60       FIXPVA
         35        60       FIXPVA
         36        60       FIXPVA
         37        60       FIXPVA
         38        60       FIXPVA
         39        60       FIXPVA
         40        60       FIXPVA
         41        60       FIXPVA
         42        60       FIXPVA
         43        60       FIXPVA
         44        60       FIXPVA
         45        60       FIXPVA
         46        60       FIXPVA
         47        60       FIXPVA
         48        60       FIXPVA
         49        60       FIXPVA
         50        60       FIXPVA
         51        60       FIXPVA
         52        60       FIXPVA
         53        60       FIXPVA
         54        60       FIXPVA
         55        60       FIXPVA
         56        60       FIXPVA
         57        60       FIXPVA
         58        60       FIXPVA
         59        60       FIXPVA
         60        60       FIXPVA
         61        60       FIXPVA
         62        60       FIXPVA
         63        60       FIXPVA
         64        60       FIXPVA
         65        60       FIXPVA
         66        60       FIXPVA
         67        60       FIXPVA
         68        60       FIXPVA
         69        60       FIXPVA
         70        60       FIXPVA
         71        60       FIXPVA
         72        60       FIXPVA
         73        60       FIXPVA
         74        60       FIXPVA
         75        60       FIXPVA
         76        60       FIXPVA
         77        60       FIXPVA
         78        60       FIXPVA
         79        60       FIXPVA
         80        60       FIXPVA
         81        60       FIXPVA
         82        60       FIXPVA
         83        60       FIXPVA
         84        60       FIXPVA
         85        60       FIXPVA
         86        60       FIXPVA
         87        60       FIXPVA
         88        60       FIXPVA
         89        60       FIXPVA
         90        60       FIXPVA
         91        60       FIXPVA
         92        60       FIXPVA
         93        60       FIXPVA
         94        60       FIXPVA
         95        60       FIXPVA
         96        60       FIXPVA
         97        60       FIXPVA
         98        60       FIXPVA
         99        60       FIXPVA
        100        60       FIXPVA
        101        60       FIXPVA
        102        60       FIXPVA
        103        60       FIXPVA
        104        60       FIXPVA
        105        60       FIXPVA
        106        60       FIXPVA
        107        60       FIXPVA
        108        60       FIXPVA
        109        60       FIXPVA
        110        60       FIXPVA
        111        60       FIXPVA
        112        60       FIXPVA
        113        60       FIXPVA
        114        60       FIXPVA
        115        60       FIXPVA
        116        60       FIXPVA
        117        60       FIXPVA
        118        60       FIXPVA
        119        60       FIXPVA
        120        60       FIXPVA
        121        60       FIXPVA
        122        60       FIXPVA
        123        60       FIXPVA
        124        60       FIXPVA
        125        60       FIXPVA
        126        60       FIXPVA
        127        60       FIXPVA
        128        60       FIXPVA
        129        60       FIXPVA
        130        60       FIXPVA
        131        60       FIXPVA
        132        60       FIXPVA
        133        60       FIXPVA
        134        60       FIXPVA
        135        60       FIXPVA
        136        60       FIXPVA
        137        60       FIXPVA
        138        60       FIXPVA
        139        60       FIXPVA
        140        60       FIXPVA
        141        60       FIXPVA
        142        60       FIXPVA
        143        60       FIXPVA
        144        60       FIXPVA
        145        60       FIXPVA
        146        60       FIXPVA
        147        60       FIXPVA
        148        60       FIXPVA
        149        60       FIXPVA
        150        60       FIXPVA
        151        60       FIXPVA
        152        60       FIXPVA
        153        60       FIXPVA
        154        60       FIXPVA
        155        60       FIXPVA
        156        60       FIXPVA
        157        60       FIXPVA
        158        60       FIXPVA
        159        60       FIXPVA
        160        60       FIXPVA
        161        60       FIXPVA
        162        60       FIXPVA
        163        60       FIXPVA
        164        60       FIXPVA
        165        60       FIXPVA
        166        60       FIXPVA
        167        60       FIXPVA
        168        60       FIXPVA
        169        60       FIXPVA
        170        60       FIXPVA
        171        60       FIXPVA
        172        60       FIXPVA
        173        60       FIXPVA
        174        60       FIXPVA
        175        60       FIXPVA
        176        60       FIXPVA
        177        60       FIXPVA
        178        60       FIXPVA
        179        60       FIXPVA
        180        60       FIXPVA
        181        60       FIXPVA
        182        60       FIXPVA
        183        60       FIXPVA
        184        60       FIXPVA
        185        60       FIXPVA
        186        60       FIXPVA
        187        60       FIXPVA
        188        60       FIXPVA
        189        60       FIXPVA
        190        60       FIXPVA
        191        60       FIXPVA
        192        60       FIXPVA
        193        60       FIXPVA
        194        60       FIXPVA
        195        60       FIXPVA
        196        60       FIXPVA
        197        60       FIXPVA
        198        60       FIXPVA
        199        60       FIXPVA
        200        60       FIXPVA
        201        60       FIXPVA
        202        60       FIXPVA
        203        60       FIXPVA
        204        60       FIXPVA
        205        60       FIXPVA
        206        60       FIXPVA
        207        60       FIXPVA
        208        60       FIXPVA
        209        60       FIXPVA
        210        60       FIXPVA
        211        60       FIXPVA
        212        60       FIXPVA
        213        60       FIXPVA
        214        60       FIXPVA
        215        60       FIXPVA
        216        60       FIXPVA
        217        60       FIXPVA
        218        60       FIXPVA
        219        60       FIXPVA
        220        60       FIXPVA
        221        60       FIXPVA
        222        60       FIXPVA
        223        60       FIXPVA
        224        60       FIXPVA
        225        60       FIXPVA
        226        60       FIXPVA
        227        60       FIXPVA
        228        60       FIXPVA
        229        60       FIXPVA
        230        60       FIXPVA
        231        60       FIXPVA
        232        60       FIXPVA
        233        60       FIXPVA
        234        60       FIXPVA
        235        60       FIXPVA
        236        60       FIXPVA
        237        60       FIXPVA
        238        60       FIXPVA
        239        60       FIXPVA
        240        60       FIXPVA
        241        60       FIXPVA
        242        60       FIXPVA
        243        60       FIXPVA
        244        60       FIXPVA
        245        60       FIXPVA
        246        60       FIXPVA
        247        60       FIXPVA
        248        60       FIXPVA
        249        60       FIXPVA
        250        60       FIXPVA
        251        60       FIXPVA
        252        60       FIXPVA
        253        60       FIXPVA
        254        60       FIXPVA
        255        60       FIXPVA
        256        60       FIXPVA
        257        60       FIXPVA
        258        60       FIXPVA
        259        60       FIXPVA
        260        60       FIXPVA
        261        60       FIXPVA
        262        60       FIXPVA
        263        60       FIXPVA
        264        60       FIXPVA
        265        60       FIXPVA
        266        60       FIXPVA
        267        60       FIXPVA
        268        60       FIXPVA
        269        60       FIXPVA
        270        60       FIXPVA
        271        60       FIXPVA
        272        60       FIXPVA
        273        60       FIXPVA
        274        60       FIXPVA
        275        60       FIXPVA
        276        60       FIXPVA
        277        60       FIXPVA
        278        60       FIXPVA
        279        60       FIXPVA
        280        60       FIXPVA
        281        60       FIXPVA
        282        60       FIXPVA
        283        60       FIXPVA
        284        60       FIXPVA
        285        60       FIXPVA
        286        60       FIXPVA
        287        60       FIXPVA
        288        60       FIXPVA
        289        60       FIXPVA
        290        60       FIXPVA
        291        60       FIXPVA
        292        60       FIXPVA
        293        60       FIXPVA
        294        60       FIXPVA
        295        60       FIXPVA
        296        60       FIXPVA
        297        60       FIXPVA
        298        60       FIXPVA
        299        60       FIXPVA
        300        60       FIXPVA
        301        60       FIXPVA
        302        60       FIXPVA
        303        60       FIXPVA
        304        60       FIXPVA
        305        60       FIXPVA
        306        60       FIXPVA
        307        60       FIXPVA
        308        60       FIXPVA
        309        60       FIXPVA
        310        60       FIXPVA
        311        60       FIXPVA
        312        60       FIXPVA
        313        60       FIXPVA
        314        60       FIXPVA
        315        60       FIXPVA
        316        60       FIXPVA
        317        60       FIXPVA
        318        60       FIXPVA
        319        60       FIXPVA
        320        60       FIXPVA
        321        60       FIXPVA
        322        60       FIXPVA
        323        60       FIXPVA
        324        60       FIXPVA
        325        60       FIXPVA
        326        60       FIXPVA
        327        60       FIXPVA
        328        60       FIXPVA
        329        60       FIXPVA
        330        60       FIXPVA
        331        60       FIXPVA
        332        60       FIXPVA
        333        60       FIXPVA
        334        60       FIXPVA
        335        60       FIXPVA
        336        60       FIXPVA
        337        60       FIXPVA
        338        60       FIXPVA
        339        60       FIXPVA
        340        60       FIXPVA
        341        60       FIXPVA
        342        60       FIXPVA
        343        60       FIXPVA
        344        60       FIXPVA
        345        60       FIXPVA
        346        60       FIXPVA
        347        60       FIXPVA
        348        60       FIXPVA
        349        60       FIXPVA
        350        60       FIXPVA
        351        60       FIXPVA
        352        60       FIXPVA

     ------------------------------
      FIXPVA TESSELLATION FOR PCM
         PEIFENG SU AND HUI LI
     UNIVERSITY OF NEBRASKA-LINCOLN
     ------------------------------


 PCM DIMENSIONS: MXSP=   352, MXTS=     14080, MEMORY=        144675

     INPUT FOR CAVITY DEFINITION 
     ---------------------------
   ATOM               COORDINATES                RADIUS       EPS
      1      4.5950     -4.3720      0.7350      0.0100     78.3900
      2      4.1570     -4.1050     -0.0950      1.5900     78.3900
      3      4.0910     -5.2740     -0.9240      1.7700     78.3900
      4      3.6350     -6.1080     -0.3450      0.0100     78.3900
      5      5.1230     -5.5790     -1.2060      0.0100     78.3900
      6      3.2860     -5.0570     -2.2070      1.7700     78.3900
      7      3.3110     -5.9590     -2.8500      0.0100     78.3900
      8      1.8880     -4.8090     -1.8800      1.5900     78.3900
      9      1.3680     -3.8340     -2.7690      1.7700     78.3900
     10      0.4720     -4.2970     -3.2500      0.0100     78.3900
     11      0.9580     -2.6270     -2.0480      1.6800     78.3900
     12     -0.0230     -0.7420     -1.4870      1.7700     78.3900
     13      0.7510     -1.1150     -0.3950      1.6800     78.3900
     14      1.3090     -2.2410     -0.7750      1.7700     78.3900
     15      1.9950     -2.8420     -0.1710      0.0100     78.3900
     16     -1.4850      0.4410     -2.9280      1.6800     78.3900
     17     -1.2420     -0.5160     -3.8300      1.7700     78.3900
     18     -1.7590     -0.3960     -4.7880      0.0100     78.3900
     19     -0.4840     -1.6130     -3.7180      1.6800     78.3900
     20      0.1050     -1.6610     -2.5140      1.7700     78.3900
     21     -0.8820      0.3550     -1.7150      1.7700     78.3900
     22     -1.1340      1.3040     -0.7950      1.6800     78.3900
     23     -0.7060      1.2800      0.1180      0.0100     78.3900
     24     -1.7340      2.0790     -1.0090      0.0100     78.3900
     25      2.4240     -3.5620     -3.8190      1.7700     78.3900
     26      2.3920     -2.5220     -4.2050      0.0100     78.3900
     27      2.2630     -4.4700     -4.8890      1.5900     78.3900
     28      2.9920     -4.3130     -5.5030      0.0100     78.3900
     29      3.7080     -3.8410     -3.0450      1.7700     78.3900
     30      3.9130     -3.0120     -2.3280      0.0100     78.3900
     31      4.8550     -4.1860     -3.8590      1.5900     78.3900
     32      5.8670     -3.0510     -4.2680      2.1000     78.3900
     33      6.1680     -2.2090     -3.0930      1.5900     78.3900
     34      7.0280     -3.6600     -4.9540      1.5900     78.3900
     35      5.0510     -2.1800     -5.2890      1.5900     78.3900
     36      4.6940     -2.7130     -6.5830      1.7700     78.3900
     37      4.1410     -3.6710     -6.4850      0.0100     78.3900
     38      5.6090     -2.9180     -7.1840      0.0100     78.3900
     39      3.8210     -1.7290     -7.3750      1.7700     78.3900
     40      3.5430     -2.1520     -8.3650      0.0100     78.3900
     41      2.5810     -1.4660     -6.6570      1.5900     78.3900
     42      2.2080     -0.1060     -6.8370      1.7700     78.3900
     43      1.1910     -0.1240     -7.2940      0.0100     78.3900
     44      2.1670      0.6370     -5.5490      1.6800     78.3900
     45      2.8260      0.1690     -4.4340      1.7700     78.3900
     46      3.3760     -0.7590     -4.5750      0.0100     78.3900
     47      1.4360      1.8030     -5.4980      1.7700     78.3900
     48      0.8440      2.2610     -6.4700      1.5900     78.3900
     49      1.4110      2.4090     -4.2720      1.6800     78.3900
     50      0.8240      3.2350     -4.2130      0.0100     78.3900
     51      1.9860      1.9710     -3.1030      1.7700     78.3900
     52      1.8250      2.6050     -2.0630      1.5900     78.3900
     53      2.7440      0.7650     -3.2360      1.7700     78.3900
     54      3.2310      0.3520     -2.3560      0.0100     78.3900
     55      3.1890      0.5000     -7.8220      1.7700     78.3900
     56      3.3930      1.5730     -7.6210      0.0100     78.3900
     57      2.6950      0.3390     -9.1410      1.5900     78.3900
     58      3.4110      0.5900     -9.7380      0.0100     78.3900
     59      4.4370     -0.3420     -7.5870      1.7700     78.3900
     60      4.9290     -0.0610     -6.6230      0.0100     78.3900
     61      5.3520     -0.3760     -8.7040      1.5900     78.3900
     62      6.5620      0.6260     -8.7470      2.1000     78.3900
     63      7.2440      0.6210     -7.4330      1.5900     78.3900
     64      7.4050      0.3050     -9.9220      1.5900     78.3900
     65      5.9150      2.0400     -8.9440      1.5900     78.3900
     66      5.2340      2.4270    -10.1550      1.7700     78.3900
     67      4.4540      1.6860    -10.4450      0.0100     78.3900
     68      5.9500      2.4960    -10.9990      0.0100     78.3900
     69      4.5720      3.8040    -10.0000      1.7700     78.3900
     70      4.0110      4.0870    -10.9160      0.0100     78.3900
     71      3.6110      3.7580     -8.9130      1.5900     78.3900
     72      3.6700      4.9690     -8.1830      1.7700     78.3900
     73      2.6350      5.3820     -8.1800      0.0100     78.3900
     74      4.0920      4.7410     -6.7990      1.6800     78.3900
     75      3.7790      5.5430     -5.7410      1.7700     78.3900
     76      2.2350      8.3660     -4.4520      1.6800     78.3900
     77      1.8410      8.7880     -5.2700      0.0100     78.3900
     78      1.9720      8.7160     -3.5530      0.0100     78.3900
     79      3.0500      6.6780     -5.7980      1.6800     78.3900
     80      2.9070      7.2330     -4.6010      1.7700     78.3900
     81      3.3650      6.6560     -3.4500      1.6800     78.3900
     82      3.4210      7.2500     -2.6380      0.0100     78.3900
     83      4.1430      5.5160     -3.3590      1.7700     78.3900
     84      4.5330      5.1110     -2.2590      1.5900     78.3900
     85      4.3350      4.9240     -4.6350      1.7700     78.3900
     86      5.0160      3.7660     -5.0000      1.6800     78.3900
     87      4.8490      3.7010     -6.2990      1.7700     78.3900
     88      5.2340      2.9110     -6.9410      0.0100     78.3900
     89      4.5860      5.9170     -8.9270      1.7700     78.3900
     90      5.1420      6.5950     -8.2490      0.0100     78.3900
     91      3.8350      6.6840     -9.8490      1.5900     78.3900
     92      4.4660      7.1560    -10.4070      0.0100     78.3900
     93      5.5270      4.9540     -9.6380      1.7700     78.3900
     94      6.2710      4.5340     -8.9200      0.0100     78.3900
     95      6.1330      5.4890    -10.8380      1.5900     78.3900
     96      7.5650      6.1430    -10.7530      2.1000     78.3900
     97      8.4500      5.2220    -10.0050      1.5900     78.3900
     98      7.9970      6.4700    -12.1340      1.5900     78.3900
     99      7.3620      7.4570     -9.9070      1.5900     78.3900
    100      6.8040      8.6360    -10.5350      1.7700     78.3900
    101      5.7410      8.4690    -10.8220      0.0100     78.3900
    102      7.3650      8.9140    -11.4540      0.0100     78.3900
    103      6.8650      9.8510     -9.5990      1.7700     78.3900
    104      6.4950     10.7640    -10.1140      0.0100     78.3900
    105      5.9880      9.6300     -8.4560      1.5900     78.3900
    106      6.6040     10.1620     -7.2920      1.7700     78.3900
    107      5.8710     10.8750     -6.8510      0.0100     78.3900
    108      6.8930      9.1080     -6.3070      1.6800     78.3900
    109      7.1200      9.2880     -4.9690      1.7700     78.3900
    110      7.5400     11.3940     -2.2520      1.6800     78.3900
    111      7.3670     12.2950     -2.6460      0.0100     78.3900
    112      7.7970     11.3260     -1.2840      0.0100     78.3900
    113      7.1530     10.4680     -4.3250      1.6800     78.3900
    114      7.4320     10.3320     -3.0320      1.7700     78.3900
    115      7.6210      9.1150     -2.4320      1.6800     78.3900
    116      7.8060      9.0980     -1.4410      0.0100     78.3900
    117      7.5400      7.8760     -3.0600      1.7700     78.3900
    118      7.7010      6.8210     -2.4380      1.5900     78.3900
    119      7.2950      8.0180     -4.4510      1.7700     78.3900
    120      7.2030      7.0570     -5.4500      1.6800     78.3900
    121      6.9780      7.7530     -6.5380      1.7700     78.3900
    122      6.8490      7.3470     -7.5400      0.0100     78.3900
    123      7.8410     10.9220     -7.7250      1.7700     78.3900
    124      8.6450     10.8970     -6.9640      0.0100     78.3900
    125      7.5050     12.2660     -8.0100      1.5900     78.3900
    126      8.3000     12.6880     -8.3570      0.0100     78.3900
    127      8.2380     10.1660     -8.9860      1.7700     78.3900
    128      8.6880      9.1850     -8.7120      0.0100     78.3900
    129      9.0380     10.9240     -9.9270      1.5900     78.3900
    130     10.6030     10.7460     -9.9040      2.1000     78.3900
    131     10.9320      9.3130     -9.7760      1.5900     78.3900
    132     11.2020     11.4570    -11.0580      1.5900     78.3900
    133     11.0540     11.4700     -8.5780      1.5900     78.3900
    134     10.9980     12.9170     -8.5190      1.7700     78.3900
    135      9.9730     13.2970     -8.7370      0.0100     78.3900
    136     11.6920     13.3710     -9.2670      0.0100     78.3900
    137     11.4070     13.4250     -7.1320      1.7700     78.3900
    138     11.3880     14.5340     -7.0880      0.0100     78.3900
    139     10.4720     12.9350     -6.1290      1.5900     78.3900
    140     11.1860     12.6280     -4.9410      1.7700     78.3900
    141     10.7230     13.2340     -4.1300      0.0100     78.3900
    142     11.0590     11.2050     -4.6070      1.6800     78.3900
    143     10.9800      9.2890     -3.5330      1.7700     78.3900
    144     10.6090      9.0140     -4.8420      1.6800     78.3900
    145     10.6760     10.1790     -5.4370      1.7700     78.3900
    146     10.4720     10.3550     -6.4940      0.0100     78.3900
    147     11.4960      9.0650     -1.2340      1.6800     78.3900
    148     11.7420     10.3790     -1.2400      1.7700     78.3900
    149     12.0670     10.7990     -0.2830      0.0100     78.3900
    150     11.6740     11.2460     -2.2570      1.6800     78.3900
    151     11.2670     10.6340     -3.3790      1.7700     78.3900
    152     11.1030      8.4720     -2.3890      1.7700     78.3900
    153     10.8420      7.1540     -2.3850      1.6800     78.3900
    154     10.5280      6.6740     -3.2050      0.0100     78.3900
    155     10.9420      6.6200     -1.5410      0.0100     78.3900
    156     12.6300     13.0660     -5.1330      1.7700     78.3900
    157     13.3460     12.3960     -4.6120      0.0100     78.3900
    158     12.7940     14.4000     -4.6770      1.5900     78.3900
    159     13.6660     14.7220     -4.9590      0.0100     78.3900
    160     12.7810     12.9460     -6.6450      1.7700     78.3900
    161     12.9030     11.8810     -6.9390      0.0100     78.3900
    162     13.8300     13.7570     -7.2020      1.5900     78.3900
    163     14.6920     13.4170     -6.9120      0.0100     78.3900
    164     11.8270      4.1070      6.9960      0.0100     78.3900
    165     11.8660      4.9520      6.5110      1.5900     78.3900
    166     12.5870      5.8710      7.3450      1.7700     78.3900
    167     13.6170      5.4790      7.5050      0.0100     78.3900
    168     12.0960      5.9270      8.3420      0.0100     78.3900
    169     12.6870      7.2910      6.7660      1.7700     78.3900
    170     13.1750      7.9730      7.4950      0.0100     78.3900
    171     13.5190      7.2830      5.5660      1.5900     78.3900
    172     12.9710      8.1730      4.6050      1.7700     78.3900
    173     13.7910      8.8740      4.3270      0.0100     78.3900
    174     12.4750      7.4550      3.3930      1.6800     78.3900
    175     12.2140      6.1000      3.4160      1.7700     78.3900
    176     12.4200      5.5970      4.3610      0.0100     78.3900
    177     12.3100      8.1790      2.2330      1.7700     78.3900
    178     12.5640      9.3780      2.1640      1.5900     78.3900
    179     11.8560      7.4590      1.1570      1.6800     78.3900
    180     11.7550      7.9840      0.2960      0.0100     78.3900
    181     11.6320      6.0990      1.0920      1.7700     78.3900
    182     11.3080      5.5770      0.0260      1.5900     78.3900
    183     11.8150      5.4140      2.3360      1.7700     78.3900
    184     11.6730      4.3360      2.3690      0.0100     78.3900
    185     11.8660      8.9480      5.3010      1.7700     78.3900
    186     11.0610      9.2390      4.6000      0.0100     78.3900
    187     12.3880     10.1030      5.9300      1.5900     78.3900
    188     11.6440     10.5240      6.3770      0.0100     78.3900
    189     11.3670      7.9300      6.3190      1.7700     78.3900
    190     10.7950      7.1340      5.7980      0.0100     78.3900
    191     10.6670      8.4790      7.4630      1.5900     78.3900
    192      9.0910      8.5720      7.4260      2.1000     78.3900
    193      8.5460      7.2850      6.9400      1.5900     78.3900
    194      8.6050      9.0390      8.7420      1.5900     78.3900
    195      8.8100      9.7000      6.3590      1.5900     78.3900
    196      9.2200     11.0700      6.6110      1.7700     78.3900
    197     10.2820     11.1370      6.9430      0.0100     78.3900
    198      8.6090     11.5190      7.4250      0.0100     78.3900
    199      9.0470     11.9580      5.3660      1.7700     78.3900
    200      9.3670     13.0010      5.5730      0.0100     78.3900
    201      9.8720     11.4600      4.2710      1.5900     78.3900
    202      9.1710     11.6230      3.0410      1.7700     78.3900
    203      9.8360     12.2350      2.3890      0.0100     78.3900
    204      8.8800     10.3310      2.3510      1.6800     78.3900
    205      8.8950      9.1500      3.0540      1.7700     78.3900
    206      9.1390      9.2290      4.1130      0.0100     78.3900
    207      8.6560      7.9760      2.4560      1.7700     78.3900
    208      8.7200      7.0300      2.9890      0.0100     78.3900
    209      8.5150     10.3210      1.0070      1.7700     78.3900
    210      8.4210     11.3980      0.3980      1.5900     78.3900
    211      8.2670      9.1460      0.3840      1.6800     78.3900
    212      8.3520      7.9910      1.0650      1.7700     78.3900
    213      8.1550      6.8420      0.4210      1.6800     78.3900
    214      7.9600      6.8520     -0.5630      0.0100     78.3900
    215      8.1840      5.9570      0.8910      0.0100     78.3900
    216      7.9140     12.4120      3.3410      1.7700     78.3900
    217      7.0730     12.1440      2.6720      0.0100     78.3900
    218      8.1720     13.7960      3.2450      1.5900     78.3900
    219      7.3630     14.2450      3.5230      0.0100     78.3900
    220      7.6280     12.0060      4.7810      1.7700     78.3900
    221      7.2430     10.9600      4.8140      0.0100     78.3900
    222      6.8140     12.9450      5.5260      1.5900     78.3900
    223      5.2650     12.6850      5.6410      2.1000     78.3900
    224      5.0300     11.2340      5.7730      1.5900     78.3900
    225      4.7020     13.5450      6.7040      1.5900     78.3900
    226      4.6940     13.1540      4.2580      1.5900     78.3900
    227      4.7830     14.5210      3.8010      1.7700     78.3900
    228      5.8050     14.9380      3.9500      0.0100     78.3900
    229      4.0690     15.1650      4.3600      0.0100     78.3900
    230      4.4500     14.6270      2.3060      1.7700     78.3900
    231      4.5640     15.6690      1.9400      0.0100     78.3900
    232      5.3890     13.7970      1.5620      1.5900     78.3900
    233      4.7060     13.1210      0.5280      1.7700     78.3900
    234      5.2460     13.3750     -0.4170      0.0100     78.3900
    235      4.7280     11.6700      0.7250      1.6800     78.3900
    236      4.7190      9.5140      0.3230      1.7700     78.3900
    237      4.9240      9.6450      1.6880      1.6800     78.3900
    238      4.9160     10.9420      1.8750      1.7700     78.3900
    239      5.0630     11.4280      2.8360      0.0100     78.3900
    240      4.4630      8.6390     -1.8470      1.6800     78.3900
    241      4.2960      9.8910     -2.2680      1.7700     78.3900
    242      4.1250     10.0100     -3.3430      0.0100     78.3900
    243      4.3310     11.0160     -1.5610      1.6800     78.3900
    244      4.5740     10.7560     -0.2700      1.7700     78.3900
    245      4.6710      8.3960     -0.5290      1.7700     78.3900
    246      4.8120      7.1240     -0.1110      1.6800     78.3900
    247      4.8860      6.8840      0.8620      0.0100     78.3900
    248      4.7410      6.3710     -0.7710      0.0100     78.3900
    249      3.3020     13.6660      0.4640      1.7700     78.3900
    250      2.5620     12.8950      0.1680      0.0100     78.3900
    251      3.2560     14.7590     -0.4310      1.5900     78.3900
    252      2.3710     15.1380     -0.3580      0.0100     78.3900
    253      3.0580     14.1090      1.8980      1.7700     78.3900
    254      2.8450     13.2240      2.5430      0.0100     78.3900
    255      2.0720     15.1560      2.0310      1.5900     78.3900
    256      0.5910     14.8450      2.4560      2.1000     78.3900
    257      0.5890     13.8220      3.5200      1.5900     78.3900
    258     -0.0770     16.1290      2.7620      1.5900     78.3900
    259     -0.0840     14.2190      1.1830      1.5900     78.3900
    260     -0.2030     14.8660     -0.1000      1.7700     78.3900
    261      0.7000     15.4700     -0.3390      0.0100     78.3900
    262     -1.0680     15.5650     -0.0970      0.0100     78.3900
    263     -0.4270     13.8530     -1.2440      1.7700     78.3900
    264     -0.4900     14.3800     -2.2190      0.0100     78.3900
    265      0.7080     12.9490     -1.3230      1.5900     78.3900
    266      0.2630     11.6280     -1.5640      1.7700     78.3900
    267      0.8160     11.2720     -2.4660      0.0100     78.3900
    268      0.5630     10.7510     -0.4200      1.6800     78.3900
    269      1.0950      9.0180      0.8310      1.7700     78.3900
    270      0.8730     10.0660      1.7040      1.6800     78.3900
    271      0.5500     11.0630      0.9220      1.7700     78.3900
    272      0.3020     12.0560      1.2800      0.0100     78.3900
    273      1.5100      6.8700     -0.0440      1.6800     78.3900
    274      1.2930      7.4100     -1.2410      1.7700     78.3900
    275      1.3750      6.7110     -2.0730      0.0100     78.3900
    276      1.0370      8.6740     -1.5880      1.6800     78.3900
    277      0.9110      9.4280     -0.4840      1.7700     78.3900
    278      1.4300      7.6650      1.0450      1.7700     78.3900
    279      1.6840      7.1310      2.2530      1.6800     78.3900
    280      1.6790      7.6780      3.0960      0.0100     78.3900
    281      1.9660      6.1690      2.3190      0.0100     78.3900
    282     -1.2180     11.6870     -1.8720      1.7700     78.3900
    283     -1.7670     10.7890     -1.5150      0.0100     78.3900
    284     -1.4160     11.8340     -3.2650      1.5900     78.3900
    285     -2.3770     11.8630     -3.4170      0.0100     78.3900
    286     -1.6540     12.9380     -1.0990      1.7700     78.3900
    287     -1.7390     12.7010     -0.0150      0.0100     78.3900
    288     -2.8400     13.6120     -1.5880      1.5900     78.3900
    289     -4.2180     12.8510     -1.4950      2.1000     78.3900
    290     -4.1760     11.8830     -0.3760      1.5900     78.3900
    291     -5.2980     13.8610     -1.4730      1.5900     78.3900
    292     -4.2960     12.0530     -2.8510      1.5900     78.3900
    293     -5.2850     10.9950     -2.9960      1.7700     78.3900
    294     -6.3200     11.4080     -3.0030      0.0100     78.3900
    295     -5.2120     10.2720     -2.1480      0.0100     78.3900
    296     -5.0740     10.1860     -4.2960      1.7700     78.3900
    297     -5.4590     10.7450     -5.1750      0.0100     78.3900
    298     -3.6470      9.9700     -4.5210      1.5900     78.3900
    299     -3.4310      8.6570     -4.9950      1.7700     78.3900
    300     -2.8110      8.7360     -5.9180      0.0100     78.3900
    301     -2.7220      7.8640     -3.9870      1.6800     78.3900
    302     -1.4610      6.3670     -2.9890      1.7700     78.3900
    303     -1.9660      7.1800     -1.9840      1.6800     78.3900
    304     -2.6970      8.0570     -2.6240      1.7700     78.3900
    305     -3.2460      8.8790     -2.1570      0.0100     78.3900
    306     -0.3100      4.6650     -4.1540      1.6800     78.3900
    307     -0.8490      5.1650     -5.2710      1.7700     78.3900
    308     -0.5830      4.6400     -6.1940      0.0100     78.3900
    309     -1.6620      6.2160     -5.4150      1.6800     78.3900
    310     -1.9240      6.7790     -4.2270      1.7700     78.3900
    311     -0.6050      5.2460     -2.9680      1.7700     78.3900
    312     -0.0660      4.7280     -1.8500      1.6800     78.3900
    313     -0.2320      5.1210     -0.9380      0.0100     78.3900
    314      0.5640      3.9490     -1.9070      0.0100     78.3900
    315     -4.7810      8.0780     -5.3410      1.7700     78.3900
    316     -4.8090      6.9750     -5.2450      0.0100     78.3900
    317     -5.1380      8.4450     -6.6610      1.5900     78.3900
    318     -6.0360      8.1250     -6.8140      0.0100     78.3900
    319     -5.6680      8.7630     -4.3070      1.7700     78.3900
    320     -5.4840      8.3360     -3.2930      0.0100     78.3900
    321     -7.0690      8.8080     -4.6530      1.5900     78.3900
    322     -8.0360      7.6950     -4.1080      2.1000     78.3900
    323     -7.7370      7.4850     -2.6770      1.5900     78.3900
    324     -9.4270      8.0580     -4.4600      1.5900     78.3900
[...]

 FINAL RHF ENERGY IS    -1381.9136950071 AFTER  11 ITERATIONS
 ...... END OF RHF CALCULATION ......
 CPU     0: STEP CPU TIME=    50.94 TOTAL CPU TIME=       2357.7 (     39.3 MIN)
 TOTAL WALL CLOCK TIME=       5010.4 SECONDS, CPU UTILIZATION IS    47.06%
 DONE PCM POT.
 CPU     0: STEP CPU TIME=     0.42 TOTAL CPU TIME=       2358.1 (     39.3 MIN)
 TOTAL WALL CLOCK TIME=       5011.5 SECONDS, CPU UTILIZATION IS    47.05%

 Iter=  5 iFrag=      8 EFMO= -1432.600794922, DD= 0.004192105, DE= 0.002772970


 RHF      monomer      7 corr= NONE       , L1=   341, L0=   320 ID=      7


 AO spaces for     7     0     0 n-mer: L1=   341, L0=   320

 DIRECT SCF CALCULATION, SCHWRZ=T   FDIFF=T,  DIRTHR=  0.00E+00 NITDIR=10

                                                                                   NONZERO     BLOCKS
 ITER EX DEM     TOTAL ENERGY        E CHANGE  DENSITY CHANGE     ORB. GRAD      INTEGRALS    SKIPPED
   1  0  0    -1320.0030310640 -1320.0030310640   0.004680376   0.000000000      657501562   10588898
          ---------------START SECOND ORDER SCF---------------
   2  1  0    -1320.0029124669     0.0001185971   0.001131843   0.000332726      546133852   12227306
   3  2  0    -1320.0029427024    -0.0000302355   0.000238522   0.000064549      524352133   12447035
   4  3  0    -1320.0029308401     0.0000118622   0.000063446   0.000008479      487453439   12786036
   5  4  0    -1320.0029301189     0.0000007212   0.000020465   0.000005843      449852963   13108525
   6  5  0    -1320.0029298298     0.0000002891   0.000005393   0.000001258      422467445   13366484
   7  6  0    -1320.0029300150    -0.0000001852   0.000002064   0.000000850      383411384   13712359
   8  7  0    -1320.0029300627    -0.0000000477   0.000000763   0.000000293      353716303   13979595
   9  8  0    -1320.0029300860    -0.0000000233   0.000000239   0.000000088      328370780   14199961
  10  9  0    -1320.0029300907    -0.0000000047   0.000000160   0.000000052      299136512   14448012
  11 10  0    -1320.0029300849     0.0000000057   0.000000070   0.000000013      262870483   14741705

          -----------------
          DENSITY CONVERGED
          -----------------
     TIME TO FORM FOCK OPERATORS=      14.6 SECONDS (       1.3 SEC/ITER)
     FOCK TIME ON FIRST ITERATION=       1.8, LAST ITERATION=       0.9
     TIME TO SOLVE SCF EQUATIONS=       0.3 SECONDS (       0.0 SEC/ITER)

 FINAL RHF ENERGY IS    -1320.0029300849 AFTER  11 ITERATIONS
 ...... END OF RHF CALCULATION ......
 CPU     0: STEP CPU TIME=    42.54 TOTAL CPU TIME=       2400.7 (     40.0 MIN)
 TOTAL WALL CLOCK TIME=       5098.6 SECONDS, CPU UTILIZATION IS    47.08%
 DONE PCM POT.
 CPU     0: STEP CPU TIME=     0.36 TOTAL CPU TIME=       2401.1 (     40.0 MIN)
 TOTAL WALL CLOCK TIME=       5099.6 SECONDS, CPU UTILIZATION IS    47.08%

 Iter=  5 iFrag=      7 EFMO= -1360.685895576, DD= 0.003810038, DE= 0.002817573


 RHF      monomer      6 corr= NONE       , L1=   339, L0=   318 ID=      8


 AO spaces for     6     0     0 n-mer: L1=   339, L0=   318

 DIRECT SCF CALCULATION, SCHWRZ=T   FDIFF=T,  DIRTHR=  0.00E+00 NITDIR=10

                                                                                   NONZERO     BLOCKS
 ITER EX DEM     TOTAL ENERGY        E CHANGE  DENSITY CHANGE     ORB. GRAD      INTEGRALS    SKIPPED
   1  0  0    -1346.1245542452 -1346.1245542452   0.003447808   0.000000000      648975217    9563984
          ---------------START SECOND ORDER SCF---------------
   2  1  0    -1346.1245046611     0.0000495840   0.000815286   0.000201544      537750679   11181927
   3  2  0    -1346.1245103817    -0.0000057206   0.000173088   0.000054294      517233651   11382401
   4  3  0    -1346.1245054517     0.0000049300   0.000041198   0.000008622      480073174   11717819
   5  4  0    -1346.1245044771     0.0000009746   0.000013812   0.000003805      441603765   12044292
   6  5  0    -1346.1245044074     0.0000000697   0.000003878   0.000001904      415396808   12283859
   7  6  0    -1346.1245043838     0.0000000236   0.000001257   0.000000530      376763972   12626731
   8  7  0    -1346.1245044671    -0.0000000833   0.000000644   0.000000393      345238075   12888405
   9  8  0    -1346.1245044801    -0.0000000129   0.000000278   0.000000147      321917410   13092672
  10  9  0    -1346.1245044870    -0.0000000069   0.000000116   0.000000040      294660447   13320605
  11 10  0    -1346.1245044786     0.0000000084   0.000000057   0.000000014      259490354   13593288

          -----------------
          DENSITY CONVERGED
          -----------------
     TIME TO FORM FOCK OPERATORS=      14.5 SECONDS (       1.3 SEC/ITER)
     FOCK TIME ON FIRST ITERATION=       2.2, LAST ITERATION=       0.8
     TIME TO SOLVE SCF EQUATIONS=       0.3 SECONDS (       0.0 SEC/ITER)

 FINAL RHF ENERGY IS    -1346.1245044786 AFTER  11 ITERATIONS
 ...... END OF RHF CALCULATION ......
 CPU     0: STEP CPU TIME=    24.33 TOTAL CPU TIME=       2425.4 (     40.4 MIN)
 TOTAL WALL CLOCK TIME=       5159.1 SECONDS, CPU UTILIZATION IS    47.01%
 DONE PCM POT.
 CPU     0: STEP CPU TIME=     0.36 TOTAL CPU TIME=       2425.7 (     40.4 MIN)
 TOTAL WALL CLOCK TIME=       5160.1 SECONDS, CPU UTILIZATION IS    47.01%

 Iter=  5 iFrag=      6 EFMO= -1380.545491489, DD= 0.002829928, DE= 0.001731857


 RHF      monomer      2 corr= NONE       , L1=   339, L0=   318 ID=      9


 AO spaces for     2     0     0 n-mer: L1=   339, L0=   318

 DIRECT SCF CALCULATION, SCHWRZ=T   FDIFF=T,  DIRTHR=  0.00E+00 NITDIR=10

                                                                                   NONZERO     BLOCKS
 ITER EX DEM     TOTAL ENERGY        E CHANGE  DENSITY CHANGE     ORB. GRAD      INTEGRALS    SKIPPED
   1  0  0    -1332.9399119184 -1332.9399119184   0.004691964   0.000000000      652300183    9615718
          ---------------START SECOND ORDER SCF---------------
   2  1  0    -1332.9397516659     0.0001602525   0.001155322   0.000331005      538467758   11160864
   3  2  0    -1332.9397941142    -0.0000424483   0.000231678   0.000069983      516876543   11371044
   4  3  0    -1332.9397777045     0.0000164096   0.000064054   0.000007747      479510454   11702872
   5  4  0    -1332.9397767291     0.0000009754   0.000017034   0.000006306      440112405   12035563
   6  5  0    -1332.9397764874     0.0000002417   0.000005530   0.000001305      413717012   12274776
   7  6  0    -1332.9397766558    -0.0000001684   0.000001738   0.000000599      372924169   12629342
   8  7  0    -1332.9397767156    -0.0000000598   0.000000765   0.000000168      339457605   12914969
   9  8  0    -1332.9397767392    -0.0000000236   0.000000229   0.000000072      309944272   13166548
  10  9  0    -1332.9397767515    -0.0000000123   0.000000084   0.000000022      280752964   13416185
  11 10  0    -1332.9397767473     0.0000000042   0.000000000   0.000000009      244682182   13694934

          -----------------
          DENSITY CONVERGED
          -----------------
     TIME TO FORM FOCK OPERATORS=      15.1 SECONDS (       1.4 SEC/ITER)
     FOCK TIME ON FIRST ITERATION=       2.6, LAST ITERATION=       0.8
     TIME TO SOLVE SCF EQUATIONS=       0.3 SECONDS (       0.0 SEC/ITER)

 FINAL RHF ENERGY IS    -1332.9397767473 AFTER  11 ITERATIONS
 ...... END OF RHF CALCULATION ......
 CPU     0: STEP CPU TIME=    44.21 TOTAL CPU TIME=       2469.9 (     41.2 MIN)
 TOTAL WALL CLOCK TIME=       5246.1 SECONDS, CPU UTILIZATION IS    47.08%
 DONE PCM POT.
 CPU     0: STEP CPU TIME=     0.34 TOTAL CPU TIME=       2470.3 (     41.2 MIN)
 TOTAL WALL CLOCK TIME=       5247.1 SECONDS, CPU UTILIZATION IS    47.08%

 Iter=  5 iFrag=      2 EFMO= -1380.571225579, DD= 0.003794979, DE= 0.002114978


 RHF      monomer      5 corr= NONE       , L1=   326, L0=   306 ID=     10


 AO spaces for     5     0     0 n-mer: L1=   326, L0=   306

 DIRECT SCF CALCULATION, SCHWRZ=T   FDIFF=T,  DIRTHR=  0.00E+00 NITDIR=10

                                                                                   NONZERO     BLOCKS
 ITER EX DEM     TOTAL ENERGY        E CHANGE  DENSITY CHANGE     ORB. GRAD      INTEGRALS    SKIPPED
   1  0  0     -899.5830740688  -899.5830740688   0.005506057   0.000000000      457860133   11337548
          ---------------START SECOND ORDER SCF---------------
   2  1  0     -899.5829321982     0.0001418706   0.001343571   0.000356741      392302566   12478641
   3  2  0     -899.5829844644    -0.0000522662   0.000271307   0.000070248      381084934   12623881
   4  3  0     -899.5829701633     0.0000143011   0.000066805   0.000023720      361200182   12854110
   5  4  0     -899.5829700689     0.0000000945   0.000025475   0.000007660      339443625   13079145
   6  5  0     -899.5829698401     0.0000002287   0.000007653   0.000002238      322072650   13273586
   7  6  0     -899.5829702184    -0.0000003783   0.000002180   0.000001207      296908928   13538586
   8  7  0     -899.5829701750     0.0000000434   0.000000746   0.000000243      274220446   13768001
   9  8  0     -899.5829701793    -0.0000000043   0.000000335   0.000000094      255277252   13960359
  10  9  0     -899.5829701821    -0.0000000027   0.000000126   0.000000054      238775202   14133427

          -----------------
          DENSITY CONVERGED
          -----------------
     TIME TO FORM FOCK OPERATORS=      11.3 SECONDS (       1.1 SEC/ITER)
     FOCK TIME ON FIRST ITERATION=       1.7, LAST ITERATION=       0.8
     TIME TO SOLVE SCF EQUATIONS=       0.3 SECONDS (       0.0 SEC/ITER)

 FINAL RHF ENERGY IS     -899.5829701821 AFTER  10 ITERATIONS
 ...... END OF RHF CALCULATION ......
 CPU     0: STEP CPU TIME=    22.01 TOTAL CPU TIME=       2492.3 (     41.5 MIN)
 TOTAL WALL CLOCK TIME=       5295.4 SECONDS, CPU UTILIZATION IS    47.07%
 DONE PCM POT.
 CPU     0: STEP CPU TIME=     0.29 TOTAL CPU TIME=       2492.6 (     41.5 MIN)
 TOTAL WALL CLOCK TIME=       5296.2 SECONDS, CPU UTILIZATION IS    47.06%

 Iter=  5 iFrag=      5 EFMO=  -942.878344424, DD= 0.004506412, DE= 0.003329455


 RHF      monomer     11 corr= NONE       , L1=   262, L0=   246 ID=     11


 AO spaces for    11     0     0 n-mer: L1=   262, L0=   246

 DIRECT SCF CALCULATION, SCHWRZ=T   FDIFF=T,  DIRTHR=  0.00E+00 NITDIR=10

                                                                                   NONZERO     BLOCKS
 ITER EX DEM     TOTAL ENERGY        E CHANGE  DENSITY CHANGE     ORB. GRAD      INTEGRALS    SKIPPED
   1  0  0     -781.9477041331  -781.9477041331   0.005225533   0.000000000      323879253    3476482
          ---------------START SECOND ORDER SCF---------------
   2  1  0     -781.9476020895     0.0001020437   0.001226751   0.000268702      275491567    4287383
   3  2  0     -781.9476288536    -0.0000267642   0.000265697   0.000054308      266462484    4404527
   4  3  0     -781.9476222866     0.0000065670   0.000050207   0.000007882      250293168    4595066
   5  4  0     -781.9476202324     0.0000020542   0.000022640   0.000003068      231865653    4793644
   6  5  0     -781.9476204033    -0.0000001709   0.000004551   0.000001055      221165656    4919208
   7  6  0     -781.9476204160    -0.0000000126   0.000001817   0.000000598      201801961    5149591
   8  7  0     -781.9476204565    -0.0000000405   0.000000568   0.000000103      187139267    5301433
   9  8  0     -781.9476204692    -0.0000000127   0.000000222   0.000000045      169038282    5490898
  10  9  0     -781.9476204730    -0.0000000038   0.000000065   0.000000017      154043464    5649942
  11 10  0     -781.9476204728     0.0000000001   0.000000000   0.000000006      137301162    5814057

          -----------------
          DENSITY CONVERGED
          -----------------
     TIME TO FORM FOCK OPERATORS=       8.8 SECONDS (       0.8 SEC/ITER)
     FOCK TIME ON FIRST ITERATION=       2.1, LAST ITERATION=       0.5
     TIME TO SOLVE SCF EQUATIONS=       0.1 SECONDS (       0.0 SEC/ITER)

 FINAL RHF ENERGY IS     -781.9476204728 AFTER  11 ITERATIONS
 ...... END OF RHF CALCULATION ......
 CPU     0: STEP CPU TIME=    20.97 TOTAL CPU TIME=       2513.6 (     41.9 MIN)
 TOTAL WALL CLOCK TIME=       5341.3 SECONDS, CPU UTILIZATION IS    47.06%
 DONE PCM POT.
 CPU     0: STEP CPU TIME=     0.25 TOTAL CPU TIME=       2513.8 (     41.9 MIN)
 TOTAL WALL CLOCK TIME=       5342.0 SECONDS, CPU UTILIZATION IS    47.06%

 Iter=  5 iFrag=     11 EFMO=  -815.658403370, DD= 0.004285196, DE= 0.005555648

 CPU     0: STEP CPU TIME=     0.00 TOTAL CPU TIME=       2513.8 (     41.9 MIN)
 TOTAL WALL CLOCK TIME=       5342.0 SECONDS, CPU UTILIZATION IS    47.06%

  Monomer SCF synchronisation on iteration   5.1 took     0.0 s.
 CPU     0: STEP CPU TIME=     0.00 TOTAL CPU TIME=       2513.8 (     41.9 MIN)
 TOTAL WALL CLOCK TIME=       5342.0 SECONDS, CPU UTILIZATION IS    47.06%
 dmexch needs              4174666  words of memory.
 CPU     0: STEP CPU TIME=     0.02 TOTAL CPU TIME=       2513.8 (     41.9 MIN)
 TOTAL WALL CLOCK TIME=       5342.1 SECONDS, CPU UTILIZATION IS    47.06%

 Data exchange of   1382864 words took     0.0 s.

 Calculating apparent surface charges...
     Using       55313 words of memory.
 ASC ITERATION=   1 CONVERGED TO  0.147890E-03
 ASC ITERATION=   2 CONVERGED TO  0.128352E-02
 ASC ITERATION=   3 CONVERGED TO  0.222080E-02
 ASC ITERATION=   4 CONVERGED TO  0.355112E-03
 ASC ITERATION=   5 CONVERGED TO  0.122156E-03
 ASC ITERATION=   6 CONVERGED TO  0.976255E-04
 ASC ITERATION=   7 CONVERGED TO  0.533648E-04
 ASC ITERATION=   8 CONVERGED TO  0.304989E-04
 ASC ITERATION=   9 CONVERGED TO  0.206838E-04
 ASC ITERATION=  10 CONVERGED TO  0.151728E-04
 ASC ITERATION=  11 CONVERGED TO  0.619257E-05
 ASC ITERATION=  12 CONVERGED TO  0.279728E-05
 ASC ITERATION=  13 CONVERGED TO  0.120314E-05
 ASC ITERATION=  14 CONVERGED TO  0.897677E-06
 ASC ITERATION=  15 CONVERGED TO  0.516781E-06
 ASC ITERATION=  16 CONVERGED TO  0.318083E-06
 ASC ITERATION=  17 CONVERGED TO  0.169023E-06
 ASC ITERATION=  18 CONVERGED TO  0.946956E-07
 ASC ITERATION=  19 CONVERGED TO  0.636352E-07
 ASC ITERATION=  20 CONVERGED TO  0.300720E-07
 ASC ITERATION=  21 CONVERGED TO  0.203913E-07
 ASC ITERATION=  22 CONVERGED TO  0.135186E-07
 ASC ITERATION=  23 CONVERGED TO  0.733994E-08
 ASC ITERATION=  24 CONVERGED TO  0.459935E-08
 ASC ITERATION=  25 CONVERGED TO  0.297328E-08
 ASC ITERATION=  26 CONVERGED TO  0.185187E-08
 ASC ITERATION=  27 CONVERGED TO  0.890052E-09
 ASC ITERATION=  28 CONVERGED TO  0.455766E-09
 ASC ITERATION=  29 CONVERGED TO  0.285108E-09
 ASC ITERATION=  30 CONVERGED TO  0.177894E-09
 ASC ITERATION=  31 CONVERGED TO  0.975821E-10

 THE ASC EQUATIONS FOR PHASE=1 CONVERGED IN  31 ITERATIONS.

 PCM ASC=      8.8262184737 normalised to=      8.8851894374
 Nuclear factor=   1.0027612095, electronic factor=   1.0027809758

 CPU     0: STEP CPU TIME=     0.21 TOTAL CPU TIME=       2514.0 (     41.9 MIN)
 TOTAL WALL CLOCK TIME=       5342.5 SECONDS, CPU UTILIZATION IS    47.06%


 ------------------------------------------------------------------------------
 FMO iter  5.1,      0 fragment(s) converged, maxD 0.004506412 maxE 0.005555648
 ------------------------------------------------------------------------------

 RHF      monomer      1 corr= NONE       , L1=   388, L0=   364 ID=      1


 AO spaces for     1     0     0 n-mer: L1=   388, L0=   364

 DIRECT SCF CALCULATION, SCHWRZ=T   FDIFF=T,  DIRTHR=  0.00E+00 NITDIR=10

                                                                                   NONZERO     BLOCKS
 ITER EX DEM     TOTAL ENERGY        E CHANGE  DENSITY CHANGE     ORB. GRAD      INTEGRALS    SKIPPED
   1  0  0    -1469.4917040584 -1469.4917040584   0.001016257   0.000000000      958113886   18757251
          ---------------START SECOND ORDER SCF---------------
   2  1  0    -1469.4916580654     0.0000459930   0.000158383   0.000052362      714999998   21717272
   3  2  0    -1469.4916652493    -0.0000071839   0.000097405   0.000014715      679922814   22009215
   4  3  0    -1469.4916604973     0.0000047520   0.000021449   0.000007470      636530051   22396200
   5  4  0    -1469.4916612104    -0.0000007131   0.000006897   0.000002748      587555923   22823685
   6  5  0    -1469.4916616264    -0.0000004160   0.000003089   0.000000736      541883034   23204337
   7  6  0    -1469.4916616115     0.0000000149   0.000000933   0.000000299      492130195   23599458
   8  7  0    -1469.4916615981     0.0000000134   0.000000203   0.000000068      439928394   24044056
   9  8  0    -1469.4916616199    -0.0000000218   0.000000106   0.000000031      398581798   24391654
  10  9  0    -1469.4916616243    -0.0000000044   0.000000027   0.000000019      351065928   24748701

          -----------------
          DENSITY CONVERGED
          -----------------
     TIME TO FORM FOCK OPERATORS=      18.2 SECONDS (       1.8 SEC/ITER)
     FOCK TIME ON FIRST ITERATION=       3.2, LAST ITERATION=       1.1
     TIME TO SOLVE SCF EQUATIONS=       0.4 SECONDS (       0.0 SEC/ITER)

 FINAL RHF ENERGY IS    -1469.4916616243 AFTER  10 ITERATIONS
 ...... END OF RHF CALCULATION ......
 CPU     0: STEP CPU TIME=    33.52 TOTAL CPU TIME=       2547.6 (     42.5 MIN)
 TOTAL WALL CLOCK TIME=       5412.8 SECONDS, CPU UTILIZATION IS    47.07%
 DONE PCM POT.
 CPU     0: STEP CPU TIME=     0.45 TOTAL CPU TIME=       2548.0 (     42.5 MIN)
 TOTAL WALL CLOCK TIME=       5414.1 SECONDS, CPU UTILIZATION IS    47.06%

 Iter=  6 iFrag=      1 EFMO= -1522.825507892, DD= 0.001243048, DE=-0.003336306


 RHF      monomer      4 corr= NONE       , L1=   386, L0=   362 ID=      2


 AO spaces for     4     0     0 n-mer: L1=   386, L0=   362

 DIRECT SCF CALCULATION, SCHWRZ=T   FDIFF=T,  DIRTHR=  0.00E+00 NITDIR=10

                                                                                   NONZERO     BLOCKS
 ITER EX DEM     TOTAL ENERGY        E CHANGE  DENSITY CHANGE     ORB. GRAD      INTEGRALS    SKIPPED
   1  0  0    -1453.0351031225 -1453.0351031225   0.001434385   0.000000000      889715754   17647465
          ---------------START SECOND ORDER SCF---------------
   2  1  0    -1453.0349728846     0.0001302379   0.000259266   0.000048338      709058943   20173015
   3  2  0    -1453.0349838354    -0.0000109508   0.000161156   0.000017595      674031960   20485844
   4  3  0    -1453.0349721569     0.0000116784   0.000030241   0.000005824      627048468   20885885
   5  4  0    -1453.0349719005     0.0000002564   0.000008242   0.000001994      577768137   21305756
   6  5  0    -1453.0349723637    -0.0000004632   0.000002038   0.000000508      526843157   21705662
   7  6  0    -1453.0349724369    -0.0000000732   0.000000804   0.000000165      481903550   22072706
   8  7  0    -1453.0349724215     0.0000000154   0.000000243   0.000000061      435125819   22456565
   9  8  0    -1453.0349724163     0.0000000052   0.000000112   0.000000040      393050122   22793584
  10  9  0    -1453.0349724155     0.0000000008   0.000000030   0.000000016      354236523   23092217

          -----------------
          DENSITY CONVERGED
          -----------------
     TIME TO FORM FOCK OPERATORS=      18.5 SECONDS (       1.9 SEC/ITER)
     FOCK TIME ON FIRST ITERATION=       3.2, LAST ITERATION=       1.0
     TIME TO SOLVE SCF EQUATIONS=       0.4 SECONDS (       0.0 SEC/ITER)

 FINAL RHF ENERGY IS    -1453.0349724155 AFTER  10 ITERATIONS
 ...... END OF RHF CALCULATION ......
 CPU     0: STEP CPU TIME=    44.29 TOTAL CPU TIME=       2592.3 (     43.2 MIN)
 TOTAL WALL CLOCK TIME=       5504.1 SECONDS, CPU UTILIZATION IS    47.10%
 DONE PCM POT.
 CPU     0: STEP CPU TIME=     0.44 TOTAL CPU TIME=       2592.7 (     43.2 MIN)
 TOTAL WALL CLOCK TIME=       5505.3 SECONDS, CPU UTILIZATION IS    47.10%

 Iter=  6 iFrag=      4 EFMO= -1507.474689955, DD= 0.001757487, DE=-0.003108970


 RHF      monomer      3 corr= NONE       , L1=   386, L0=   362 ID=      3

