‘2LHP_2_fmo_input.inp’ -> ‘/scratch/hazwong/820699/./2LHP_2_fmo_input.inp’
‘rungms’ -> ‘/scratch/hazwong/820699/./rungms’
‘gms-files.csh’ -> ‘/scratch/hazwong/820699/./gms-files.csh’
----- GAMESS execution script 'rungms' -----
This job is running on host gollum053.lsa.umich.edu
under operating system Linux at Thu Dec 5 23:24:41 EST 2019
Available scratch disk space (Kbyte units) at beginning of the job is
Filesystem     1K-blocks  Used Available Use% Mounted on
/dev/sda4      426933580 33468 426900112   1% /scratch
GAMESS temporary binary files will be written to /scratch/hazwong/820699/2LHP_2/usrc
GAMESS supplementary output files will be written to /scratch/hazwong/820699/2LHP_2/src
Copying input file 2LHP_2_fmo_input.inp to your run's scratch directory...
cp 2LHP_2_fmo_input.inp /scratch/hazwong/820699/2LHP_2/usrc/2LHP_2_fmo_input.F05
unset echo
This is a GDDI run, keeping various output files on local disks
setenv OUTPUT /scratch/hazwong/820699/2LHP_2/usrc/2LHP_2_fmo_input.F06
setenv PUNCH /scratch/hazwong/820699/2LHP_2/usrc/2LHP_2_fmo_input.F07
unset echo
 
Assuming a single but multicore node.
 
/export/apps/CentOS7/gamess/src/build//ddikick.x /export/apps/CentOS7/gamess/src/build//gamess.R3.x 2LHP_2_fmo_input -ddi 1 16 gollum053.lsa.umich.edu:cpus=16 -scr /scratch/hazwong/820699/2LHP_2/usrc

 Distributed Data Interface kickoff program.
 Initiating 16 compute processes on 1 nodes to run the following command:
 /export/apps/CentOS7/gamess/src/build//gamess.R3.x 2LHP_2_fmo_input 

          ******************************************************
          *         GAMESS VERSION = 30 SEP 2018 (R3)         *
          *             FROM IOWA STATE UNIVERSITY             *
          * M.W.SCHMIDT, K.K.BALDRIDGE, J.A.BOATZ, S.T.ELBERT, *
          *   M.S.GORDON, J.H.JENSEN, S.KOSEKI, N.MATSUNAGA,   *
          *          K.A.NGUYEN, S.J.SU, T.L.WINDUS,           *
          *       TOGETHER WITH M.DUPUIS, J.A.MONTGOMERY       *
          *         J.COMPUT.CHEM.  14, 1347-1363(1993)        *
          **************** 64 BIT LINUX VERSION ****************

  SINCE 1993, STUDENTS AND POSTDOCS WORKING AT IOWA STATE UNIVERSITY
  AND ALSO IN THEIR VARIOUS JOBS AFTER LEAVING ISU HAVE MADE IMPORTANT
  CONTRIBUTIONS TO THE CODE:
     IVANA ADAMOVIC, CHRISTINE AIKENS, YURI ALEXEEV, POOJA ARORA,
     ANDREY ASADCHEV, ROB BELL, PRADIPTA BANDYOPADHYAY, JONATHAN BENTZ,
     BRETT BODE, KURT BRORSEN, CALEB CARLIN, GALINA CHABAN, WEI CHEN,
     CHEOL HO CHOI, PAUL DAY, ALBERT DEFUSCO, NUWAN DESILVA, TIM DUDLEY,
     DMITRI FEDOROV, ALEX FINDLATER, GRAHAM FLETCHER, MARK FREITAG,
     KURT GLAESEMANN, ANASTASIA GUNINA,
     DAN KEMP, GRANT MERRILL, NORIYUKI MINEZAWA, JONATHAN MULLIN,
     TAKESHI NAGATA, SEAN NEDD, HEATHER NETZLOFF, BOSILJKA NJEGIC, RYAN OLSON,
     MIKE PAK, BUU PHAM,
     SPENCER PRUITT, LUKE ROSKOP, JIM SHOEMAKER, LYUDMILA SLIPCHENKO,
     TONY SMITH, SAROM SOK LEANG, JIE SONG, TETSUYA TAKETSUGU, SIMON WEBB,
     PENG XU, SOOHAENG YOO, FEDERICO ZAHARIEV

  ADDITIONAL CODE HAS BEEN PROVIDED BY COLLABORATORS IN OTHER GROUPS:
     IOWA STATE UNIVERSITY:
          JOE IVANIC, AARON WEST, LAIMUTIS BYTAUTAS, KLAUS RUEDENBERG
     UNIVERSITY OF TOKYO: KIMIHIKO HIRAO, TAKAHITO NAKAJIMA,
          TAKAO TSUNEDA, MUNEAKI KAMIYA, SUSUMU YANAGISAWA,
          KIYOSHI YAGI, MAHITO CHIBA, SEIKEN TOKURA, NAOAKI KAWAKAMI
     UNIVERSITY OF AARHUS: FRANK JENSEN
     UNIVERSITY OF IOWA: VISVALDAS KAIRYS, HUI LI
     NATIONAL INST. OF STANDARDS AND TECHNOLOGY: WALT STEVENS, DAVID GARMER
     UNIVERSITY OF PISA: BENEDETTA MENNUCCI, JACOPO TOMASI
     UNIVERSITY OF MEMPHIS: HENRY KURTZ, PRAKASHAN KORAMBATH
     UNIVERSITY OF ALBERTA: TOBY ZENG, MARIUSZ KLOBUKOWSKI
     UNIVERSITY OF NEW ENGLAND: MARK SPACKMAN
     MIE UNIVERSITY: HIROAKI UMEDA
     NAT. INST. OF ADVANCED INDUSTRIAL SCIENCE AND TECHNOLOGY: KAZUO KITAURA
     MICHIGAN STATE UNIVERSITY:
          KAROL KOWALSKI, MARTA WLOCH, JEFFREY GOUR, JESSE LUTZ,
          WEI LI, JUN SHEN, J. EMILIANO DEUSTUA, PIOTR PIECUCH
     UNIVERSITY OF MINNESOTA:
          YINAN SHU
     UNIVERSITY OF SILESIA: MONIKA MUSIAL, STANISLAW KUCHARSKI
     FACULTES UNIVERSITAIRES NOTRE-DAME DE LA PAIX:
          OLIVIER QUINET, BENOIT CHAMPAGNE
     UNIVERSITY OF CALIFORNIA - SANTA BARBARA: BERNARD KIRTMAN
     INSTITUTE FOR MOLECULAR SCIENCE:
          KAZUYA ISHIMURA, MICHIO KATOUDA, AND SHIGERU NAGASE
     UNIVERSITY OF NOTRE DAME: ANNA POMOGAEVA, DAN CHIPMAN
     KYUSHU UNIVERSITY:
          HARUYUKI NAKANO,
          FENG LONG GU, JACEK KORCHOWIEC, MARCIN MAKOWSKI, AND YURIKO AOKI,
          HIROTOSHI MORI AND EISAKU MIYOSHI
     PENNSYLVANIA STATE UNIVERSITY:
          TZVETELIN IORDANOV, CHET SWALINA, JONATHAN SKONE,
          SHARON HAMMES-SCHIFFER
     WASEDA UNIVERSITY:
          MASATO KOBAYASHI, TOMOKO AKAMA, TSUGUKI TOUMA,
          TAKESHI YOSHIKAWA, YASUHIRO IKABATA, JUNJI SEINO,
          YUYA NAKAJIMA, HIROMI NAKAI
     NANJING UNIVERSITY: SHUHUA LI
     UNIVERSITY OF NEBRASKA:
          PEIFENG SU, DEJUN SI, NANDUN THELLAMUREGE, YALI WANG, HUI LI
     UNIVERSITY OF ZURICH: ROBERTO PEVERATI, KIM BALDRIDGE
     N. COPERNICUS UNIVERSITY AND JACKSON STATE UNIVERSITY:
          MARIA BARYSZ
     UNIVERSITY OF COPENHAGEN: Jimmy Kromann, CASPER STEINMANN
     TOKYO INSTITUTE OF TECHNOLOGY: HIROYA NAKATA
     NAGOYA UNIVERSITY: YOSHIO NISHIMOTO, STEPHAN IRLE
     MOSCOW STATE UNIVERSITY: VLADIMIR MIRONOV


 PARALLEL VERSION RUNNING ON       16 PROCESSORS IN        1 NODES.

 EXECUTION OF GAMESS BEGUN Thu Dec  5 23:24:42 2019

            ECHO OF THE FIRST FEW INPUT CARDS -
 INPUT CARD>!*** FMO 5.3 (Gamess) INPUT generated by Facio 22.1.1.32 ***                    
 INPUT CARD> $CONTRL RUNTYP=ENERGY NPRINT=-5 ISPHER=1 MAXIT=200 $END                        
 INPUT CARD> $SYSTEM MWORDS=63 MEMDDI=63 $END                                               
 INPUT CARD> $GDDI NGROUP=1 $END                                                            
 INPUT CARD> $SCF DIRSCF=.TRUE. NPUNCH=0 $END                                               
 INPUT CARD>!*** NumCPU : 2  MemPerNode : 512MB                                             
 INPUT CARD> $PCM SOLVNT=WATER IEF=-10 ICOMP=2 ICAV=1 IDISP=1 IFMO=-1 $END                  
 INPUT CARD> $PCMCAV RADII=SUAHF $END                                                       
 INPUT CARD> $TESCAV NTSALL=60 $END                                                         
 INPUT CARD> $FMOPRP                                                                        
 INPUT CARD>    NAODIR=200                                                                  
 INPUT CARD>    NGRFMO(1)=1, 1, 0, 0, 0,   0, 0, 0, 0, 0                                    
 INPUT CARD>    IPIEDA=1                                                                    
 INPUT CARD>    NPRINT=9                                                                    
 INPUT CARD> $END                                                                           
 INPUT CARD> $FMO                                                                           
 INPUT CARD>      SCFTYP(1)=RHF                                                             
 INPUT CARD>      MODGRD=10                                                                 
 INPUT CARD>      MODMUL=0                                                                  
 INPUT CARD>      MAXCAO=5                                                                  
 INPUT CARD>      MAXBND=13                                                                 
 INPUT CARD>      NLAYER=1                                                                  
 INPUT CARD>      MPLEVL(1)=2                                                               
 INPUT CARD>      NFRAG=11                                                                  
 INPUT CARD>      ICHARG(1)=-1, -1, -1, -1, 0, -1, -1, -1, -1, -1, 0                        
 INPUT CARD>      FRGNAM(1)=F1, F2, F3, F4, F5, F6, F7, F8, F9, F10, F11                    
 INPUT CARD>      indat(1)=0                                                                
 INPUT CARD>               1   -35   0                                                      
 INPUT CARD>               36   -65   0                                                     
 INPUT CARD>               66   -99   0                                                     
 INPUT CARD>               100   -133   0                                                   
 INPUT CARD>               134   -165   0                                                   
 INPUT CARD>               166   -195   0                                                   
 INPUT CARD>               196   -226   0                                                   
 INPUT CARD>               227   -259   0                                                   
 INPUT CARD>               260   -292   0                                                   
 INPUT CARD>               293   -325   0                                                   
 INPUT CARD>               326   -352   0                                                   
 INPUT CARD> $END                                                                           
 INPUT CARD>                                                                                
 INPUT CARD> $FMOBND                                                                        
 INPUT CARD>   -36   35       6-31G*    MINI                                                
 INPUT CARD>   -66   65       6-31G*    MINI                                                
 INPUT CARD>   -100   99       6-31G*    MINI                                               
 INPUT CARD>   -134   133       6-31G*    MINI                                              
 INPUT CARD>   -166   165       6-31G*    MINI                                              
 INPUT CARD>   -196   195       6-31G*    MINI                                              
 INPUT CARD>   -227   226       6-31G*    MINI                                              
 INPUT CARD>   -260   259       6-31G*    MINI                                              
 INPUT CARD>   -293   292       6-31G*    MINI                                              


 -------------------------------------------------------------
 GROUP DDI, PROGRAMMED BY: RYAN M. OLSON AND DMITRI G. FEDOROV
        FEDOROV ET AL., J. COMPUT. CHEM., 25 (2004) 872.
 -------------------------------------------------------------

 -------------------------------------------------------
 GDDI: INITIALIZATION COMPLETED FOR GROUP     1 OF     1
 WITH    16 PROCESSES BALTYP=DLB   global rank=        0
 -------------------------------------------------------

   63000000 WORDS OF MEMORY AVAILABLE


     RUN TITLE
     ---------
  FMO calculation                                                                

 THE POINT GROUP OF THE MOLECULE IS C1      
 THE ORDER OF THE PRINCIPAL AXIS IS     0

 ATOM   ATOMIC CHARGE
 H.1-1       1.0
 O.1-1       8.0
 C.1-1       6.0
 N.1-1       7.0
 P.1-1      15.0

     ATOMIC BASIS SET LIBRARY
     ----------------
 THE CONTRACTED PRIMITIVE FUNCTIONS HAVE BEEN UNNORMALIZED
 THE CONTRACTED BASIS FUNCTIONS ARE NOW NORMALIZED TO UNITY

  SHELL TYPE  PRIMITIVE        EXPONENT          CONTRACTION COEFFICIENT(S)

 H.1-1     

      1   S       1            18.7311370    0.033494604338
      1   S       2             2.8253944    0.234726953484
      1   S       3             0.6401217    0.813757326146

      2   S       4             0.1612778    1.000000000000

 O.1-1     

      3   S       5          5484.6716600    0.001831074430
      3   S       6           825.2349460    0.013950172200
      3   S       7           188.0469580    0.068445078098
      3   S       8            52.9645000    0.232714335992
      3   S       9            16.8975704    0.470192897984
      3   S      10             5.7996353    0.358520852987

      4   L      11            15.5396162   -0.110777549525    0.070874268231
      4   L      12             3.5999336   -0.148026262701    0.339752839147
      4   L      13             1.0137618    1.130767015354    0.727158577316

      5   L      14             0.2700058    1.000000000000    1.000000000000

      6   D      15             0.8000000    1.000000000000

 C.1-1     

      7   S      16          3047.5248800    0.001834737132
      7   S      17           457.3695180    0.014037322813
      7   S      18           103.9486850    0.068842622264
      7   S      19            29.2101553    0.232184443216
      7   S      20             9.2866630    0.467941348435
      7   S      21             3.1639270    0.362311985337

      8   L      22             7.8682723   -0.119332419775    0.068999066591
      8   L      23             1.8812885   -0.160854151696    0.316423960957
      8   L      24             0.5442493    1.143456437840    0.744308290898

      9   L      25             0.1687145    1.000000000000    1.000000000000

     10   D      26             0.8000000    1.000000000000

 N.1-1     

     11   S      27          4173.5114600    0.001834772160
     11   S      28           627.4579110    0.013994627002
     11   S      29           142.9020930    0.068586551812
     11   S      30            40.2343293    0.232240873040
     11   S      31            12.8202129    0.469069948082
     11   S      32             4.3904370    0.360455199063

     12   L      33            11.6263619   -0.114961181702    0.067579743878
     12   L      34             2.7162798   -0.169117478561    0.323907295893
     12   L      35             0.7722184    1.145851947027    0.740895139755

     13   L      36             0.2120315    1.000000000000    1.000000000000

     14   D      37             0.8000000    1.000000000000

 P.1-1     

     15   S      38         19413.3000000    0.001851598923
     15   S      39          2909.4200000    0.014206191735
     15   S      40           661.3640000    0.069999459277
     15   S      41           185.7590000    0.240078860331
     15   S      42            59.1943000    0.484761717984
     15   S      43            20.0310000    0.335199804993

     16   L      44           339.4780000   -0.002782170105    0.004564616191
     16   L      45            81.0101000   -0.036049901354    0.033693571881
     16   L      46            25.8780000   -0.116631004382    0.139754883368
     16   L      47             9.4522100    0.096832803638    0.339361716786
     16   L      48             3.6656600    0.614418023082    0.450920623685
     16   L      49             1.4674600    0.403798015170    0.238585800889

     17   L      50             2.1562300   -0.252924113863   -0.017765312733
     17   L      51             0.7489970    0.032851844678    0.274058196433
     17   L      52             0.2831450    1.081254761783    0.785421562957

     18   L      53             0.0998317    1.000000000000    1.000000000000

     19   D      54             0.5500000    1.000000000000

 TOTAL NUMBER OF BASIS SET SHELLS             =   19
 NUMBER OF CARTESIAN GAUSSIAN BASIS FUNCTIONS =   66

     $CONTRL OPTIONS
     ---------------
 SCFTYP=RHF          RUNTYP=ENERGY       EXETYP=RUN     
 MPLEVL=       0     CITYP =NONE         CCTYP =NONE         VBTYP =NONE    
 DFTTYP=NONE         TDDFT =NONE    
 MULT  =       1     ICHARG=       0     NZVAR =       0     COORD =UNIQUE  
 PP    =NONE         RELWFN=NONE         LOCAL =NONE         NUMGRD=       F
 ISPHER=       1     NOSYM =       0     MAXIT =     200     UNITS =ANGS    
 PLTORB=       F     MOLPLT=       F     AIMPAC=       F     FRIEND=        
 NPRINT=      -5     IREST =       0     GEOM  =INPUT   
 NORMF =       0     NORMP =       0     ITOL  =      24     ICUT  =      12
 INTTYP=BEST         GRDTYP=BEST         QMTTOL= 1.0E-06

     $SYSTEM OPTIONS
     ---------------
  REPLICATED MEMORY=    63000000 WORDS (ON EVERY NODE).
 DISTRIBUTED MEMDDI=          63 MILLION WORDS IN AGGREGATE,
 MEMDDI DISTRIBUTED OVER  16 PROCESSORS IS     3937500 WORDS/PROCESSOR.
 TOTAL MEMORY REQUESTED ON EACH PROCESSOR=    66937500 WORDS.
 TIMLIM=      525600.00 MINUTES, OR     365.0 DAYS.
 PARALL= T  BALTYP=  DLB     KDIAG=    0  COREFL= F
 MXSEQ2=     300 MXSEQ3=     150  mem10=         0

 ** LOOKING UP INTERNALLY STORED DATA FOR SOLVENT=WATER    **
 OPTICAL AND PHYSICAL CONSTANTS:
 EPS= 78.390; EPSINF=  1.776; RSOLV=  1.385 A; VMOL=  18.070 ML/MOL;
 TCE= .25700E-03 1/K; STEN= 71.810 DYN/CM;  DSTEN=  0.6500; CMF=  1.2770


     -----------------------------------
     INPUT FOR PCM SOLVATION CALCULATION 
     -----------------------------------
     IEF   =     -10
     ICOMP =       2     IFIELD=       0     ICAV  =       1
     IDISP =       1     IREP  =       0     IDP   =       0

     SOLVNT=WATER        EPS   = 78.3900     EPSINF=  1.7760
     VMOL  = 18.0700     TCE   =  0.00025700 STEN  = 71.8100
     DSTEN =  0.6500     CMF   =  1.2770     RSOLV =  1.3850

     NESFP =       0
     OMEGA = 40.0000     RET   =100.0000     FRO   =  0.7000

     TABS  =298.0000     IPRINT=       0

     --------------------------------
     INPUT FOR ITERATIVE C-PCM METHOD 
     --------------------------------
     IPCMIT  =         1     MXDIIS  =        50
     MXITR1  =       200     MXITR2  =       200
     THRES   = 0.100E-09     IMUL    =         3
     RCUT(1) =   20.0000     RCUT(2) =   50.0000

     IDIRCT  =         1
     IMGABI  =         0     RABI    =    4.0000
     IMGASC  =         0     RASC    =   20.0000
     THRSLS  = 0.500E-03     DENSLS  =    0.0100
     IEFPOL  =         1     REFPOL  =    0.0000

     INPUT FOR ISOTROPIC DIELECTRICS
     -------------------------------
     EPS=    78.39

          ----------------
          PROPERTIES INPUT
          ----------------

     MOMENTS            FIELD           POTENTIAL          DENSITY
 IEMOM =       1   IEFLD =       0   IEPOT =       0   IEDEN =       0
 WHERE =COMASS     WHERE =NUCLEI     WHERE =NUCLEI     WHERE =NUCLEI  
 OUTPUT=BOTH       OUTPUT=BOTH       OUTPUT=NONE       OUTPUT=BOTH    
 IEMINT=       0   IEFINT=       0                     IEDINT=       0
                                                       MORB  =       0
          EXTRAPOLATION IN EFFECT
          SOSCF IN EFFECT
 ORBITAL PRINTING OPTION: NPREO=     1 32767     2     1

     -------------------------------
     INTEGRAL TRANSFORMATION OPTIONS
     -------------------------------
     NWORD  =            0
     CUTOFF = 1.0E-10     MPTRAN =       0
     DIRTRF =       T     AOINTS =DUP     

          ----------------------
          INTEGRAL INPUT OPTIONS
          ----------------------
 NOPK  =       1 NORDER=       0 SCHWRZ=       T

 ..... DONE SETTING UP THE RUN .....
 CPU     0: STEP CPU TIME=     0.03 TOTAL CPU TIME=          0.0 (      0.0 MIN)
 TOTAL WALL CLOCK TIME=          0.1 SECONDS, CPU UTILIZATION IS    27.27%
 CPU     0: STEP CPU TIME=     0.01 TOTAL CPU TIME=          0.0 (      0.0 MIN)
 TOTAL WALL CLOCK TIME=          0.1 SECONDS, CPU UTILIZATION IS    36.36%

                    ----------------------
                    AO INTEGRAL TECHNOLOGY
                    ----------------------
     S,P,L SHELL ROTATED AXIS INTEGRALS, REPROGRAMMED BY
        KAZUYA ISHIMURA (IMS) AND JOSE SIERRA (SYNSTAR).
     S,P,D,L SHELL ROTATED AXIS INTEGRALS PROGRAMMED BY
        KAZUYA ISHIMURA (INSTITUTE FOR MOLECULAR SCIENCE).
     S,P,D,F,G SHELL TO TOTAL QUARTET ANGULAR MOMENTUM SUM 5,
        ERIC PROGRAM BY GRAHAM FLETCHER (ELORET AND NASA ADVANCED
        SUPERCOMPUTING DIVISION, AMES RESEARCH CENTER).
     S,P,D,F,G,L SHELL GENERAL RYS QUADRATURE PROGRAMMED BY
        MICHEL DUPUIS (PACIFIC NORTHWEST NATIONAL LABORATORY).
 Setting modorb=1 flag...
 Setting modorb=1 flag...

          -----------------------
          MP2 CONTROL INFORMATION
          -----------------------
          NACORE =        8  NBCORE =        8
          LMOMP2 =        F  AOINTS = DUP     
          METHOD =        2  NWORD  =               0
          MP2PRP =        F  OSPT   = NONE    
          CUTOFF = 1.00E-12  CPHFBS = BASISAO 
          CODE   = IMS     

          NUMBER OF CORE -A-  ORBITALS =     8
          NUMBER OF CORE -B-  ORBITALS =     8
          NUMBER OF OCC. -A-  ORBITALS =    18
          NUMBER OF OCC. -B-  ORBITALS =    18
          NUMBER OF MOLECULAR ORBITALS =    66
          NUMBER OF   BASIS  FUNCTIONS =    66

 CPU     0: STEP CPU TIME=     0.02 TOTAL CPU TIME=          0.1 (      0.0 MIN)
 TOTAL WALL CLOCK TIME=          0.1 SECONDS, CPU UTILIZATION IS    42.86%
 CPU     0: STEP CPU TIME=     0.00 TOTAL CPU TIME=          0.1 (      0.0 MIN)
 TOTAL WALL CLOCK TIME=          0.1 SECONDS, CPU UTILIZATION IS    42.86%

     INPUT FOR CAVITY DEFINITION 
     ---------------------------
   ATOM               COORDINATES                RADIUS       EPS
      1      4.1740     -3.7410      0.5880      0.0100     78.3900
      2      3.5970     -3.5240     -0.1690      1.5900     78.3900
      3      3.4640     -4.7180     -0.9550      1.7700     78.3900
      4      3.0300     -5.5240     -0.3230      0.0100     78.3900
      5      4.4670     -5.0630     -1.2920      0.0100     78.3900
      6      2.5760     -4.5230     -2.1860      1.7700     78.3900
      7      2.5250     -5.4500     -2.7920      0.0100     78.3900
      8      1.2130     -4.2020     -1.7770      1.5900     78.3900
      9      0.6800     -3.2310     -2.6640      1.7700     78.3900
     10     -0.2650     -3.6660     -3.0660      0.0100     78.3900
     11      0.3680     -1.9800     -1.9680      1.6800     78.3900
     12     -0.5020     -0.0350     -1.4240      1.7700     78.3900
     13      0.3200     -0.4010     -0.3670      1.6800     78.3900
     14      0.8140     -1.5600     -0.7370      1.7700     78.3900
     15      1.5110     -2.1670     -0.1520      0.0100     78.3900
     16     -2.0090      1.1500     -2.8150      1.6800     78.3900
     17     -1.8680      0.1480     -3.6890      1.7700     78.3900
     18     -2.4480      0.2470     -4.6130      0.0100     78.3900
     19     -1.1390     -0.9690     -3.5840      1.6800     78.3900
     20     -0.4730     -0.9960     -2.4200      1.7700     78.3900
     21     -1.3270      1.0890     -1.6440      1.7700     78.3900
     22     -1.4820      2.0820     -0.7480      1.6800     78.3900
     23     -1.0340      2.0570      0.1550      0.0100     78.3900
     24     -2.0780      2.8640     -0.9540      0.0100     78.3900
     25      1.6680     -3.0480     -3.7930      1.7700     78.3900
     26      1.6630     -2.0170     -4.2020      0.0100     78.3900
     27      1.3900     -3.9790     -4.8210      1.5900     78.3900
     28      2.0980     -3.8740     -5.4670      0.0100     78.3900
     29      2.9930     -3.3630     -3.1050      1.7700     78.3900
     30      3.2850     -2.5170     -2.4390      0.0100     78.3900
     31      4.0640     -3.7870     -3.9900      1.5900     78.3900
     32      5.0840     -2.6950     -4.5110      2.1000     78.3900
     33      5.5830     -1.9130     -3.3610      1.5900     78.3900
     34      6.1060     -3.3620     -5.3430      1.5900     78.3900
     35      4.2010     -1.7700     -5.4240      1.5900     78.3900
     36      3.6760     -2.2590     -6.6770      1.7700     78.3900
     37      3.1400     -3.2260     -6.5500      0.0100     78.3900
     38      4.5070     -2.4350     -7.3910      0.0100     78.3900
     39      2.7150     -1.2490     -7.3200      1.7700     78.3900
     40      2.2570     -1.6670     -8.2410      0.0100     78.3900
     41      1.6330     -0.9240     -6.4040      1.5900     78.3900
     42      1.2690      0.4370     -6.5600      1.7700     78.3900
     43      0.1930      0.4290     -6.8520      0.0100     78.3900
     44      1.4470      1.2130     -5.3020      1.6800     78.3900
     45      2.2840      0.7730     -4.2990      1.7700     78.3900
     46      2.8230     -0.1490     -4.5110      0.0100     78.3900
     47      0.7450      2.3880     -5.1730      1.7700     78.3900
     48      0.0010      2.8170     -6.0480      1.5900     78.3900
     49      0.9390      3.0440     -3.9860      1.6800     78.3900
     50      0.4160      3.9070     -3.8970      0.0100     78.3900
     51      1.7150      2.6520     -2.9190      1.7700     78.3900
     52      1.7590      3.3450     -1.9040      1.5900     78.3900
     53      2.4220      1.4240     -3.1320      1.7700     78.3900
     54      3.0720      1.0520     -2.3440      0.0100     78.3900
     55      2.0970      0.9960     -7.7030      1.7700     78.3900
     56      2.3680      2.0600     -7.5430      0.0100     78.3900
     57      1.3830      0.8550     -8.9160      1.5900     78.3900
     58      2.0110      0.9760     -9.6470      0.0100     78.3900
     59      3.3350      0.1070     -7.6710      1.7700     78.3900
     60      3.9900      0.3800     -6.8130      0.0100     78.3900
     61      4.0450      0.0270     -8.9270      1.5900     78.3900
     62      5.3770      0.8260     -9.1710      2.1000     78.3900
     63      6.4630      0.1560     -8.4270      1.5900     78.3900
     64      5.5690      0.9650    -10.6320      1.5900     78.3900
     65      5.1300      2.2340     -8.5270      1.5900     78.3900
     66      4.3780      3.2710     -9.1880      1.7700     78.3900
     67      3.3380      2.9380     -9.3940      0.0100     78.3900
     68      4.8510      3.5570    -10.1550      0.0100     78.3900
     69      4.3050      4.5200     -8.3000      1.7700     78.3900
     70      3.7150      5.3190     -8.7970      0.0100     78.3900
     71      3.6290      4.2060     -7.0490      1.5900     78.3900
     72      4.2710      4.8770     -5.9840      1.7700     78.3900
     73      3.4800      5.4560     -5.4600      0.0100     78.3900
     74      4.8650      3.9250     -5.0280      1.6800     78.3900
     75      5.1930      4.1660     -3.7160      1.7700     78.3900
     76      5.3930      6.2550     -0.9560      1.6800     78.3900
     77      5.6880      6.1510     -0.0050      0.0100     78.3900
     78      5.1150      7.1690     -1.2570      0.0100     78.3900
     79      5.0490      5.3390     -3.0610      1.6800     78.3900
     80      5.4330      5.2320     -1.7820      1.7700     78.3900
     81      5.8980      4.0790     -1.2180      1.6800     78.3900
     82      6.1620      4.0940     -0.2450      0.0100     78.3900
     83      6.0470      2.8670     -1.8640      1.7700     78.3900
     84      6.4840      1.8800     -1.2630      1.5900     78.3900
     85      5.6640      2.9580     -3.2280      1.7700     78.3900
     86      5.6570      1.9870     -4.2190      1.6800     78.3900
     87      5.1790      2.6030     -5.2690      1.7700     78.3900
     88      4.9970      2.1420     -6.2390      0.0100     78.3900
     89      5.2890      5.8320     -6.5830      1.7700     78.3900
     90      6.1830      5.9490     -5.9370      0.0100     78.3900
     91      4.6900      7.0940     -6.8330      1.5900     78.3900
     92      4.1200      7.3480     -6.0970      0.0100     78.3900
     93      5.6560      5.1210     -7.8830      1.7700     78.3900
     94      6.3030      4.2440     -7.6510      0.0100     78.3900
     95      6.1810      5.9940     -8.9300      1.5900     78.3900
     96      7.6530      5.7770     -9.4320      2.1000     78.3900
     97      8.3970      4.9820     -8.4360      1.5900     78.3900
     98      7.6230      5.2580    -10.8140      1.5900     78.3900
     99      8.3070      7.2060     -9.4410      1.5900     78.3900
    100      7.8340      8.2990    -10.2500      1.7700     78.3900
    101      6.8310      8.0960    -10.6970      0.0100     78.3900
    102      8.5580      8.4750    -11.0820      0.0100     78.3900
    103      7.7280      9.5870     -9.4250      1.7700     78.3900
    104      7.2810     10.4010    -10.0340      0.0100     78.3900
    105      6.8430      9.3870     -8.2840      1.5900     78.3900
    106      7.3590     10.0850     -7.1640      1.7700     78.3900
    107      6.5300     10.7180     -6.7820      0.0100     78.3900
    108      7.7760      9.1750     -6.0930      1.6800     78.3900
    109      8.0040      9.4980     -4.7820      1.7700     78.3900
    110      8.0400     11.8190     -2.2140      1.6800     78.3900
    111      7.8290     12.6750     -2.6840      0.0100     78.3900
    112      8.2420     11.8430     -1.2310      0.0100     78.3900
    113      7.8910     10.7220     -4.2330      1.6800     78.3900
    114      8.1070     10.7080     -2.9230      1.7700     78.3900
    115      8.4080      9.5710     -2.2200      1.6800     78.3900
    116      8.5610      9.6470     -1.2270      0.0100     78.3900
    117      8.5350      8.2980     -2.7600      1.7700     78.3900
    118      8.8120      7.3100     -2.0700      1.5900     78.3900
    119      8.3300      8.3070     -4.1620      1.7700     78.3900
    120      8.3410      7.2580     -5.0740      1.6800     78.3900
    121      8.0020      7.8250     -6.2040      1.7700     78.3900
    122      7.8460      7.3100     -7.1480      0.0100     78.3900
    123      8.4930     10.9510     -7.6580      1.7700     78.3900
    124      9.2670     11.1180     -6.8830      0.0100     78.3900
    125      7.9880     12.1990     -8.0970      1.5900     78.3900
    126      8.7280     12.6790     -8.4880      0.0100     78.3900
    127      9.0310     10.1140     -8.8180      1.7700     78.3900
    128      9.5770      9.2210     -8.4350      0.0100     78.3900
    129      9.7710     10.8540     -9.8200      1.5900     78.3900
    130     11.3360     10.9240     -9.6770      2.1000     78.3900
    131     11.8590      9.5630     -9.4320      1.5900     78.3900
    132     11.9200     11.6430    -10.8340      1.5900     78.3900
    133     11.5310     11.8020     -8.3830      1.5900     78.3900
    134     11.2170     13.2170     -8.4350      1.7700     78.3900
    135     10.1630     13.4010     -8.7420      0.0100     78.3900
    136     11.8710     13.7410     -9.1720      0.0100     78.3900
    137     11.4330     13.8740     -7.0690      1.7700     78.3900
    138     11.1780     14.9540     -7.1030      0.0100     78.3900
    139     10.5730     13.2640     -6.0610      1.5900     78.3900
    140     11.2860     13.1840     -4.8350      1.7700     78.3900
    141     10.6680     13.7200     -4.0760      0.0100     78.3900
    142     11.4550     11.7890     -4.4120      1.6800     78.3900
    143     11.7670      9.9740     -3.2090      1.7700     78.3900
    144     11.5100      9.5420     -4.5020      1.6800     78.3900
    145     11.3370     10.6520     -5.1770      1.7700     78.3900
    146     11.1300     10.7100     -6.2470      0.0100     78.3900
    147     12.2590     10.0140     -0.8950      1.6800     78.3900
    148     12.2020     11.3480     -0.9840      1.7700     78.3900
    149     12.3870     11.8900     -0.0490      0.0100     78.3900
    150     11.9360     12.1120     -2.0500      1.6800     78.3900
    151     11.7340     11.3560     -3.1400      1.7700     78.3900
    152     12.0330      9.2770     -2.0110      1.7700     78.3900
    153     12.0590      7.9350     -1.9230      1.6800     78.3900
    154     11.9060      7.3530     -2.7250      0.0100     78.3900
    155     12.2640      7.4830     -1.0520      0.0100     78.3900
    156     12.6060     13.9170     -5.0150      1.7700     78.3900
    157     13.4270     13.4610     -4.4180      0.0100     78.3900
    158     12.4490     15.2810     -4.6560      1.5900     78.3900
    159     13.2640     15.7650     -4.8770      0.0100     78.3900
    160     12.8520     13.7330     -6.5080      1.7700     78.3900
    161     13.2040     12.7030     -6.7240      0.0100     78.3900
    162     13.7260     14.7120     -7.0980      1.5900     78.3900
    163     14.6260     14.6280     -6.7300      0.0100     78.3900
    164     13.3400      5.7470      7.6700      0.0100     78.3900
    165     13.2170      6.5500      7.1290      1.5900     78.3900
    166     13.6770      7.6610      7.9140      1.7700     78.3900
    167     14.7570      7.5250      8.1380      0.0100     78.3900
    168     13.1240      7.6720      8.8790      0.0100     78.3900
    169     13.4810      9.0230      7.2320      1.7700     78.3900
    170     13.7640      9.8490      7.9200      0.0100     78.3900
    171     14.3360      9.1260      6.0520      1.5900     78.3900
    172     13.6320      9.8040      5.0210      1.7700     78.3900
    173     14.2750     10.6670      4.7240      0.0100     78.3900
    174     13.3760      8.9220      3.8420      1.6800     78.3900
    175     13.4380      7.5470      3.9480      1.7700     78.3900
    176     13.7020      7.1620      4.9330      0.0100     78.3900
    177     13.0740      9.5180      2.6370      1.7700     78.3900
    178     12.9920     10.7330      2.5040      1.5900     78.3900
    179     12.8680      8.6510      1.5950      1.6800     78.3900
    180     12.6710      9.0910      0.7030      0.0100     78.3900
    181     12.9450      7.2740      1.6170      1.7700     78.3900
    182     12.7720      6.6270      0.5820      1.5900     78.3900
    183     13.2350      6.7260      2.9070      1.7700     78.3900
    184     13.3140      5.6480      3.0130      0.0100     78.3900
    185     12.3490     10.3340      5.6380      1.7700     78.3900
    186     11.5280     10.3930      4.9010      0.0100     78.3900
    187     12.5600     11.6150      6.2040      1.5900     78.3900
    188     11.7170     11.8800      6.5970      0.0100     78.3900
    189     12.0650      9.2880      6.7070      1.7700     78.3900
    190     11.7060      8.3440      6.2350      0.0100     78.3900
    191     11.2240      9.7280      7.7920      1.5900     78.3900
    192      9.6660      9.5290      7.7270      2.1000     78.3900
    193      9.3780      8.1390      7.3130      1.5900     78.3900
    194      9.0910      9.9970      9.0110      1.5900     78.3900
    195      9.2350     10.5080      6.5690      1.5900     78.3900
    196      9.2120     11.9350      6.8100      1.7700     78.3900
    197     10.2110     12.3070      7.1400      0.0100     78.3900
    198      8.4810     12.1750      7.6150      0.0100     78.3900
    199      8.7830     12.7200      5.5580      1.7700     78.3900
    200      8.7400     13.8120      5.7800      0.0100     78.3900
    201      9.7570     12.5320      4.4760      1.5900     78.3900
    202      9.0570     12.4360      3.2290      1.7700     78.3900
    203      9.5000     13.2160      2.5700      0.0100     78.3900
    204      9.1960     11.1050      2.5560      1.6800     78.3900
    205      9.5350      9.9950      3.2890      1.7700     78.3900
    206      9.6910     10.1600      4.3540      0.0100     78.3900
    207      9.6930      8.7950      2.7140      1.7700     78.3900
    208     10.0100      7.9200      3.2760      0.0100     78.3900
    209      8.9290     10.9680      1.1930      1.7700     78.3900
    210      8.5860     11.9640      0.5380      1.5900     78.3900
    211      9.0450      9.7560      0.6020      1.6800     78.3900
    212      9.4310      8.6870      1.3200      1.7700     78.3900
    213      9.5780      7.5130      0.7060      1.6800     78.3900
    214      9.4050      7.4490     -0.2800      0.0100     78.3900
    215      9.8830      6.6940      1.1890      0.0100     78.3900
    216      7.6110     12.7880      3.4990      1.7700     78.3900
    217      6.9310     12.2570      2.8080      0.0100     78.3900
    218      7.4020     14.1870      3.3930      1.5900     78.3900
    219      6.5150     14.3740      3.7370      0.0100     78.3900
    220      7.4450     12.2920      4.9270      1.7700     78.3900
    221      7.4370     11.1770      4.9340      0.0100     78.3900
    222      6.3230     12.8750      5.6230      1.5900     78.3900
    223      5.1130     11.9990      6.1340      2.1000     78.3900
    224      5.5280     10.6050      6.3920      1.5900     78.3900
    225      4.4530     12.7170      7.2500      1.5900     78.3900
    226      4.1190     11.9990      4.9180      1.5900     78.3900
    227      4.3550     11.3860      3.6420      1.7700     78.3900
    228      3.7330     10.4700      3.5450      0.0100     78.3900
    229      5.4080     11.0500      3.5300      0.0100     78.3900
    230      3.9690     12.3500      2.5150      1.7700     78.3900
    231      4.0230     13.4090      2.8460      0.0100     78.3900
    232      4.9340     12.2130      1.4410      1.5900     78.3900
    233      4.2890     12.3640      0.1900      1.7700     78.3900
    234      4.7690     13.2340     -0.3160      0.0100     78.3900
    235      4.4740     11.1670     -0.6330      1.6800     78.3900
    236      4.6830      9.7650     -2.3110      1.7700     78.3900
    237      4.9990      9.0540     -1.1710      1.6800     78.3900
    238      4.8610      9.9210     -0.2020      1.7700     78.3900
    239      5.0360      9.7130      0.8570      0.0100     78.3900
    240      4.3310     10.3550     -4.5660      1.6800     78.3900
    241      3.9890     11.5670     -4.1180      1.7700     78.3900
    242      3.6890     12.2850     -4.8880      0.0100     78.3900
    243      3.9600     12.0250     -2.8570      1.6800     78.3900
    244      4.3420     11.0670     -1.9980      1.7700     78.3900
    245      4.7000      9.4090     -3.6720      1.7700     78.3900
    246      5.0900      8.2010     -4.1180      1.6800     78.3900
    247      5.1400      7.3780     -3.5440      0.0100     78.3900
    248      5.3650      8.1250     -5.0730      0.0100     78.3900
    249      2.8290     12.6750      0.4470      1.7700     78.3900
    250      2.1590     12.1950     -0.2930      0.0100     78.3900
    251      2.6090     14.0670      0.4280      1.5900     78.3900
    252      1.7020     14.1930      0.7350      0.0100     78.3900
    253      2.6130     12.0960      1.8410      1.7700     78.3900
    254      2.5320     10.9850      1.7670      0.0100     78.3900
    255      1.5350     12.7180      2.5960      1.5900     78.3900
    256      0.1670     11.9370      2.7020      2.1000     78.3900
    257      0.4220     10.4830      2.7790      1.5900     78.3900
    258     -0.6410     12.5430      3.7810      1.5900     78.3900
    259     -0.5060     12.2360      1.3190      1.5900     78.3900
    260     -0.9540     13.5470      0.9280      1.7700     78.3900
    261     -0.1730     14.3170      1.1240      0.0100     78.3900
    262     -1.8680     13.8290      1.4990      0.0100     78.3900
    263     -1.2900     13.5730     -0.5700      1.7700     78.3900
    264     -1.6220     14.5840     -0.8890      0.0100     78.3900
    265     -0.0880     13.2530     -1.3360      1.5900     78.3900
    266     -0.4320     12.4370     -2.4420      1.7700     78.3900
    267     -0.0570     12.9620     -3.3500      0.0100     78.3900
    268      0.2000     11.1110     -2.3480      1.6800     78.3900
    269      1.1680      9.2010     -2.8480      1.7700     78.3900
    270      1.1550      9.2760     -1.4620      1.6800     78.3900
    271      0.5550     10.4130     -1.2150      1.7700     78.3900
    272      0.3670     10.8090     -0.2200      0.0100     78.3900
    273      1.5000      8.4420     -5.0610      1.6800     78.3900
    274      0.8990      9.5740     -5.4520      1.7700     78.3900
    275      0.7960      9.7000     -6.5320      0.0100     78.3900
    276      0.4030     10.5750     -4.7100      1.6800     78.3900
    277      0.5760     10.3200     -3.4040      1.7700     78.3900
    278      1.6570      8.2220     -3.7320      1.7700     78.3900
    279      2.2680      7.1090     -3.2870      1.6800     78.3900
    280      2.3280      6.9080     -2.3070      0.0100     78.3900
    281      2.5420      6.4090     -3.9370      0.0100     78.3900
    282     -1.9430     12.3610     -2.5050      1.7700     78.3900
    283     -2.2940     11.3800     -2.8790      0.0100     78.3900
    284     -2.4510     13.4020     -3.3210      1.5900     78.3900
    285     -3.4120     13.3850     -3.2280      0.0100     78.3900
    286     -2.3370     12.5450     -1.0420      1.7700     78.3900
    287     -2.1400     11.6080     -0.4710      0.0100     78.3900
    288     -3.6770     13.0570     -0.8420      1.5900     78.3900
    289     -4.8620     12.0680     -0.5170      2.1000     78.3900
    290     -4.4470     11.1560      0.5700      1.5900     78.3900
    291     -6.0940     12.8410     -0.2530      1.5900     78.3900
    292     -5.0660     11.2460     -1.8380      1.5900     78.3900
    293     -5.5740     11.8720     -3.0410      1.7700     78.3900
    294     -5.0850     12.8530     -3.2440      0.0100     78.3900
    295     -6.6630     12.0720     -2.9440      0.0100     78.3900
    296     -5.3790     10.9630     -4.2650      1.7700     78.3900
    297     -5.7640     11.4530     -5.1850      0.0100     78.3900
    298     -3.9580     10.7160     -4.4650      1.5900     78.3900
    299     -3.7590      9.3770     -4.8790      1.7700     78.3900
    300     -3.1680      9.4160     -5.8230      0.0100     78.3900
    301     -3.0180      8.6130     -3.8650      1.6800     78.3900
    302     -1.6950      7.1630     -2.8690      1.7700     78.3900
    303     -2.1880      7.9870     -1.8700      1.6800     78.3900
    304     -2.9690      8.8210     -2.5060      1.7700     78.3900
    305     -3.5300      9.6230     -2.0310      0.0100     78.3900
    306     -0.5530      5.4540     -4.0260      1.6800     78.3900
    307     -1.1420      5.9130     -5.1340      1.7700     78.3900
    308     -0.8940      5.3710     -6.0520      0.0100     78.3900
    309     -1.9800      6.9440     -5.2810      1.6800     78.3900
    310     -2.2100      7.5340     -4.1010      1.7700     78.3900
    311     -0.8050      6.0690     -2.8450      1.7700     78.3900
    312     -0.1880      5.6220     -1.7330      1.6800     78.3900
    313     -0.3920      6.0040     -0.8240      0.0100     78.3900
    314      0.4320      4.8380     -1.7790      0.0100     78.3900
    315     -5.1220      8.7890     -5.1650      1.7700     78.3900
    316     -5.1580      7.6990     -4.9870      0.0100     78.3900
    317     -5.4950      9.0550     -6.5040      1.5900     78.3900
    318     -6.3990      8.7340     -6.6130      0.0100     78.3900
    319     -5.9930      9.5560     -4.1750      1.7700     78.3900
    320     -5.8100      9.1960     -3.1350      0.0100     78.3900
    321     -7.3920      9.6090     -4.5200      1.5900     78.3900
    322     -8.4070      8.6050     -3.8650      2.1000     78.3900
    323     -8.0810      8.4340     -2.4350      1.5900     78.3900
    324     -9.7800      9.0400     -4.1980      1.5900     78.3900
    325     -8.0920      7.2460     -4.5890      1.5900     78.3900
    326     -8.3760      7.0610     -5.9910      1.7700     78.3900
    327     -7.9280      7.8720     -6.6090      0.0100     78.3900
    328     -9.4770      7.0640     -6.1600      0.0100     78.3900
    329     -7.8500      5.7190     -6.5140      1.7700     78.3900
    330     -8.1500      5.5720     -7.5740      0.0100     78.3900
    331     -6.3920      5.7010     -6.4840      1.5900     78.3900
    332     -5.9470      4.3960     -6.1360      1.7700     78.3900
    333     -5.2760      4.0720     -6.9670      0.0100     78.3900
    334     -5.2080      4.3970     -4.8360      1.6800     78.3900
    335     -5.3880      5.4050     -3.9130      1.7700     78.3900
    336     -6.1130      6.1650     -4.1950      0.0100     78.3900
    337     -4.3830      3.3320     -4.5540      1.7700     78.3900
    338     -4.2530      2.3790     -5.3150      1.5900     78.3900
    339     -3.7280      3.4100     -3.3520      1.6800     78.3900
    340     -3.1100      2.6330     -3.1450      0.0100     78.3900
    341     -3.8330      4.4000     -2.3990      1.7700     78.3900
    342     -3.1830      4.3260     -1.3580      1.5900     78.3900
    343     -4.7350      5.4560     -2.7440      1.7700     78.3900
    344     -4.8780      6.2760     -2.0420      0.0100     78.3900
    345     -7.1730      3.4920     -6.1020      1.7700     78.3900
    346     -7.0740      2.7020     -5.3270      0.0100     78.3900
    347     -7.3990      2.8870     -7.3700      1.5900     78.3900
    348     -8.2740      2.4570     -7.3630      0.0100     78.3900
    349     -8.2690      4.4790     -5.7190      1.7700     78.3900
    350     -8.2100      4.7250     -4.6380      0.0100     78.3900
    351     -9.6000      4.0710     -6.0820      1.5900     78.3900
    352     -9.8470      3.2610     -5.5940      0.0100     78.3900

     ----------------------------
     INPUT FOR TESSERA DEFINITION
     ----------------------------
     NTSALL  =        60     MTHALL  =         4
     MTHAUT  =         0     AUTFRE  =    2.0000
     NTSFRZ  =        60     KEEPSM  =         0
     AREAKP  =   10.0000     BONDRY  =    1.0000
     AREATL  =    0.0100

     SPHERE     INITS       METHOD
          1        60       FIXPVA
          2        60       FIXPVA
          3        60       FIXPVA
          4        60       FIXPVA
          5        60       FIXPVA
          6        60       FIXPVA
          7        60       FIXPVA
          8        60       FIXPVA
          9        60       FIXPVA
         10        60       FIXPVA
         11        60       FIXPVA
         12        60       FIXPVA
         13        60       FIXPVA
         14        60       FIXPVA
         15        60       FIXPVA
         16        60       FIXPVA
         17        60       FIXPVA
         18        60       FIXPVA
         19        60       FIXPVA
         20        60       FIXPVA
         21        60       FIXPVA
         22        60       FIXPVA
         23        60       FIXPVA
         24        60       FIXPVA
         25        60       FIXPVA
         26        60       FIXPVA
         27        60       FIXPVA
         28        60       FIXPVA
         29        60       FIXPVA
         30        60       FIXPVA
         31        60       FIXPVA
         32        60       FIXPVA
         33        60       FIXPVA
         34        60       FIXPVA
         35        60       FIXPVA
         36        60       FIXPVA
         37        60       FIXPVA
         38        60       FIXPVA
         39        60       FIXPVA
         40        60       FIXPVA
         41        60       FIXPVA
         42        60       FIXPVA
         43        60       FIXPVA
         44        60       FIXPVA
         45        60       FIXPVA
         46        60       FIXPVA
         47        60       FIXPVA
         48        60       FIXPVA
         49        60       FIXPVA
         50        60       FIXPVA
         51        60       FIXPVA
         52        60       FIXPVA
         53        60       FIXPVA
         54        60       FIXPVA
         55        60       FIXPVA
         56        60       FIXPVA
         57        60       FIXPVA
         58        60       FIXPVA
         59        60       FIXPVA
         60        60       FIXPVA
         61        60       FIXPVA
         62        60       FIXPVA
         63        60       FIXPVA
         64        60       FIXPVA
         65        60       FIXPVA
         66        60       FIXPVA
         67        60       FIXPVA
         68        60       FIXPVA
         69        60       FIXPVA
         70        60       FIXPVA
         71        60       FIXPVA
         72        60       FIXPVA
         73        60       FIXPVA
         74        60       FIXPVA
         75        60       FIXPVA
         76        60       FIXPVA
         77        60       FIXPVA
         78        60       FIXPVA
         79        60       FIXPVA
         80        60       FIXPVA
         81        60       FIXPVA
         82        60       FIXPVA
         83        60       FIXPVA
         84        60       FIXPVA
         85        60       FIXPVA
         86        60       FIXPVA
         87        60       FIXPVA
         88        60       FIXPVA
         89        60       FIXPVA
         90        60       FIXPVA
         91        60       FIXPVA
         92        60       FIXPVA
         93        60       FIXPVA
         94        60       FIXPVA
         95        60       FIXPVA
         96        60       FIXPVA
         97        60       FIXPVA
         98        60       FIXPVA
         99        60       FIXPVA
        100        60       FIXPVA
        101        60       FIXPVA
        102        60       FIXPVA
        103        60       FIXPVA
        104        60       FIXPVA
        105        60       FIXPVA
        106        60       FIXPVA
        107        60       FIXPVA
        108        60       FIXPVA
        109        60       FIXPVA
        110        60       FIXPVA
        111        60       FIXPVA
        112        60       FIXPVA
        113        60       FIXPVA
        114        60       FIXPVA
        115        60       FIXPVA
        116        60       FIXPVA
        117        60       FIXPVA
        118        60       FIXPVA
        119        60       FIXPVA
        120        60       FIXPVA
        121        60       FIXPVA
        122        60       FIXPVA
        123        60       FIXPVA
        124        60       FIXPVA
        125        60       FIXPVA
        126        60       FIXPVA
        127        60       FIXPVA
        128        60       FIXPVA
        129        60       FIXPVA
        130        60       FIXPVA
        131        60       FIXPVA
        132        60       FIXPVA
        133        60       FIXPVA
        134        60       FIXPVA
        135        60       FIXPVA
        136        60       FIXPVA
        137        60       FIXPVA
        138        60       FIXPVA
        139        60       FIXPVA
        140        60       FIXPVA
        141        60       FIXPVA
        142        60       FIXPVA
        143        60       FIXPVA
        144        60       FIXPVA
        145        60       FIXPVA
        146        60       FIXPVA
        147        60       FIXPVA
        148        60       FIXPVA
        149        60       FIXPVA
        150        60       FIXPVA
        151        60       FIXPVA
        152        60       FIXPVA
        153        60       FIXPVA
        154        60       FIXPVA
        155        60       FIXPVA
        156        60       FIXPVA
        157        60       FIXPVA
        158        60       FIXPVA
        159        60       FIXPVA
        160        60       FIXPVA
        161        60       FIXPVA
        162        60       FIXPVA
        163        60       FIXPVA
        164        60       FIXPVA
        165        60       FIXPVA
        166        60       FIXPVA
        167        60       FIXPVA
        168        60       FIXPVA
        169        60       FIXPVA
        170        60       FIXPVA
        171        60       FIXPVA
        172        60       FIXPVA
        173        60       FIXPVA
        174        60       FIXPVA
        175        60       FIXPVA
        176        60       FIXPVA
        177        60       FIXPVA
        178        60       FIXPVA
        179        60       FIXPVA
        180        60       FIXPVA
        181        60       FIXPVA
        182        60       FIXPVA
        183        60       FIXPVA
        184        60       FIXPVA
        185        60       FIXPVA
        186        60       FIXPVA
        187        60       FIXPVA
        188        60       FIXPVA
        189        60       FIXPVA
        190        60       FIXPVA
        191        60       FIXPVA
        192        60       FIXPVA
        193        60       FIXPVA
        194        60       FIXPVA
        195        60       FIXPVA
        196        60       FIXPVA
        197        60       FIXPVA
        198        60       FIXPVA
        199        60       FIXPVA
        200        60       FIXPVA
        201        60       FIXPVA
        202        60       FIXPVA
        203        60       FIXPVA
        204        60       FIXPVA
        205        60       FIXPVA
        206        60       FIXPVA
        207        60       FIXPVA
        208        60       FIXPVA
        209        60       FIXPVA
        210        60       FIXPVA
        211        60       FIXPVA
        212        60       FIXPVA
        213        60       FIXPVA
        214        60       FIXPVA
        215        60       FIXPVA
        216        60       FIXPVA
        217        60       FIXPVA
        218        60       FIXPVA
        219        60       FIXPVA
        220        60       FIXPVA
        221        60       FIXPVA
        222        60       FIXPVA
        223        60       FIXPVA
        224        60       FIXPVA
        225        60       FIXPVA
        226        60       FIXPVA
        227        60       FIXPVA
        228        60       FIXPVA
        229        60       FIXPVA
        230        60       FIXPVA
        231        60       FIXPVA
        232        60       FIXPVA
        233        60       FIXPVA
        234        60       FIXPVA
        235        60       FIXPVA
        236        60       FIXPVA
        237        60       FIXPVA
        238        60       FIXPVA
        239        60       FIXPVA
        240        60       FIXPVA
        241        60       FIXPVA
        242        60       FIXPVA
        243        60       FIXPVA
        244        60       FIXPVA
        245        60       FIXPVA
        246        60       FIXPVA
        247        60       FIXPVA
        248        60       FIXPVA
        249        60       FIXPVA
        250        60       FIXPVA
        251        60       FIXPVA
        252        60       FIXPVA
        253        60       FIXPVA
        254        60       FIXPVA
        255        60       FIXPVA
        256        60       FIXPVA
        257        60       FIXPVA
        258        60       FIXPVA
        259        60       FIXPVA
        260        60       FIXPVA
        261        60       FIXPVA
        262        60       FIXPVA
        263        60       FIXPVA
        264        60       FIXPVA
        265        60       FIXPVA
        266        60       FIXPVA
        267        60       FIXPVA
        268        60       FIXPVA
        269        60       FIXPVA
        270        60       FIXPVA
        271        60       FIXPVA
        272        60       FIXPVA
        273        60       FIXPVA
        274        60       FIXPVA
        275        60       FIXPVA
        276        60       FIXPVA
        277        60       FIXPVA
        278        60       FIXPVA
        279        60       FIXPVA
        280        60       FIXPVA
        281        60       FIXPVA
        282        60       FIXPVA
        283        60       FIXPVA
        284        60       FIXPVA
        285        60       FIXPVA
        286        60       FIXPVA
        287        60       FIXPVA
        288        60       FIXPVA
        289        60       FIXPVA
        290        60       FIXPVA
        291        60       FIXPVA
        292        60       FIXPVA
        293        60       FIXPVA
        294        60       FIXPVA
        295        60       FIXPVA
        296        60       FIXPVA
        297        60       FIXPVA
        298        60       FIXPVA
        299        60       FIXPVA
        300        60       FIXPVA
        301        60       FIXPVA
        302        60       FIXPVA
        303        60       FIXPVA
        304        60       FIXPVA
        305        60       FIXPVA
        306        60       FIXPVA
        307        60       FIXPVA
        308        60       FIXPVA
        309        60       FIXPVA
        310        60       FIXPVA
        311        60       FIXPVA
        312        60       FIXPVA
        313        60       FIXPVA
        314        60       FIXPVA
        315        60       FIXPVA
        316        60       FIXPVA
        317        60       FIXPVA
        318        60       FIXPVA
        319        60       FIXPVA
        320        60       FIXPVA
        321        60       FIXPVA
        322        60       FIXPVA
        323        60       FIXPVA
        324        60       FIXPVA
        325        60       FIXPVA
        326        60       FIXPVA
        327        60       FIXPVA
        328        60       FIXPVA
        329        60       FIXPVA
        330        60       FIXPVA
        331        60       FIXPVA
        332        60       FIXPVA
        333        60       FIXPVA
        334        60       FIXPVA
        335        60       FIXPVA
        336        60       FIXPVA
        337        60       FIXPVA
        338        60       FIXPVA
        339        60       FIXPVA
        340        60       FIXPVA
        341        60       FIXPVA
        342        60       FIXPVA
        343        60       FIXPVA
        344        60       FIXPVA
        345        60       FIXPVA
        346        60       FIXPVA
        347        60       FIXPVA
        348        60       FIXPVA
        349        60       FIXPVA
        350        60       FIXPVA
        351        60       FIXPVA
        352        60       FIXPVA

     ------------------------------
      FIXPVA TESSELLATION FOR PCM
         PEIFENG SU AND HUI LI
     UNIVERSITY OF NEBRASKA-LINCOLN
     ------------------------------


 PCM DIMENSIONS: MXSP=   352, MXTS=     14080, MEMORY=        144675

     INPUT FOR CAVITY DEFINITION 
     ---------------------------
   ATOM               COORDINATES                RADIUS       EPS
      1      4.1740     -3.7410      0.5880      0.0100     78.3900
      2      3.5970     -3.5240     -0.1690      1.5900     78.3900
      3      3.4640     -4.7180     -0.9550      1.7700     78.3900
      4      3.0300     -5.5240     -0.3230      0.0100     78.3900
      5      4.4670     -5.0630     -1.2920      0.0100     78.3900
      6      2.5760     -4.5230     -2.1860      1.7700     78.3900
      7      2.5250     -5.4500     -2.7920      0.0100     78.3900
      8      1.2130     -4.2020     -1.7770      1.5900     78.3900
      9      0.6800     -3.2310     -2.6640      1.7700     78.3900
     10     -0.2650     -3.6660     -3.0660      0.0100     78.3900
     11      0.3680     -1.9800     -1.9680      1.6800     78.3900
     12     -0.5020     -0.0350     -1.4240      1.7700     78.3900
     13      0.3200     -0.4010     -0.3670      1.6800     78.3900
     14      0.8140     -1.5600     -0.7370      1.7700     78.3900
     15      1.5110     -2.1670     -0.1520      0.0100     78.3900
     16     -2.0090      1.1500     -2.8150      1.6800     78.3900
     17     -1.8680      0.1480     -3.6890      1.7700     78.3900
     18     -2.4480      0.2470     -4.6130      0.0100     78.3900
     19     -1.1390     -0.9690     -3.5840      1.6800     78.3900
     20     -0.4730     -0.9960     -2.4200      1.7700     78.3900
     21     -1.3270      1.0890     -1.6440      1.7700     78.3900
     22     -1.4820      2.0820     -0.7480      1.6800     78.3900
     23     -1.0340      2.0570      0.1550      0.0100     78.3900
     24     -2.0780      2.8640     -0.9540      0.0100     78.3900
     25      1.6680     -3.0480     -3.7930      1.7700     78.3900
     26      1.6630     -2.0170     -4.2020      0.0100     78.3900
     27      1.3900     -3.9790     -4.8210      1.5900     78.3900
     28      2.0980     -3.8740     -5.4670      0.0100     78.3900
     29      2.9930     -3.3630     -3.1050      1.7700     78.3900
     30      3.2850     -2.5170     -2.4390      0.0100     78.3900
     31      4.0640     -3.7870     -3.9900      1.5900     78.3900
     32      5.0840     -2.6950     -4.5110      2.1000     78.3900
     33      5.5830     -1.9130     -3.3610      1.5900     78.3900
     34      6.1060     -3.3620     -5.3430      1.5900     78.3900
     35      4.2010     -1.7700     -5.4240      1.5900     78.3900
     36      3.6760     -2.2590     -6.6770      1.7700     78.3900
     37      3.1400     -3.2260     -6.5500      0.0100     78.3900
     38      4.5070     -2.4350     -7.3910      0.0100     78.3900
     39      2.7150     -1.2490     -7.3200      1.7700     78.3900
     40      2.2570     -1.6670     -8.2410      0.0100     78.3900
     41      1.6330     -0.9240     -6.4040      1.5900     78.3900
     42      1.2690      0.4370     -6.5600      1.7700     78.3900
     43      0.1930      0.4290     -6.8520      0.0100     78.3900
     44      1.4470      1.2130     -5.3020      1.6800     78.3900
     45      2.2840      0.7730     -4.2990      1.7700     78.3900
     46      2.8230     -0.1490     -4.5110      0.0100     78.3900
     47      0.7450      2.3880     -5.1730      1.7700     78.3900
     48      0.0010      2.8170     -6.0480      1.5900     78.3900
     49      0.9390      3.0440     -3.9860      1.6800     78.3900
     50      0.4160      3.9070     -3.8970      0.0100     78.3900
     51      1.7150      2.6520     -2.9190      1.7700     78.3900
     52      1.7590      3.3450     -1.9040      1.5900     78.3900
     53      2.4220      1.4240     -3.1320      1.7700     78.3900
     54      3.0720      1.0520     -2.3440      0.0100     78.3900
     55      2.0970      0.9960     -7.7030      1.7700     78.3900
     56      2.3680      2.0600     -7.5430      0.0100     78.3900
     57      1.3830      0.8550     -8.9160      1.5900     78.3900
     58      2.0110      0.9760     -9.6470      0.0100     78.3900
     59      3.3350      0.1070     -7.6710      1.7700     78.3900
     60      3.9900      0.3800     -6.8130      0.0100     78.3900
     61      4.0450      0.0270     -8.9270      1.5900     78.3900
     62      5.3770      0.8260     -9.1710      2.1000     78.3900
     63      6.4630      0.1560     -8.4270      1.5900     78.3900
     64      5.5690      0.9650    -10.6320      1.5900     78.3900
     65      5.1300      2.2340     -8.5270      1.5900     78.3900
     66      4.3780      3.2710     -9.1880      1.7700     78.3900
     67      3.3380      2.9380     -9.3940      0.0100     78.3900
     68      4.8510      3.5570    -10.1550      0.0100     78.3900
     69      4.3050      4.5200     -8.3000      1.7700     78.3900
     70      3.7150      5.3190     -8.7970      0.0100     78.3900
     71      3.6290      4.2060     -7.0490      1.5900     78.3900
     72      4.2710      4.8770     -5.9840      1.7700     78.3900
     73      3.4800      5.4560     -5.4600      0.0100     78.3900
     74      4.8650      3.9250     -5.0280      1.6800     78.3900
     75      5.1930      4.1660     -3.7160      1.7700     78.3900
     76      5.3930      6.2550     -0.9560      1.6800     78.3900
     77      5.6880      6.1510     -0.0050      0.0100     78.3900
     78      5.1150      7.1690     -1.2570      0.0100     78.3900
     79      5.0490      5.3390     -3.0610      1.6800     78.3900
     80      5.4330      5.2320     -1.7820      1.7700     78.3900
     81      5.8980      4.0790     -1.2180      1.6800     78.3900
     82      6.1620      4.0940     -0.2450      0.0100     78.3900
     83      6.0470      2.8670     -1.8640      1.7700     78.3900
     84      6.4840      1.8800     -1.2630      1.5900     78.3900
     85      5.6640      2.9580     -3.2280      1.7700     78.3900
     86      5.6570      1.9870     -4.2190      1.6800     78.3900
     87      5.1790      2.6030     -5.2690      1.7700     78.3900
     88      4.9970      2.1420     -6.2390      0.0100     78.3900
     89      5.2890      5.8320     -6.5830      1.7700     78.3900
     90      6.1830      5.9490     -5.9370      0.0100     78.3900
     91      4.6900      7.0940     -6.8330      1.5900     78.3900
     92      4.1200      7.3480     -6.0970      0.0100     78.3900
     93      5.6560      5.1210     -7.8830      1.7700     78.3900
     94      6.3030      4.2440     -7.6510      0.0100     78.3900
     95      6.1810      5.9940     -8.9300      1.5900     78.3900
     96      7.6530      5.7770     -9.4320      2.1000     78.3900
     97      8.3970      4.9820     -8.4360      1.5900     78.3900
     98      7.6230      5.2580    -10.8140      1.5900     78.3900
     99      8.3070      7.2060     -9.4410      1.5900     78.3900
    100      7.8340      8.2990    -10.2500      1.7700     78.3900
    101      6.8310      8.0960    -10.6970      0.0100     78.3900
    102      8.5580      8.4750    -11.0820      0.0100     78.3900
    103      7.7280      9.5870     -9.4250      1.7700     78.3900
    104      7.2810     10.4010    -10.0340      0.0100     78.3900
    105      6.8430      9.3870     -8.2840      1.5900     78.3900
    106      7.3590     10.0850     -7.1640      1.7700     78.3900
    107      6.5300     10.7180     -6.7820      0.0100     78.3900
    108      7.7760      9.1750     -6.0930      1.6800     78.3900
    109      8.0040      9.4980     -4.7820      1.7700     78.3900
    110      8.0400     11.8190     -2.2140      1.6800     78.3900
    111      7.8290     12.6750     -2.6840      0.0100     78.3900
    112      8.2420     11.8430     -1.2310      0.0100     78.3900
    113      7.8910     10.7220     -4.2330      1.6800     78.3900
    114      8.1070     10.7080     -2.9230      1.7700     78.3900
    115      8.4080      9.5710     -2.2200      1.6800     78.3900
    116      8.5610      9.6470     -1.2270      0.0100     78.3900
    117      8.5350      8.2980     -2.7600      1.7700     78.3900
    118      8.8120      7.3100     -2.0700      1.5900     78.3900
    119      8.3300      8.3070     -4.1620      1.7700     78.3900
    120      8.3410      7.2580     -5.0740      1.6800     78.3900
    121      8.0020      7.8250     -6.2040      1.7700     78.3900
    122      7.8460      7.3100     -7.1480      0.0100     78.3900
    123      8.4930     10.9510     -7.6580      1.7700     78.3900
    124      9.2670     11.1180     -6.8830      0.0100     78.3900
    125      7.9880     12.1990     -8.0970      1.5900     78.3900
    126      8.7280     12.6790     -8.4880      0.0100     78.3900
    127      9.0310     10.1140     -8.8180      1.7700     78.3900
    128      9.5770      9.2210     -8.4350      0.0100     78.3900
    129      9.7710     10.8540     -9.8200      1.5900     78.3900
    130     11.3360     10.9240     -9.6770      2.1000     78.3900
    131     11.8590      9.5630     -9.4320      1.5900     78.3900
    132     11.9200     11.6430    -10.8340      1.5900     78.3900
    133     11.5310     11.8020     -8.3830      1.5900     78.3900
    134     11.2170     13.2170     -8.4350      1.7700     78.3900
    135     10.1630     13.4010     -8.7420      0.0100     78.3900
    136     11.8710     13.7410     -9.1720      0.0100     78.3900
    137     11.4330     13.8740     -7.0690      1.7700     78.3900
    138     11.1780     14.9540     -7.1030      0.0100     78.3900
    139     10.5730     13.2640     -6.0610      1.5900     78.3900
    140     11.2860     13.1840     -4.8350      1.7700     78.3900
    141     10.6680     13.7200     -4.0760      0.0100     78.3900
    142     11.4550     11.7890     -4.4120      1.6800     78.3900
    143     11.7670      9.9740     -3.2090      1.7700     78.3900
    144     11.5100      9.5420     -4.5020      1.6800     78.3900
    145     11.3370     10.6520     -5.1770      1.7700     78.3900
    146     11.1300     10.7100     -6.2470      0.0100     78.3900
    147     12.2590     10.0140     -0.8950      1.6800     78.3900
    148     12.2020     11.3480     -0.9840      1.7700     78.3900
    149     12.3870     11.8900     -0.0490      0.0100     78.3900
    150     11.9360     12.1120     -2.0500      1.6800     78.3900
    151     11.7340     11.3560     -3.1400      1.7700     78.3900
    152     12.0330      9.2770     -2.0110      1.7700     78.3900
    153     12.0590      7.9350     -1.9230      1.6800     78.3900
    154     11.9060      7.3530     -2.7250      0.0100     78.3900
    155     12.2640      7.4830     -1.0520      0.0100     78.3900
    156     12.6060     13.9170     -5.0150      1.7700     78.3900
    157     13.4270     13.4610     -4.4180      0.0100     78.3900
    158     12.4490     15.2810     -4.6560      1.5900     78.3900
    159     13.2640     15.7650     -4.8770      0.0100     78.3900
    160     12.8520     13.7330     -6.5080      1.7700     78.3900
    161     13.2040     12.7030     -6.7240      0.0100     78.3900
    162     13.7260     14.7120     -7.0980      1.5900     78.3900
    163     14.6260     14.6280     -6.7300      0.0100     78.3900
    164     13.3400      5.7470      7.6700      0.0100     78.3900
    165     13.2170      6.5500      7.1290      1.5900     78.3900
    166     13.6770      7.6610      7.9140      1.7700     78.3900
    167     14.7570      7.5250      8.1380      0.0100     78.3900
    168     13.1240      7.6720      8.8790      0.0100     78.3900
    169     13.4810      9.0230      7.2320      1.7700     78.3900
    170     13.7640      9.8490      7.9200      0.0100     78.3900
    171     14.3360      9.1260      6.0520      1.5900     78.3900
    172     13.6320      9.8040      5.0210      1.7700     78.3900
    173     14.2750     10.6670      4.7240      0.0100     78.3900
    174     13.3760      8.9220      3.8420      1.6800     78.3900
    175     13.4380      7.5470      3.9480      1.7700     78.3900
    176     13.7020      7.1620      4.9330      0.0100     78.3900
    177     13.0740      9.5180      2.6370      1.7700     78.3900
    178     12.9920     10.7330      2.5040      1.5900     78.3900
    179     12.8680      8.6510      1.5950      1.6800     78.3900
    180     12.6710      9.0910      0.7030      0.0100     78.3900
    181     12.9450      7.2740      1.6170      1.7700     78.3900
    182     12.7720      6.6270      0.5820      1.5900     78.3900
    183     13.2350      6.7260      2.9070      1.7700     78.3900
    184     13.3140      5.6480      3.0130      0.0100     78.3900
    185     12.3490     10.3340      5.6380      1.7700     78.3900
    186     11.5280     10.3930      4.9010      0.0100     78.3900
    187     12.5600     11.6150      6.2040      1.5900     78.3900
    188     11.7170     11.8800      6.5970      0.0100     78.3900
    189     12.0650      9.2880      6.7070      1.7700     78.3900
    190     11.7060      8.3440      6.2350      0.0100     78.3900
    191     11.2240      9.7280      7.7920      1.5900     78.3900
    192      9.6660      9.5290      7.7270      2.1000     78.3900
    193      9.3780      8.1390      7.3130      1.5900     78.3900
    194      9.0910      9.9970      9.0110      1.5900     78.3900
    195      9.2350     10.5080      6.5690      1.5900     78.3900
    196      9.2120     11.9350      6.8100      1.7700     78.3900
    197     10.2110     12.3070      7.1400      0.0100     78.3900
    198      8.4810     12.1750      7.6150      0.0100     78.3900
    199      8.7830     12.7200      5.5580      1.7700     78.3900
    200      8.7400     13.8120      5.7800      0.0100     78.3900
    201      9.7570     12.5320      4.4760      1.5900     78.3900
    202      9.0570     12.4360      3.2290      1.7700     78.3900
    203      9.5000     13.2160      2.5700      0.0100     78.3900
    204      9.1960     11.1050      2.5560      1.6800     78.3900
    205      9.5350      9.9950      3.2890      1.7700     78.3900
    206      9.6910     10.1600      4.3540      0.0100     78.3900
    207      9.6930      8.7950      2.7140      1.7700     78.3900
    208     10.0100      7.9200      3.2760      0.0100     78.3900
    209      8.9290     10.9680      1.1930      1.7700     78.3900
    210      8.5860     11.9640      0.5380      1.5900     78.3900
    211      9.0450      9.7560      0.6020      1.6800     78.3900
    212      9.4310      8.6870      1.3200      1.7700     78.3900
    213      9.5780      7.5130      0.7060      1.6800     78.3900
    214      9.4050      7.4490     -0.2800      0.0100     78.3900
    215      9.8830      6.6940      1.1890      0.0100     78.3900
    216      7.6110     12.7880      3.4990      1.7700     78.3900
    217      6.9310     12.2570      2.8080      0.0100     78.3900
    218      7.4020     14.1870      3.3930      1.5900     78.3900
    219      6.5150     14.3740      3.7370      0.0100     78.3900
    220      7.4450     12.2920      4.9270      1.7700     78.3900
    221      7.4370     11.1770      4.9340      0.0100     78.3900
    222      6.3230     12.8750      5.6230      1.5900     78.3900
    223      5.1130     11.9990      6.1340      2.1000     78.3900
    224      5.5280     10.6050      6.3920      1.5900     78.3900
    225      4.4530     12.7170      7.2500      1.5900     78.3900
    226      4.1190     11.9990      4.9180      1.5900     78.3900
    227      4.3550     11.3860      3.6420      1.7700     78.3900
    228      3.7330     10.4700      3.5450      0.0100     78.3900
    229      5.4080     11.0500      3.5300      0.0100     78.3900
    230      3.9690     12.3500      2.5150      1.7700     78.3900
    231      4.0230     13.4090      2.8460      0.0100     78.3900
    232      4.9340     12.2130      1.4410      1.5900     78.3900
    233      4.2890     12.3640      0.1900      1.7700     78.3900
    234      4.7690     13.2340     -0.3160      0.0100     78.3900
    235      4.4740     11.1670     -0.6330      1.6800     78.3900
    236      4.6830      9.7650     -2.3110      1.7700     78.3900
    237      4.9990      9.0540     -1.1710      1.6800     78.3900
    238      4.8610      9.9210     -0.2020      1.7700     78.3900
    239      5.0360      9.7130      0.8570      0.0100     78.3900
    240      4.3310     10.3550     -4.5660      1.6800     78.3900
    241      3.9890     11.5670     -4.1180      1.7700     78.3900
    242      3.6890     12.2850     -4.8880      0.0100     78.3900
    243      3.9600     12.0250     -2.8570      1.6800     78.3900
    244      4.3420     11.0670     -1.9980      1.7700     78.3900
    245      4.7000      9.4090     -3.6720      1.7700     78.3900
    246      5.0900      8.2010     -4.1180      1.6800     78.3900
    247      5.1400      7.3780     -3.5440      0.0100     78.3900
    248      5.3650      8.1250     -5.0730      0.0100     78.3900
    249      2.8290     12.6750      0.4470      1.7700     78.3900
    250      2.1590     12.1950     -0.2930      0.0100     78.3900
    251      2.6090     14.0670      0.4280      1.5900     78.3900
    252      1.7020     14.1930      0.7350      0.0100     78.3900
    253      2.6130     12.0960      1.8410      1.7700     78.3900
    254      2.5320     10.9850      1.7670      0.0100     78.3900
    255      1.5350     12.7180      2.5960      1.5900     78.3900
    256      0.1670     11.9370      2.7020      2.1000     78.3900
    257      0.4220     10.4830      2.7790      1.5900     78.3900
    258     -0.6410     12.5430      3.7810      1.5900     78.3900
    259     -0.5060     12.2360      1.3190      1.5900     78.3900
    260     -0.9540     13.5470      0.9280      1.7700     78.3900
    261     -0.1730     14.3170      1.1240      0.0100     78.3900
    262     -1.8680     13.8290      1.4990      0.0100     78.3900
    263     -1.2900     13.5730     -0.5700      1.7700     78.3900
    264     -1.6220     14.5840     -0.8890      0.0100     78.3900
    265     -0.0880     13.2530     -1.3360      1.5900     78.3900
    266     -0.4320     12.4370     -2.4420      1.7700     78.3900
    267     -0.0570     12.9620     -3.3500      0.0100     78.3900
    268      0.2000     11.1110     -2.3480      1.6800     78.3900
    269      1.1680      9.2010     -2.8480      1.7700     78.3900
    270      1.1550      9.2760     -1.4620      1.6800     78.3900
    271      0.5550     10.4130     -1.2150      1.7700     78.3900
    272      0.3670     10.8090     -0.2200      0.0100     78.3900
    273      1.5000      8.4420     -5.0610      1.6800     78.3900
    274      0.8990      9.5740     -5.4520      1.7700     78.3900
    275      0.7960      9.7000     -6.5320      0.0100     78.3900
    276      0.4030     10.5750     -4.7100      1.6800     78.3900
    277      0.5760     10.3200     -3.4040      1.7700     78.3900
    278      1.6570      8.2220     -3.7320      1.7700     78.3900
    279      2.2680      7.1090     -3.2870      1.6800     78.3900
    280      2.3280      6.9080     -2.3070      0.0100     78.3900
    281      2.5420      6.4090     -3.9370      0.0100     78.3900
    282     -1.9430     12.3610     -2.5050      1.7700     78.3900
    283     -2.2940     11.3800     -2.8790      0.0100     78.3900
    284     -2.4510     13.4020     -3.3210      1.5900     78.3900
    285     -3.4120     13.3850     -3.2280      0.0100     78.3900
    286     -2.3370     12.5450     -1.0420      1.7700     78.3900
    287     -2.1400     11.6080     -0.4710      0.0100     78.3900
    288     -3.6770     13.0570     -0.8420      1.5900     78.3900
    289     -4.8620     12.0680     -0.5170      2.1000     78.3900
    290     -4.4470     11.1560      0.5700      1.5900     78.3900
    291     -6.0940     12.8410     -0.2530      1.5900     78.3900
    292     -5.0660     11.2460     -1.8380      1.5900     78.3900
    293     -5.5740     11.8720     -3.0410      1.7700     78.3900
    294     -5.0850     12.8530     -3.2440      0.0100     78.3900
    295     -6.6630     12.0720     -2.9440      0.0100     78.3900
    296     -5.3790     10.9630     -4.2650      1.7700     78.3900
    297     -5.7640     11.4530     -5.1850      0.0100     78.3900
    298     -3.9580     10.7160     -4.4650      1.5900     78.3900
    299     -3.7590      9.3770     -4.8790      1.7700     78.3900
    300     -3.1680      9.4160     -5.8230      0.0100     78.3900
    301     -3.0180      8.6130     -3.8650      1.6800     78.3900
    302     -1.6950      7.1630     -2.8690      1.7700     78.3900
    303     -2.1880      7.9870     -1.8700      1.6800     78.3900
    304     -2.9690      8.8210     -2.5060      1.7700     78.3900
    305     -3.5300      9.6230     -2.0310      0.0100     78.3900
    306     -0.5530      5.4540     -4.0260      1.6800     78.3900
    307     -1.1420      5.9130     -5.1340      1.7700     78.3900
    308     -0.8940      5.3710     -6.0520      0.0100     78.3900
    309     -1.9800      6.9440     -5.2810      1.6800     78.3900
    310     -2.2100      7.5340     -4.1010      1.7700     78.3900
    311     -0.8050      6.0690     -2.8450      1.7700     78.3900
    312     -0.1880      5.6220     -1.7330      1.6800     78.3900
    313     -0.3920      6.0040     -0.8240      0.0100     78.3900
    314      0.4320      4.8380     -1.7790      0.0100     78.3900
    315     -5.1220      8.7890     -5.1650      1.7700     78.3900
    316     -5.1580      7.6990     -4.9870      0.0100     78.3900
    317     -5.4950      9.0550     -6.5040      1.5900     78.3900
    318     -6.3990      8.7340     -6.6130      0.0100     78.3900
    319     -5.9930      9.5560     -4.1750      1.7700     78.3900
    320     -5.8100      9.1960     -3.1350      0.0100     78.3900
    321     -7.3920      9.6090     -4.5200      1.5900     78.3900
    322     -8.4070      8.6050     -3.8650      2.1000     78.3900
    323     -8.0810      8.4340     -2.4350      1.5900     78.3900
    324     -9.7800      9.0400     -4.1980      1.5900     78.3900
[...]
          -----------------
     TIME TO FORM FOCK OPERATORS=      18.7 SECONDS (       1.7 SEC/ITER)
     FOCK TIME ON FIRST ITERATION=       2.6, LAST ITERATION=       1.0
     TIME TO SOLVE SCF EQUATIONS=       0.4 SECONDS (       0.0 SEC/ITER)

 FINAL RHF ENERGY IS    -1382.8897175098 AFTER  11 ITERATIONS
 ...... END OF RHF CALCULATION ......
 CPU     0: STEP CPU TIME=    56.34 TOTAL CPU TIME=       2352.1 (     39.2 MIN)
 TOTAL WALL CLOCK TIME=       5028.5 SECONDS, CPU UTILIZATION IS    46.78%
 DONE PCM POT.
 CPU     0: STEP CPU TIME=     0.40 TOTAL CPU TIME=       2352.5 (     39.2 MIN)
 TOTAL WALL CLOCK TIME=       5029.7 SECONDS, CPU UTILIZATION IS    46.77%

 Iter=  5 iFrag=      8 EFMO= -1432.615213375, DD= 0.003386215, DE= 0.001437353


 RHF      monomer      7 corr= NONE       , L1=   341, L0=   320 ID=      7


 AO spaces for     7     0     0 n-mer: L1=   341, L0=   320

 DIRECT SCF CALCULATION, SCHWRZ=T   FDIFF=T,  DIRTHR=  0.00E+00 NITDIR=10

                                                                                   NONZERO     BLOCKS
 ITER EX DEM     TOTAL ENERGY        E CHANGE  DENSITY CHANGE     ORB. GRAD      INTEGRALS    SKIPPED
   1  0  0    -1320.8024544835 -1320.8024544835   0.004774507   0.000000000      661368395   10535297
          ---------------START SECOND ORDER SCF---------------
   2  1  0    -1320.8023800582     0.0000744253   0.001093781   0.000270440      547561909   12218013
   3  2  0    -1320.8023966259    -0.0000165676   0.000239633   0.000054622      523714406   12451747
   4  3  0    -1320.8023895879     0.0000070380   0.000057351   0.000009083      485133384   12812526
   5  4  0    -1320.8023885463     0.0000010415   0.000019969   0.000003805      451224732   13102007
   6  5  0    -1320.8023883450     0.0000002013   0.000005934   0.000001002      420677434   13390483
   7  6  0    -1320.8023885242    -0.0000001792   0.000002484   0.000000787      377238694   13759702
   8  7  0    -1320.8023885805    -0.0000000563   0.000000582   0.000000236      352604311   13989333
   9  8  0    -1320.8023885897    -0.0000000091   0.000000258   0.000000093      317598010   14297765
  10  9  0    -1320.8023885881     0.0000000016   0.000000095   0.000000039      291286014   14503776

          -----------------
          DENSITY CONVERGED
          -----------------
     TIME TO FORM FOCK OPERATORS=      13.6 SECONDS (       1.4 SEC/ITER)
     FOCK TIME ON FIRST ITERATION=       2.4, LAST ITERATION=       1.0
     TIME TO SOLVE SCF EQUATIONS=       0.3 SECONDS (       0.0 SEC/ITER)

 FINAL RHF ENERGY IS    -1320.8023885881 AFTER  10 ITERATIONS
 ...... END OF RHF CALCULATION ......
 CPU     0: STEP CPU TIME=    36.16 TOTAL CPU TIME=       2388.7 (     39.8 MIN)
 TOTAL WALL CLOCK TIME=       5106.7 SECONDS, CPU UTILIZATION IS    46.77%
 DONE PCM POT.
 CPU     0: STEP CPU TIME=     0.37 TOTAL CPU TIME=       2389.0 (     39.8 MIN)
 TOTAL WALL CLOCK TIME=       5107.9 SECONDS, CPU UTILIZATION IS    46.77%

 Iter=  5 iFrag=      7 EFMO= -1360.680907566, DD= 0.003952380, DE= 0.002192549


 RHF      monomer      6 corr= NONE       , L1=   339, L0=   318 ID=      8


 AO spaces for     6     0     0 n-mer: L1=   339, L0=   318

 DIRECT SCF CALCULATION, SCHWRZ=T   FDIFF=T,  DIRTHR=  0.00E+00 NITDIR=10

                                                                                   NONZERO     BLOCKS
 ITER EX DEM     TOTAL ENERGY        E CHANGE  DENSITY CHANGE     ORB. GRAD      INTEGRALS    SKIPPED
   1  0  0    -1349.6287584130 -1349.6287584130   0.003868010   0.000000000      647989410    9564360
          ---------------START SECOND ORDER SCF---------------
   2  1  0    -1349.6287176327     0.0000407803   0.000882333   0.000189714      539513375   11170319
   3  2  0    -1349.6287221677    -0.0000045350   0.000193200   0.000068784      517353728   11383037
   4  3  0    -1349.6287178877     0.0000042800   0.000042422   0.000009871      480875592   11712011
   5  4  0    -1349.6287170287     0.0000008591   0.000013659   0.000003753      441582900   12046182
   6  5  0    -1349.6287170060     0.0000000227   0.000004065   0.000001714      415184459   12288495
   7  6  0    -1349.6287169750     0.0000000310   0.000001126   0.000000379      377305736   12626870
   8  7  0    -1349.6287170546    -0.0000000796   0.000000630   0.000000359      345432802   12891054
   9  8  0    -1349.6287170732    -0.0000000186   0.000000286   0.000000143      320772744   13105869
  10  9  0    -1349.6287170825    -0.0000000093   0.000000106   0.000000039      295187849   13320392
  11 10  0    -1349.6287170746     0.0000000078   0.000000057   0.000000013      259238902   13599972

          -----------------
          DENSITY CONVERGED
          -----------------
     TIME TO FORM FOCK OPERATORS=      15.2 SECONDS (       1.4 SEC/ITER)
     FOCK TIME ON FIRST ITERATION=       2.0, LAST ITERATION=       0.8
     TIME TO SOLVE SCF EQUATIONS=       0.3 SECONDS (       0.0 SEC/ITER)

 FINAL RHF ENERGY IS    -1349.6287170746 AFTER  11 ITERATIONS
 ...... END OF RHF CALCULATION ......
 CPU     0: STEP CPU TIME=    32.79 TOTAL CPU TIME=       2421.8 (     40.4 MIN)
 TOTAL WALL CLOCK TIME=       5176.9 SECONDS, CPU UTILIZATION IS    46.78%
 DONE PCM POT.
 CPU     0: STEP CPU TIME=     0.38 TOTAL CPU TIME=       2422.2 (     40.4 MIN)
 TOTAL WALL CLOCK TIME=       5178.0 SECONDS, CPU UTILIZATION IS    46.78%

 Iter=  5 iFrag=      6 EFMO= -1380.535448022, DD= 0.003207251, DE= 0.002062077


 RHF      monomer      2 corr= NONE       , L1=   339, L0=   318 ID=      9


 AO spaces for     2     0     0 n-mer: L1=   339, L0=   318

 DIRECT SCF CALCULATION, SCHWRZ=T   FDIFF=T,  DIRTHR=  0.00E+00 NITDIR=10

                                                                                   NONZERO     BLOCKS
 ITER EX DEM     TOTAL ENERGY        E CHANGE  DENSITY CHANGE     ORB. GRAD      INTEGRALS    SKIPPED
   1  0  0    -1333.7320376011 -1333.7320376011   0.004505532   0.000000000      654808030    9594641
          ---------------START SECOND ORDER SCF---------------
   2  1  0    -1333.7319249123     0.0001126888   0.001084946   0.000218988      537136810   11172475
   3  2  0    -1333.7319606403    -0.0000357281   0.000223686   0.000059158      515843003   11377661
   4  3  0    -1333.7319480314     0.0000126089   0.000063754   0.000007758      478264129   11715588
   5  4  0    -1333.7319471280     0.0000009034   0.000017148   0.000004062      439431378   12044891
   6  5  0    -1333.7319470449     0.0000000831   0.000004954   0.000001220      412590774   12288557
   7  6  0    -1333.7319471505    -0.0000001056   0.000001731   0.000000445      371339387   12645198
   8  7  0    -1333.7319471979    -0.0000000474   0.000000731   0.000000101      337119934   12932449
   9  8  0    -1333.7319472152    -0.0000000172   0.000000231   0.000000061      305568601   13197959
  10  9  0    -1333.7319472243    -0.0000000091   0.000000075   0.000000017      275310309   13455647
  11 10  0    -1333.7319472211     0.0000000031   0.000000000   0.000000006      240497041   13726621

          -----------------
          DENSITY CONVERGED
          -----------------
     TIME TO FORM FOCK OPERATORS=      14.9 SECONDS (       1.4 SEC/ITER)
     FOCK TIME ON FIRST ITERATION=       1.8, LAST ITERATION=       1.0
     TIME TO SOLVE SCF EQUATIONS=       0.3 SECONDS (       0.0 SEC/ITER)

 FINAL RHF ENERGY IS    -1333.7319472211 AFTER  11 ITERATIONS
 ...... END OF RHF CALCULATION ......
 CPU     0: STEP CPU TIME=    38.78 TOTAL CPU TIME=       2461.0 (     41.0 MIN)
 TOTAL WALL CLOCK TIME=       5254.7 SECONDS, CPU UTILIZATION IS    46.83%
 DONE PCM POT.
 CPU     0: STEP CPU TIME=     0.37 TOTAL CPU TIME=       2461.3 (     41.0 MIN)
 TOTAL WALL CLOCK TIME=       5255.8 SECONDS, CPU UTILIZATION IS    46.83%

 Iter=  5 iFrag=      2 EFMO= -1380.571372698, DD= 0.003719335, DE= 0.002558496


 RHF      monomer      5 corr= NONE       , L1=   326, L0=   306 ID=     10


 AO spaces for     5     0     0 n-mer: L1=   326, L0=   306

 DIRECT SCF CALCULATION, SCHWRZ=T   FDIFF=T,  DIRTHR=  0.00E+00 NITDIR=10

                                                                                   NONZERO     BLOCKS
 ITER EX DEM     TOTAL ENERGY        E CHANGE  DENSITY CHANGE     ORB. GRAD      INTEGRALS    SKIPPED
   1  0  0     -902.5891505618  -902.5891505618   0.005380091   0.000000000      456996283   11330242
          ---------------START SECOND ORDER SCF---------------
   2  1  0     -902.5890012551     0.0001493067   0.001305708   0.000355673      393757120   12467209
   3  2  0     -902.5890538107    -0.0000525556   0.000265354   0.000066582      381843598   12618862
   4  3  0     -902.5890394100     0.0000144008   0.000065294   0.000023482      362013350   12848957
   5  4  0     -902.5890388236     0.0000005863   0.000025585   0.000007569      339976614   13077176
   6  5  0     -902.5890387505     0.0000000731   0.000007226   0.000002018      322698607   13270394
   7  6  0     -902.5890390461    -0.0000002955   0.000002051   0.000001133      297192438   13539892
   8  7  0     -902.5890390216     0.0000000245   0.000000768   0.000000195      275020357   13763565
   9  8  0     -902.5890390254    -0.0000000038   0.000000302   0.000000088      254678839   13968215
  10  9  0     -902.5890390278    -0.0000000024   0.000000115   0.000000042      237317516   14150334

          -----------------
          DENSITY CONVERGED
          -----------------
     TIME TO FORM FOCK OPERATORS=      11.1 SECONDS (       1.1 SEC/ITER)
     FOCK TIME ON FIRST ITERATION=       1.5, LAST ITERATION=       0.8
     TIME TO SOLVE SCF EQUATIONS=       0.2 SECONDS (       0.0 SEC/ITER)

 FINAL RHF ENERGY IS     -902.5890390278 AFTER  10 ITERATIONS
 ...... END OF RHF CALCULATION ......
 CPU     0: STEP CPU TIME=    22.58 TOTAL CPU TIME=       2483.9 (     41.4 MIN)
 TOTAL WALL CLOCK TIME=       5305.2 SECONDS, CPU UTILIZATION IS    46.82%
 DONE PCM POT.
 CPU     0: STEP CPU TIME=     0.32 TOTAL CPU TIME=       2484.2 (     41.4 MIN)
 TOTAL WALL CLOCK TIME=       5306.2 SECONDS, CPU UTILIZATION IS    46.82%

 Iter=  5 iFrag=      5 EFMO=  -942.883977381, DD= 0.004466679, DE= 0.003247530


 RHF      monomer     11 corr= NONE       , L1=   262, L0=   246 ID=     11


 AO spaces for    11     0     0 n-mer: L1=   262, L0=   246

 DIRECT SCF CALCULATION, SCHWRZ=T   FDIFF=T,  DIRTHR=  0.00E+00 NITDIR=10

                                                                                   NONZERO     BLOCKS
 ITER EX DEM     TOTAL ENERGY        E CHANGE  DENSITY CHANGE     ORB. GRAD      INTEGRALS    SKIPPED
   1  0  0     -781.3262484026  -781.3262484026   0.005182292   0.000000000      324151577    3472290
          ---------------START SECOND ORDER SCF---------------
   2  1  0     -781.3261314275     0.0001169751   0.001220776   0.000276173      274816220    4291707
   3  2  0     -781.3261620746    -0.0000306471   0.000263363   0.000050947      266436057    4402133
   4  3  0     -781.3261542135     0.0000078611   0.000051353   0.000007629      250461008    4592144
   5  4  0     -781.3261519862     0.0000022273   0.000023077   0.000003309      232123719    4790366
   6  5  0     -781.3261521543    -0.0000001681   0.000004615   0.000001070      221288396    4917310
   7  6  0     -781.3261521717    -0.0000000175   0.000001734   0.000000578      202641136    5139454
   8  7  0     -781.3261522068    -0.0000000351   0.000000604   0.000000112      187187228    5300047
   9  8  0     -781.3261522218    -0.0000000149   0.000000250   0.000000047      169700662    5482388
  10  9  0     -781.3261522240    -0.0000000022   0.000000073   0.000000016      155085986    5639509
  11 10  0     -781.3261522248    -0.0000000008   0.000000000   0.000000006      137977069    5805218

          -----------------
          DENSITY CONVERGED
          -----------------
     TIME TO FORM FOCK OPERATORS=       7.8 SECONDS (       0.7 SEC/ITER)
     FOCK TIME ON FIRST ITERATION=       1.1, LAST ITERATION=       0.5
     TIME TO SOLVE SCF EQUATIONS=       0.2 SECONDS (       0.0 SEC/ITER)

 FINAL RHF ENERGY IS     -781.3261522248 AFTER  11 ITERATIONS
 ...... END OF RHF CALCULATION ......
 CPU     0: STEP CPU TIME=    23.46 TOTAL CPU TIME=       2507.7 (     41.8 MIN)
 TOTAL WALL CLOCK TIME=       5351.7 SECONDS, CPU UTILIZATION IS    46.86%
 DONE PCM POT.
 CPU     0: STEP CPU TIME=     0.22 TOTAL CPU TIME=       2507.9 (     41.8 MIN)
 TOTAL WALL CLOCK TIME=       5352.3 SECONDS, CPU UTILIZATION IS    46.86%

 Iter=  5 iFrag=     11 EFMO=  -815.657453280, DD= 0.004244569, DE= 0.005577246

 CPU     0: STEP CPU TIME=     0.00 TOTAL CPU TIME=       2507.9 (     41.8 MIN)
 TOTAL WALL CLOCK TIME=       5352.3 SECONDS, CPU UTILIZATION IS    46.86%

  Monomer SCF synchronisation on iteration   5.1 took     0.0 s.
 CPU     0: STEP CPU TIME=     0.00 TOTAL CPU TIME=       2507.9 (     41.8 MIN)
 TOTAL WALL CLOCK TIME=       5352.3 SECONDS, CPU UTILIZATION IS    46.86%
 dmexch needs              4174666  words of memory.
 CPU     0: STEP CPU TIME=     0.02 TOTAL CPU TIME=       2507.9 (     41.8 MIN)
 TOTAL WALL CLOCK TIME=       5352.3 SECONDS, CPU UTILIZATION IS    46.86%

 Data exchange of   1382864 words took     0.0 s.

 Calculating apparent surface charges...
     Using       54732 words of memory.
 ASC ITERATION=   1 CONVERGED TO  0.148141E-03
 ASC ITERATION=   2 CONVERGED TO  0.122816E-02
 ASC ITERATION=   3 CONVERGED TO  0.201197E-02
 ASC ITERATION=   4 CONVERGED TO  0.372965E-03
 ASC ITERATION=   5 CONVERGED TO  0.117229E-03
 ASC ITERATION=   6 CONVERGED TO  0.105054E-03
 ASC ITERATION=   7 CONVERGED TO  0.481182E-04
 ASC ITERATION=   8 CONVERGED TO  0.363369E-04
 ASC ITERATION=   9 CONVERGED TO  0.217059E-04
 ASC ITERATION=  10 CONVERGED TO  0.108340E-04
 ASC ITERATION=  11 CONVERGED TO  0.556203E-05
 ASC ITERATION=  12 CONVERGED TO  0.268520E-05
 ASC ITERATION=  13 CONVERGED TO  0.939614E-06
 ASC ITERATION=  14 CONVERGED TO  0.599410E-06
 ASC ITERATION=  15 CONVERGED TO  0.497360E-06
 ASC ITERATION=  16 CONVERGED TO  0.268450E-06
 ASC ITERATION=  17 CONVERGED TO  0.136697E-06
 ASC ITERATION=  18 CONVERGED TO  0.694792E-07
 ASC ITERATION=  19 CONVERGED TO  0.390920E-07
 ASC ITERATION=  20 CONVERGED TO  0.245197E-07
 ASC ITERATION=  21 CONVERGED TO  0.117440E-07
 ASC ITERATION=  22 CONVERGED TO  0.848931E-08
 ASC ITERATION=  23 CONVERGED TO  0.521777E-08
 ASC ITERATION=  24 CONVERGED TO  0.343725E-08
 ASC ITERATION=  25 CONVERGED TO  0.265445E-08
 ASC ITERATION=  26 CONVERGED TO  0.164321E-08
 ASC ITERATION=  27 CONVERGED TO  0.101449E-08
 ASC ITERATION=  28 CONVERGED TO  0.560238E-09
 ASC ITERATION=  29 CONVERGED TO  0.312216E-09
 ASC ITERATION=  30 CONVERGED TO  0.185688E-09
 ASC ITERATION=  31 CONVERGED TO  0.104699E-09
 ASC ITERATION=  32 CONVERGED TO  0.584342E-10

 THE ASC EQUATIONS FOR PHASE=1 CONVERGED IN  32 ITERATIONS.

 PCM ASC=      8.8208519435 normalised to=      8.8851894374
 Nuclear factor=   1.0028937218, electronic factor=   1.0029158976

 CPU     0: STEP CPU TIME=     0.20 TOTAL CPU TIME=       2508.1 (     41.8 MIN)
 TOTAL WALL CLOCK TIME=       5352.8 SECONDS, CPU UTILIZATION IS    46.86%


 ------------------------------------------------------------------------------
 FMO iter  5.1,      0 fragment(s) converged, maxD 0.004466679 maxE 0.005577246
 ------------------------------------------------------------------------------

 RHF      monomer      1 corr= NONE       , L1=   388, L0=   364 ID=      1


 AO spaces for     1     0     0 n-mer: L1=   388, L0=   364

 DIRECT SCF CALCULATION, SCHWRZ=T   FDIFF=T,  DIRTHR=  0.00E+00 NITDIR=10

                                                                                   NONZERO     BLOCKS
 ITER EX DEM     TOTAL ENERGY        E CHANGE  DENSITY CHANGE     ORB. GRAD      INTEGRALS    SKIPPED
   1  0  0    -1467.7934145900 -1467.7934145900   0.000966981   0.000000000      959955500   18746563
          ---------------START SECOND ORDER SCF---------------
   2  1  0    -1467.7933711438     0.0000434463   0.000150331   0.000048442      713304434   21732622
   3  2  0    -1467.7933773353    -0.0000061915   0.000093650   0.000014393      678262086   22026065
   4  3  0    -1467.7933727492     0.0000045861   0.000022966   0.000007341      635800913   22404294
   5  4  0    -1467.7933736520    -0.0000009029   0.000006543   0.000002619      587163135   22827301
   6  5  0    -1467.7933740001    -0.0000003481   0.000002652   0.000000717      540054671   23220671
   7  6  0    -1467.7933739762     0.0000000239   0.000000940   0.000000294      492776651   23593520
   8  7  0    -1467.7933739744     0.0000000018   0.000000206   0.000000063      439497252   24046590
   9  8  0    -1467.7933739951    -0.0000000207   0.000000087   0.000000027      396857597   24403198

          -----------------
          DENSITY CONVERGED
          -----------------
     TIME TO FORM FOCK OPERATORS=      17.8 SECONDS (       2.0 SEC/ITER)
     FOCK TIME ON FIRST ITERATION=       2.4, LAST ITERATION=       1.3
     TIME TO SOLVE SCF EQUATIONS=       0.4 SECONDS (       0.0 SEC/ITER)

 FINAL RHF ENERGY IS    -1467.7933739951 AFTER   9 ITERATIONS
 ...... END OF RHF CALCULATION ......
 CPU     0: STEP CPU TIME=    34.81 TOTAL CPU TIME=       2543.0 (     42.4 MIN)
 TOTAL WALL CLOCK TIME=       5431.4 SECONDS, CPU UTILIZATION IS    46.82%
 DONE PCM POT.
 CPU     0: STEP CPU TIME=     0.45 TOTAL CPU TIME=       2543.4 (     42.4 MIN)
 TOTAL WALL CLOCK TIME=       5432.6 SECONDS, CPU UTILIZATION IS    46.82%

 Iter=  6 iFrag=      1 EFMO= -1522.828225690, DD= 0.001182000, DE=-0.003336660


 RHF      monomer      4 corr= NONE       , L1=   386, L0=   362 ID=      2


 AO spaces for     4     0     0 n-mer: L1=   386, L0=   362

 DIRECT SCF CALCULATION, SCHWRZ=T   FDIFF=T,  DIRTHR=  0.00E+00 NITDIR=10

                                                                                   NONZERO     BLOCKS
 ITER EX DEM     TOTAL ENERGY        E CHANGE  DENSITY CHANGE     ORB. GRAD      INTEGRALS    SKIPPED
   1  0  0    -1455.0209821306 -1455.0209821306   0.001346733   0.000000000      902304661   17555540
          ---------------START SECOND ORDER SCF---------------
   2  1  0    -1455.0208569923     0.0001251383   0.000235260   0.000049408      722119179   20093850
   3  2  0    -1455.0208685623    -0.0000115700   0.000134564   0.000016920      686268701   20409158
   4  3  0    -1455.0208579171     0.0000106451   0.000031689   0.000005557      637645089   20817697
   5  4  0    -1455.0208572094     0.0000007078   0.000007549   0.000002010      587336190   21243747
   6  5  0    -1455.0208576624    -0.0000004530   0.000002152   0.000000420      535107643   21650892
   7  6  0    -1455.0208577570    -0.0000000946   0.000000832   0.000000179      488588247   22023021
   8  7  0    -1455.0208577533     0.0000000037   0.000000230   0.000000061      441484622   22412609
   9  8  0    -1455.0208577434     0.0000000099   0.000000086   0.000000033      396050750   22769662

          -----------------
          DENSITY CONVERGED
          -----------------
     TIME TO FORM FOCK OPERATORS=      17.6 SECONDS (       2.0 SEC/ITER)
     FOCK TIME ON FIRST ITERATION=       2.6, LAST ITERATION=       1.5
     TIME TO SOLVE SCF EQUATIONS=       0.4 SECONDS (       0.0 SEC/ITER)

 FINAL RHF ENERGY IS    -1455.0208577434 AFTER   9 ITERATIONS
 ...... END OF RHF CALCULATION ......
 CPU     0: STEP CPU TIME=    40.56 TOTAL CPU TIME=       2584.0 (     43.1 MIN)
 TOTAL WALL CLOCK TIME=       5521.1 SECONDS, CPU UTILIZATION IS    46.80%
 DONE PCM POT.
 CPU     0: STEP CPU TIME=     0.43 TOTAL CPU TIME=       2584.4 (     43.1 MIN)
 TOTAL WALL CLOCK TIME=       5522.4 SECONDS, CPU UTILIZATION IS    46.80%

 Iter=  6 iFrag=      4 EFMO= -1507.452062000, DD= 0.001649971, DE=-0.002919170


 RHF      monomer      3 corr= NONE       , L1=   386, L0=   362 ID=      3

