‘2LHP_3_fmo_input.inp’ -> ‘/scratch/hazwong/820700/./2LHP_3_fmo_input.inp’
‘rungms’ -> ‘/scratch/hazwong/820700/./rungms’
‘gms-files.csh’ -> ‘/scratch/hazwong/820700/./gms-files.csh’
----- GAMESS execution script 'rungms' -----
This job is running on host gollum053.lsa.umich.edu
under operating system Linux at Thu Dec 5 23:24:41 EST 2019
Available scratch disk space (Kbyte units) at beginning of the job is
Filesystem     1K-blocks  Used Available Use% Mounted on
/dev/sda4      426933580 33468 426900112   1% /scratch
GAMESS temporary binary files will be written to /scratch/hazwong/820700/2LHP_3/usrc
GAMESS supplementary output files will be written to /scratch/hazwong/820700/2LHP_3/src
Copying input file 2LHP_3_fmo_input.inp to your run's scratch directory...
cp 2LHP_3_fmo_input.inp /scratch/hazwong/820700/2LHP_3/usrc/2LHP_3_fmo_input.F05
unset echo
This is a GDDI run, keeping various output files on local disks
setenv OUTPUT /scratch/hazwong/820700/2LHP_3/usrc/2LHP_3_fmo_input.F06
setenv PUNCH /scratch/hazwong/820700/2LHP_3/usrc/2LHP_3_fmo_input.F07
unset echo
 
Assuming a single but multicore node.
 
/export/apps/CentOS7/gamess/src/build//ddikick.x /export/apps/CentOS7/gamess/src/build//gamess.R3.x 2LHP_3_fmo_input -ddi 1 16 gollum053.lsa.umich.edu:cpus=16 -scr /scratch/hazwong/820700/2LHP_3/usrc

 Distributed Data Interface kickoff program.
 Initiating 16 compute processes on 1 nodes to run the following command:
 /export/apps/CentOS7/gamess/src/build//gamess.R3.x 2LHP_3_fmo_input 

          ******************************************************
          *         GAMESS VERSION = 30 SEP 2018 (R3)         *
          *             FROM IOWA STATE UNIVERSITY             *
          * M.W.SCHMIDT, K.K.BALDRIDGE, J.A.BOATZ, S.T.ELBERT, *
          *   M.S.GORDON, J.H.JENSEN, S.KOSEKI, N.MATSUNAGA,   *
          *          K.A.NGUYEN, S.J.SU, T.L.WINDUS,           *
          *       TOGETHER WITH M.DUPUIS, J.A.MONTGOMERY       *
          *         J.COMPUT.CHEM.  14, 1347-1363(1993)        *
          **************** 64 BIT LINUX VERSION ****************

  SINCE 1993, STUDENTS AND POSTDOCS WORKING AT IOWA STATE UNIVERSITY
  AND ALSO IN THEIR VARIOUS JOBS AFTER LEAVING ISU HAVE MADE IMPORTANT
  CONTRIBUTIONS TO THE CODE:
     IVANA ADAMOVIC, CHRISTINE AIKENS, YURI ALEXEEV, POOJA ARORA,
     ANDREY ASADCHEV, ROB BELL, PRADIPTA BANDYOPADHYAY, JONATHAN BENTZ,
     BRETT BODE, KURT BRORSEN, CALEB CARLIN, GALINA CHABAN, WEI CHEN,
     CHEOL HO CHOI, PAUL DAY, ALBERT DEFUSCO, NUWAN DESILVA, TIM DUDLEY,
     DMITRI FEDOROV, ALEX FINDLATER, GRAHAM FLETCHER, MARK FREITAG,
     KURT GLAESEMANN, ANASTASIA GUNINA,
     DAN KEMP, GRANT MERRILL, NORIYUKI MINEZAWA, JONATHAN MULLIN,
     TAKESHI NAGATA, SEAN NEDD, HEATHER NETZLOFF, BOSILJKA NJEGIC, RYAN OLSON,
     MIKE PAK, BUU PHAM,
     SPENCER PRUITT, LUKE ROSKOP, JIM SHOEMAKER, LYUDMILA SLIPCHENKO,
     TONY SMITH, SAROM SOK LEANG, JIE SONG, TETSUYA TAKETSUGU, SIMON WEBB,
     PENG XU, SOOHAENG YOO, FEDERICO ZAHARIEV

  ADDITIONAL CODE HAS BEEN PROVIDED BY COLLABORATORS IN OTHER GROUPS:
     IOWA STATE UNIVERSITY:
          JOE IVANIC, AARON WEST, LAIMUTIS BYTAUTAS, KLAUS RUEDENBERG
     UNIVERSITY OF TOKYO: KIMIHIKO HIRAO, TAKAHITO NAKAJIMA,
          TAKAO TSUNEDA, MUNEAKI KAMIYA, SUSUMU YANAGISAWA,
          KIYOSHI YAGI, MAHITO CHIBA, SEIKEN TOKURA, NAOAKI KAWAKAMI
     UNIVERSITY OF AARHUS: FRANK JENSEN
     UNIVERSITY OF IOWA: VISVALDAS KAIRYS, HUI LI
     NATIONAL INST. OF STANDARDS AND TECHNOLOGY: WALT STEVENS, DAVID GARMER
     UNIVERSITY OF PISA: BENEDETTA MENNUCCI, JACOPO TOMASI
     UNIVERSITY OF MEMPHIS: HENRY KURTZ, PRAKASHAN KORAMBATH
     UNIVERSITY OF ALBERTA: TOBY ZENG, MARIUSZ KLOBUKOWSKI
     UNIVERSITY OF NEW ENGLAND: MARK SPACKMAN
     MIE UNIVERSITY: HIROAKI UMEDA
     NAT. INST. OF ADVANCED INDUSTRIAL SCIENCE AND TECHNOLOGY: KAZUO KITAURA
     MICHIGAN STATE UNIVERSITY:
          KAROL KOWALSKI, MARTA WLOCH, JEFFREY GOUR, JESSE LUTZ,
          WEI LI, JUN SHEN, J. EMILIANO DEUSTUA, PIOTR PIECUCH
     UNIVERSITY OF MINNESOTA:
          YINAN SHU
     UNIVERSITY OF SILESIA: MONIKA MUSIAL, STANISLAW KUCHARSKI
     FACULTES UNIVERSITAIRES NOTRE-DAME DE LA PAIX:
          OLIVIER QUINET, BENOIT CHAMPAGNE
     UNIVERSITY OF CALIFORNIA - SANTA BARBARA: BERNARD KIRTMAN
     INSTITUTE FOR MOLECULAR SCIENCE:
          KAZUYA ISHIMURA, MICHIO KATOUDA, AND SHIGERU NAGASE
     UNIVERSITY OF NOTRE DAME: ANNA POMOGAEVA, DAN CHIPMAN
     KYUSHU UNIVERSITY:
          HARUYUKI NAKANO,
          FENG LONG GU, JACEK KORCHOWIEC, MARCIN MAKOWSKI, AND YURIKO AOKI,
          HIROTOSHI MORI AND EISAKU MIYOSHI
     PENNSYLVANIA STATE UNIVERSITY:
          TZVETELIN IORDANOV, CHET SWALINA, JONATHAN SKONE,
          SHARON HAMMES-SCHIFFER
     WASEDA UNIVERSITY:
          MASATO KOBAYASHI, TOMOKO AKAMA, TSUGUKI TOUMA,
          TAKESHI YOSHIKAWA, YASUHIRO IKABATA, JUNJI SEINO,
          YUYA NAKAJIMA, HIROMI NAKAI
     NANJING UNIVERSITY: SHUHUA LI
     UNIVERSITY OF NEBRASKA:
          PEIFENG SU, DEJUN SI, NANDUN THELLAMUREGE, YALI WANG, HUI LI
     UNIVERSITY OF ZURICH: ROBERTO PEVERATI, KIM BALDRIDGE
     N. COPERNICUS UNIVERSITY AND JACKSON STATE UNIVERSITY:
          MARIA BARYSZ
     UNIVERSITY OF COPENHAGEN: Jimmy Kromann, CASPER STEINMANN
     TOKYO INSTITUTE OF TECHNOLOGY: HIROYA NAKATA
     NAGOYA UNIVERSITY: YOSHIO NISHIMOTO, STEPHAN IRLE
     MOSCOW STATE UNIVERSITY: VLADIMIR MIRONOV


 PARALLEL VERSION RUNNING ON       16 PROCESSORS IN        1 NODES.

 EXECUTION OF GAMESS BEGUN Thu Dec  5 23:24:42 2019

            ECHO OF THE FIRST FEW INPUT CARDS -
 INPUT CARD>!*** FMO 5.3 (Gamess) INPUT generated by Facio 22.1.1.32 ***                    
 INPUT CARD> $CONTRL RUNTYP=ENERGY NPRINT=-5 ISPHER=1 MAXIT=200 $END                        
 INPUT CARD> $SYSTEM MWORDS=63 MEMDDI=63 $END                                               
 INPUT CARD> $GDDI NGROUP=1 $END                                                            
 INPUT CARD> $SCF DIRSCF=.TRUE. NPUNCH=0 $END                                               
 INPUT CARD>!*** NumCPU : 2  MemPerNode : 512MB                                             
 INPUT CARD> $PCM SOLVNT=WATER IEF=-10 ICOMP=2 ICAV=1 IDISP=1 IFMO=-1 $END                  
 INPUT CARD> $PCMCAV RADII=SUAHF $END                                                       
 INPUT CARD> $TESCAV NTSALL=60 $END                                                         
 INPUT CARD> $FMOPRP                                                                        
 INPUT CARD>    NAODIR=200                                                                  
 INPUT CARD>    NGRFMO(1)=1, 1, 0, 0, 0,   0, 0, 0, 0, 0                                    
 INPUT CARD>    IPIEDA=1                                                                    
 INPUT CARD>    NPRINT=9                                                                    
 INPUT CARD> $END                                                                           
 INPUT CARD> $FMO                                                                           
 INPUT CARD>      SCFTYP(1)=RHF                                                             
 INPUT CARD>      MODGRD=10                                                                 
 INPUT CARD>      MODMUL=0                                                                  
 INPUT CARD>      MAXCAO=5                                                                  
 INPUT CARD>      MAXBND=13                                                                 
 INPUT CARD>      NLAYER=1                                                                  
 INPUT CARD>      MPLEVL(1)=2                                                               
 INPUT CARD>      NFRAG=11                                                                  
 INPUT CARD>      ICHARG(1)=-1, -1, -1, -1, 0, -1, -1, -1, -1, -1, 0                        
 INPUT CARD>      FRGNAM(1)=F1, F2, F3, F4, F5, F6, F7, F8, F9, F10, F11                    
 INPUT CARD>      indat(1)=0                                                                
 INPUT CARD>               1   -35   0                                                      
 INPUT CARD>               36   -65   0                                                     
 INPUT CARD>               66   -99   0                                                     
 INPUT CARD>               100   -133   0                                                   
 INPUT CARD>               134   -165   0                                                   
 INPUT CARD>               166   -195   0                                                   
 INPUT CARD>               196   -226   0                                                   
 INPUT CARD>               227   -259   0                                                   
 INPUT CARD>               260   -292   0                                                   
 INPUT CARD>               293   -325   0                                                   
 INPUT CARD>               326   -352   0                                                   
 INPUT CARD> $END                                                                           
 INPUT CARD>                                                                                
 INPUT CARD> $FMOBND                                                                        
 INPUT CARD>   -36   35       6-31G*    MINI                                                
 INPUT CARD>   -66   65       6-31G*    MINI                                                
 INPUT CARD>   -100   99       6-31G*    MINI                                               
 INPUT CARD>   -134   133       6-31G*    MINI                                              
 INPUT CARD>   -166   165       6-31G*    MINI                                              
 INPUT CARD>   -196   195       6-31G*    MINI                                              
 INPUT CARD>   -227   226       6-31G*    MINI                                              
 INPUT CARD>   -260   259       6-31G*    MINI                                              
 INPUT CARD>   -293   292       6-31G*    MINI                                              


 -------------------------------------------------------------
 GROUP DDI, PROGRAMMED BY: RYAN M. OLSON AND DMITRI G. FEDOROV
        FEDOROV ET AL., J. COMPUT. CHEM., 25 (2004) 872.
 -------------------------------------------------------------

 -------------------------------------------------------
 GDDI: INITIALIZATION COMPLETED FOR GROUP     1 OF     1
 WITH    16 PROCESSES BALTYP=DLB   global rank=        0
 -------------------------------------------------------

   63000000 WORDS OF MEMORY AVAILABLE


     RUN TITLE
     ---------
  FMO calculation                                                                

 THE POINT GROUP OF THE MOLECULE IS C1      
 THE ORDER OF THE PRINCIPAL AXIS IS     0

 ATOM   ATOMIC CHARGE
 H.1-1       1.0
 O.1-1       8.0
 C.1-1       6.0
 N.1-1       7.0
 P.1-1      15.0

     ATOMIC BASIS SET LIBRARY
     ----------------
 THE CONTRACTED PRIMITIVE FUNCTIONS HAVE BEEN UNNORMALIZED
 THE CONTRACTED BASIS FUNCTIONS ARE NOW NORMALIZED TO UNITY

  SHELL TYPE  PRIMITIVE        EXPONENT          CONTRACTION COEFFICIENT(S)

 H.1-1     

      1   S       1            18.7311370    0.033494604338
      1   S       2             2.8253944    0.234726953484
      1   S       3             0.6401217    0.813757326146

      2   S       4             0.1612778    1.000000000000

 O.1-1     

      3   S       5          5484.6716600    0.001831074430
      3   S       6           825.2349460    0.013950172200
      3   S       7           188.0469580    0.068445078098
      3   S       8            52.9645000    0.232714335992
      3   S       9            16.8975704    0.470192897984
      3   S      10             5.7996353    0.358520852987

      4   L      11            15.5396162   -0.110777549525    0.070874268231
      4   L      12             3.5999336   -0.148026262701    0.339752839147
      4   L      13             1.0137618    1.130767015354    0.727158577316

      5   L      14             0.2700058    1.000000000000    1.000000000000

      6   D      15             0.8000000    1.000000000000

 C.1-1     

      7   S      16          3047.5248800    0.001834737132
      7   S      17           457.3695180    0.014037322813
      7   S      18           103.9486850    0.068842622264
      7   S      19            29.2101553    0.232184443216
      7   S      20             9.2866630    0.467941348435
      7   S      21             3.1639270    0.362311985337

      8   L      22             7.8682723   -0.119332419775    0.068999066591
      8   L      23             1.8812885   -0.160854151696    0.316423960957
      8   L      24             0.5442493    1.143456437840    0.744308290898

      9   L      25             0.1687145    1.000000000000    1.000000000000

     10   D      26             0.8000000    1.000000000000

 N.1-1     

     11   S      27          4173.5114600    0.001834772160
     11   S      28           627.4579110    0.013994627002
     11   S      29           142.9020930    0.068586551812
     11   S      30            40.2343293    0.232240873040
     11   S      31            12.8202129    0.469069948082
     11   S      32             4.3904370    0.360455199063

     12   L      33            11.6263619   -0.114961181702    0.067579743878
     12   L      34             2.7162798   -0.169117478561    0.323907295893
     12   L      35             0.7722184    1.145851947027    0.740895139755

     13   L      36             0.2120315    1.000000000000    1.000000000000

     14   D      37             0.8000000    1.000000000000

 P.1-1     

     15   S      38         19413.3000000    0.001851598923
     15   S      39          2909.4200000    0.014206191735
     15   S      40           661.3640000    0.069999459277
     15   S      41           185.7590000    0.240078860331
     15   S      42            59.1943000    0.484761717984
     15   S      43            20.0310000    0.335199804993

     16   L      44           339.4780000   -0.002782170105    0.004564616191
     16   L      45            81.0101000   -0.036049901354    0.033693571881
     16   L      46            25.8780000   -0.116631004382    0.139754883368
     16   L      47             9.4522100    0.096832803638    0.339361716786
     16   L      48             3.6656600    0.614418023082    0.450920623685
     16   L      49             1.4674600    0.403798015170    0.238585800889

     17   L      50             2.1562300   -0.252924113863   -0.017765312733
     17   L      51             0.7489970    0.032851844678    0.274058196433
     17   L      52             0.2831450    1.081254761783    0.785421562957

     18   L      53             0.0998317    1.000000000000    1.000000000000

     19   D      54             0.5500000    1.000000000000

 TOTAL NUMBER OF BASIS SET SHELLS             =   19
 NUMBER OF CARTESIAN GAUSSIAN BASIS FUNCTIONS =   66

     $CONTRL OPTIONS
     ---------------
 SCFTYP=RHF          RUNTYP=ENERGY       EXETYP=RUN     
 MPLEVL=       0     CITYP =NONE         CCTYP =NONE         VBTYP =NONE    
 DFTTYP=NONE         TDDFT =NONE    
 MULT  =       1     ICHARG=       0     NZVAR =       0     COORD =UNIQUE  
 PP    =NONE         RELWFN=NONE         LOCAL =NONE         NUMGRD=       F
 ISPHER=       1     NOSYM =       0     MAXIT =     200     UNITS =ANGS    
 PLTORB=       F     MOLPLT=       F     AIMPAC=       F     FRIEND=        
 NPRINT=      -5     IREST =       0     GEOM  =INPUT   
 NORMF =       0     NORMP =       0     ITOL  =      24     ICUT  =      12
 INTTYP=BEST         GRDTYP=BEST         QMTTOL= 1.0E-06

     $SYSTEM OPTIONS
     ---------------
  REPLICATED MEMORY=    63000000 WORDS (ON EVERY NODE).
 DISTRIBUTED MEMDDI=          63 MILLION WORDS IN AGGREGATE,
 MEMDDI DISTRIBUTED OVER  16 PROCESSORS IS     3937500 WORDS/PROCESSOR.
 TOTAL MEMORY REQUESTED ON EACH PROCESSOR=    66937500 WORDS.
 TIMLIM=      525600.00 MINUTES, OR     365.0 DAYS.
 PARALL= T  BALTYP=  DLB     KDIAG=    0  COREFL= F
 MXSEQ2=     300 MXSEQ3=     150  mem10=         0

 ** LOOKING UP INTERNALLY STORED DATA FOR SOLVENT=WATER    **
 OPTICAL AND PHYSICAL CONSTANTS:
 EPS= 78.390; EPSINF=  1.776; RSOLV=  1.385 A; VMOL=  18.070 ML/MOL;
 TCE= .25700E-03 1/K; STEN= 71.810 DYN/CM;  DSTEN=  0.6500; CMF=  1.2770


     -----------------------------------
     INPUT FOR PCM SOLVATION CALCULATION 
     -----------------------------------
     IEF   =     -10
     ICOMP =       2     IFIELD=       0     ICAV  =       1
     IDISP =       1     IREP  =       0     IDP   =       0

     SOLVNT=WATER        EPS   = 78.3900     EPSINF=  1.7760
     VMOL  = 18.0700     TCE   =  0.00025700 STEN  = 71.8100
     DSTEN =  0.6500     CMF   =  1.2770     RSOLV =  1.3850

     NESFP =       0
     OMEGA = 40.0000     RET   =100.0000     FRO   =  0.7000

     TABS  =298.0000     IPRINT=       0

     --------------------------------
     INPUT FOR ITERATIVE C-PCM METHOD 
     --------------------------------
     IPCMIT  =         1     MXDIIS  =        50
     MXITR1  =       200     MXITR2  =       200
     THRES   = 0.100E-09     IMUL    =         3
     RCUT(1) =   20.0000     RCUT(2) =   50.0000

     IDIRCT  =         1
     IMGABI  =         0     RABI    =    4.0000
     IMGASC  =         0     RASC    =   20.0000
     THRSLS  = 0.500E-03     DENSLS  =    0.0100
     IEFPOL  =         1     REFPOL  =    0.0000

     INPUT FOR ISOTROPIC DIELECTRICS
     -------------------------------
     EPS=    78.39

          ----------------
          PROPERTIES INPUT
          ----------------

     MOMENTS            FIELD           POTENTIAL          DENSITY
 IEMOM =       1   IEFLD =       0   IEPOT =       0   IEDEN =       0
 WHERE =COMASS     WHERE =NUCLEI     WHERE =NUCLEI     WHERE =NUCLEI  
 OUTPUT=BOTH       OUTPUT=BOTH       OUTPUT=NONE       OUTPUT=BOTH    
 IEMINT=       0   IEFINT=       0                     IEDINT=       0
                                                       MORB  =       0
          EXTRAPOLATION IN EFFECT
          SOSCF IN EFFECT
 ORBITAL PRINTING OPTION: NPREO=     1 32767     2     1

     -------------------------------
     INTEGRAL TRANSFORMATION OPTIONS
     -------------------------------
     NWORD  =            0
     CUTOFF = 1.0E-10     MPTRAN =       0
     DIRTRF =       T     AOINTS =DUP     

          ----------------------
          INTEGRAL INPUT OPTIONS
          ----------------------
 NOPK  =       1 NORDER=       0 SCHWRZ=       T

 ..... DONE SETTING UP THE RUN .....
 CPU     0: STEP CPU TIME=     0.04 TOTAL CPU TIME=          0.0 (      0.0 MIN)
 TOTAL WALL CLOCK TIME=          0.1 SECONDS, CPU UTILIZATION IS    44.44%
 CPU     0: STEP CPU TIME=     0.00 TOTAL CPU TIME=          0.0 (      0.0 MIN)
 TOTAL WALL CLOCK TIME=          0.1 SECONDS, CPU UTILIZATION IS    44.44%

                    ----------------------
                    AO INTEGRAL TECHNOLOGY
                    ----------------------
     S,P,L SHELL ROTATED AXIS INTEGRALS, REPROGRAMMED BY
        KAZUYA ISHIMURA (IMS) AND JOSE SIERRA (SYNSTAR).
     S,P,D,L SHELL ROTATED AXIS INTEGRALS PROGRAMMED BY
        KAZUYA ISHIMURA (INSTITUTE FOR MOLECULAR SCIENCE).
     S,P,D,F,G SHELL TO TOTAL QUARTET ANGULAR MOMENTUM SUM 5,
        ERIC PROGRAM BY GRAHAM FLETCHER (ELORET AND NASA ADVANCED
        SUPERCOMPUTING DIVISION, AMES RESEARCH CENTER).
     S,P,D,F,G,L SHELL GENERAL RYS QUADRATURE PROGRAMMED BY
        MICHEL DUPUIS (PACIFIC NORTHWEST NATIONAL LABORATORY).
 Setting modorb=1 flag...
 Setting modorb=1 flag...

          -----------------------
          MP2 CONTROL INFORMATION
          -----------------------
          NACORE =        8  NBCORE =        8
          LMOMP2 =        F  AOINTS = DUP     
          METHOD =        2  NWORD  =               0
          MP2PRP =        F  OSPT   = NONE    
          CUTOFF = 1.00E-12  CPHFBS = BASISAO 
          CODE   = IMS     

          NUMBER OF CORE -A-  ORBITALS =     8
          NUMBER OF CORE -B-  ORBITALS =     8
          NUMBER OF OCC. -A-  ORBITALS =    18
          NUMBER OF OCC. -B-  ORBITALS =    18
          NUMBER OF MOLECULAR ORBITALS =    66
          NUMBER OF   BASIS  FUNCTIONS =    66

 CPU     0: STEP CPU TIME=     0.02 TOTAL CPU TIME=          0.1 (      0.0 MIN)
 TOTAL WALL CLOCK TIME=          0.1 SECONDS, CPU UTILIZATION IS    46.15%
 CPU     0: STEP CPU TIME=     0.00 TOTAL CPU TIME=          0.1 (      0.0 MIN)
 TOTAL WALL CLOCK TIME=          0.1 SECONDS, CPU UTILIZATION IS    46.15%

     INPUT FOR CAVITY DEFINITION 
     ---------------------------
   ATOM               COORDINATES                RADIUS       EPS
      1      4.0850     -3.9710      1.3060      0.0100     78.3900
      2      3.6180     -3.7510      0.4760      1.5900     78.3900
      3      3.5370     -4.9590     -0.2980      1.7700     78.3900
      4      3.0830     -5.7630      0.3240      0.0100     78.3900
      5      4.5640     -5.2840     -0.5800      0.0100     78.3900
      6      2.7110     -4.8010     -1.5780      1.7700     78.3900
      7      2.7080     -5.7370     -2.1720      0.0100     78.3900
      8      1.3260     -4.4940     -1.2450      1.5900     78.3900
      9      0.8160     -3.5630     -2.1830      1.7700     78.3900
     10     -0.0970     -4.0300     -2.6240      0.0100     78.3900
     11      0.4400     -2.3060     -1.5290      1.6800     78.3900
     12     -0.4970     -0.3730     -1.0620      1.7700     78.3900
     13      0.2780     -0.7050      0.0430      1.6800     78.3900
     14      0.8140     -1.8580     -0.2820      1.7700     78.3900
     15      1.4940     -2.4400      0.3460      0.0100     78.3900
     16     -1.9570      0.7580     -2.5440      1.6800     78.3900
     17     -1.7480     -0.2530     -3.3960      1.7700     78.3900
     18     -2.2790     -0.1760     -4.3510      0.0100     78.3900
     19     -0.9930     -1.3470     -3.2440      1.6800     78.3900
     20     -0.3970     -1.3480     -2.0400      1.7700     78.3900
     21     -1.3290      0.7320     -1.3410      1.7700     78.3900
     22     -1.5380      1.7390     -0.4720      1.6800     78.3900
     23     -1.1070      1.7510      0.4380      0.0100     78.3900
     24     -2.1110      2.5230     -0.7290      0.0100     78.3900
     25      1.8620     -3.3800     -3.2600      1.7700     78.3900
     26      1.8510     -2.3640     -3.7070      0.0100     78.3900
     27      1.6630     -4.3480     -4.2700      1.5900     78.3900
     28      2.4100     -4.2780     -4.8760      0.0100     78.3900
     29      3.1510     -3.6470     -2.4880      1.7700     78.3900
     30      3.3870     -2.7840     -1.8210      0.0100     78.3900
     31      4.2800     -4.0640     -3.2930      1.5900     78.3900
     32      5.2570     -2.9560     -3.8500      2.1000     78.3900
     33      5.6710     -2.0860     -2.7310      1.5900     78.3900
     34      6.3390     -3.6160     -4.6110      1.5900     78.3900
     35      4.3540     -2.1190     -4.8250      1.5900     78.3900
     36      3.9520     -2.6630     -6.1030      1.7700     78.3900
     37      3.3270     -3.5730     -5.9770      0.0100     78.3900
     38      4.8450     -2.9490     -6.7070      0.0100     78.3900
     39      3.1440     -1.6420     -6.9170      1.7700     78.3900
     40      2.8140     -2.0840     -7.8860      0.0100     78.3900
     41      1.9370     -1.2440     -6.2000      1.5900     78.3900
     42      1.6920      0.1420     -6.4310      1.7700     78.3900
     43      0.6700      0.1950     -6.8770      0.0100     78.3900
     44      1.7280      0.9330     -5.1700      1.6800     78.3900
     45      2.2910      0.4170     -4.0210      1.7700     78.3900
     46      2.7430     -0.5690     -4.1240      0.0100     78.3900
     47      1.1460      2.1800     -5.1670      1.7700     78.3900
     48      0.6190      2.6690     -6.1650      1.5900     78.3900
     49      1.1830      2.8280     -3.9630      1.6800     78.3900
     50      0.6920      3.7150     -3.9240      0.0100     78.3900
     51      1.6770      2.3620     -2.7690      1.7700     78.3900
     52      1.5930      3.0530     -1.7550      1.5900     78.3900
     53      2.2750      1.0650     -2.8470      1.7700     78.3900
     54      2.7090      0.6370     -1.9470      0.0100     78.3900
     55      2.7060      0.6220     -7.4570      1.7700     78.3900
     56      3.0050      1.6790     -7.2990      0.0100     78.3900
     57      2.2000      0.4570     -8.7710      1.5900     78.3900
     58      2.9450      0.5830     -9.3760      0.0100     78.3900
     59      3.8680     -0.3180     -7.1980      1.7700     78.3900
     60      4.3790     -0.0320     -6.2490      0.0100     78.3900
     61      4.7580     -0.4630     -8.3220      1.5900     78.3900
     62      6.2050      0.1450     -8.2790      2.1000     78.3900
     63      6.7380      0.0740     -6.9020      1.5900     78.3900
     64      7.0000     -0.5350     -9.3270      1.5900     78.3900
     65      6.0060      1.6550     -8.6770      1.5900     78.3900
     66      5.6260      1.9890    -10.0350      1.7700     78.3900
     67      4.7410      1.3960    -10.3650      0.0100     78.3900
     68      6.4640      1.7740    -10.7390      0.0100     78.3900
     69      5.2640      3.4740    -10.1700      1.7700     78.3900
     70      4.9630      3.7180    -11.2100      0.0100     78.3900
     71      4.1280      3.7760     -9.3090      1.5900     78.3900
     72      4.3260      5.0500     -8.7110      1.7700     78.3900
     73      3.4160      5.6520     -8.9290      0.0100     78.3900
     74      4.4920      4.9510     -7.2560      1.6800     78.3900
     75      4.4360      5.9970     -6.3780      1.7700     78.3900
     76      4.0820      9.3840     -5.7490      1.6800     78.3900
     77      3.8920      9.7590     -6.6590      0.0100     78.3900
     78      4.0870      9.9860     -4.9590      0.0100     78.3900
     79      4.2180      7.2860     -6.6990      1.6800     78.3900
     80      4.2570      8.0810     -5.6320      1.7700     78.3900
     81      4.4770      7.6230     -4.3620      1.6800     78.3900
     82      4.3450      8.2780     -3.6060      0.0100     78.3900
     83      4.5920      6.2910     -3.9940      1.7700     78.3900
     84      4.7210      5.9680     -2.8090      1.5900     78.3900
     85      4.6050      5.4380     -5.1270      1.7700     78.3900
     86      4.7770      4.0620     -5.2160      1.6800     78.3900
     87      4.7150      3.8180     -6.5040      1.7700     78.3900
     88      4.8110      2.8360     -6.9720      0.0100     78.3900
     89      5.5210      5.6860     -9.3830      1.7700     78.3900
     90      6.0760      6.3800     -8.7140      0.0100     78.3900
     91      5.1050      6.3730    -10.5490      1.5900     78.3900
     92      5.9080      6.6110    -11.0280      0.0100     78.3900
     93      6.3600      4.4660     -9.7330      1.7700     78.3900
     94      6.8390      4.0410     -8.8200      0.0100     78.3900
     95      7.3010      4.6760    -10.8090      1.5900     78.3900
     96      8.7440      5.2260    -10.4790      2.1000     78.3900
     97      9.3460      4.3460     -9.4520      1.5900     78.3900
     98      9.4590      5.3840    -11.7660      1.5900     78.3900
     99      8.5100      6.6400     -9.8270      1.5900     78.3900
    100      8.1850      7.8090    -10.6100      1.7700     78.3900
    101      7.1960      7.6960    -11.1060      0.0100     78.3900
    102      8.9440      7.9770    -11.4080      0.0100     78.3900
    103      8.1220      9.0710     -9.7400      1.7700     78.3900
    104      7.8140      9.9530    -10.3410      0.0100     78.3900
    105      7.1420      8.9060     -8.6770      1.5900     78.3900
    106      7.6250      9.5300     -7.4980      1.7700     78.3900
    107      6.8480     10.2630     -7.1870      0.0100     78.3900
    108      7.8160      8.5530     -6.4180      1.6800     78.3900
    109      7.9090      8.8270     -5.0810      1.7700     78.3900
    110      7.9160     11.1010     -2.4640      1.6800     78.3900
    111      7.8330     11.9840     -2.9270      0.0100     78.3900
    112      8.0730     11.0910     -1.4720      0.0100     78.3900
    113      7.8530     10.0470     -4.5190      1.6800     78.3900
    114      7.9440      9.9990     -3.1910      1.7700     78.3900
    115      8.0850      8.8290     -2.4950      1.6800     78.3900
    116      8.1430      8.8810     -1.4890      0.0100     78.3900
    117      8.1340      7.5540     -3.0460      1.7700     78.3900
    118      8.2460      6.5480     -2.3380      1.5900     78.3900
    119      8.0480      7.5990     -4.4610      1.7700     78.3900
    120      8.0600      6.5700     -5.3960      1.6800     78.3900
    121      7.9140      7.1850     -6.5450      1.7700     78.3900
    122      7.8840      6.7010     -7.5230      0.0100     78.3900
    123      8.9030     10.2620     -7.8550      1.7700     78.3900
    124      9.6280     10.2940     -7.0150      0.0100     78.3900
    125      8.6060     11.5810     -8.2720      1.5900     78.3900
    126      9.4220     11.9530     -8.6320      0.0100     78.3900
    127      9.4220      9.4140     -9.0080      1.7700     78.3900
    128      9.8270      8.4480     -8.6210      0.0100     78.3900
    129     10.3200     10.0980     -9.9100      1.5900     78.3900
    130     11.8670      9.8420     -9.7990      2.1000     78.3900
    131     12.1250      8.4100     -9.5560      1.5900     78.3900
    132     12.5370     10.4520    -10.9680      1.5900     78.3900
    133     12.2670     10.6390     -8.5030      1.5900     78.3900
    134     12.2410     12.0850     -8.5200      1.7700     78.3900
    135     11.2370     12.4740     -8.8080      0.0100     78.3900
    136     12.9870     12.4790     -9.2500      0.0100     78.3900
    137     12.5900     12.6500     -7.1390      1.7700     78.3900
    138     12.6240     13.7590     -7.1640      0.0100     78.3900
    139     11.5680     12.2720     -6.1700      1.5900     78.3900
    140     12.1890     12.0080     -4.9200      1.7700     78.3900
    141     11.7010     12.6820     -4.1780      0.0100     78.3900
    142     11.9760     10.6140     -4.5110      1.6800     78.3900
    143     11.7520      8.7670     -3.3370      1.7700     78.3900
    144     11.4340      8.4360     -4.6440      1.6800     78.3900
    145     11.5890      9.5590     -5.3010      1.7700     78.3900
    146     11.4460      9.6820     -6.3770      0.0100     78.3900
    147     12.1440      8.6500     -1.0070      1.6800     78.3900
    148     12.4460      9.9510     -1.0710      1.7700     78.3900
    149     12.7390     10.4110     -0.1200      0.0100     78.3900
    150     12.4610     10.7650     -2.1340      1.6800     78.3900
    151     12.0900     10.1060     -3.2420      1.7700     78.3900
    152     11.7830      8.0100     -2.1460      1.7700     78.3900
    153     11.4780      6.7020     -2.0860      1.6800     78.3900
    154     11.2000      6.1840     -2.8970      0.0100     78.3900
    155     11.5120      6.2150     -1.2090      0.0100     78.3900
    156     13.6590     12.3710     -5.0430      1.7700     78.3900
    157     14.3040     11.7100     -4.4280      0.0100     78.3900
    158     13.8520     13.7250     -4.6650      1.5900     78.3900
    159     14.7630     13.9850     -4.8830      0.0100     78.3900
    160     13.9050     12.1420     -6.5300      1.7700     78.3900
    161     13.9950     11.0560     -6.7480      0.0100     78.3900
    162     15.0240     12.8680     -7.0690      1.5900     78.3900
    163     15.8480     12.5330     -6.6790      0.0100     78.3900
    164     11.7810      4.1650      7.4950      0.0100     78.3900
    165     11.8440      4.9920      6.9850      1.5900     78.3900
    166     12.5830      5.9240      7.7900      1.7700     78.3900
    167     13.5890      5.5020      8.0040      0.0100     78.3900
    168     12.0600      6.0460      8.7630      0.0100     78.3900
    169     12.7550      7.3030      7.1330      1.7700     78.3900
    170     13.2190      8.0180      7.8470      0.0100     78.3900
    171     13.6580      7.2000      5.9870      1.5900     78.3900
    172     13.1960      8.0500      4.9450      1.7700     78.3900
    173     14.0510      8.7170      4.6850      0.0100     78.3900
    174     12.7570      7.2770      3.7460      1.6800     78.3900
    175     12.4540      5.9330      3.8280      1.7700     78.3900
    176     12.5760      5.4810      4.8130      0.0100     78.3900
    177     12.6670      7.9400      2.5440      1.7700     78.3900
    178     12.9300      9.1330      2.4270      1.5900     78.3900
    179     12.2720      7.1710      1.4810      1.6800     78.3900
    180     12.2410      7.6510      0.5890      0.0100     78.3900
    181     12.0120      5.8160      1.4740      1.7700     78.3900
    182     11.7520      5.2420      0.4160      1.5900     78.3900
    183     12.0900      5.2000      2.7650      1.7700     78.3900
    184     11.9050      4.1320      2.8510      0.0100     78.3900
    185     12.0720      8.8900      5.5270      1.7700     78.3900
    186     11.3240      9.1770      4.7630      0.0100     78.3900
    187     12.5950     10.0550      6.1360      1.5900     78.3900
    188     11.8500     10.4970      6.5620      0.0100     78.3900
    189     11.4760      7.9390      6.5600      1.7700     78.3900
    190     10.9070      7.1260      6.0540      0.0100     78.3900
    191     10.7230      8.5830      7.6150      1.5900     78.3900
    192      9.1710      8.7690      7.4510      2.1000     78.3900
    193      8.5960      7.4920      6.9840      1.5900     78.3900
    194      8.6470      9.3020      8.7340      1.5900     78.3900
    195      9.0440      9.8310      6.2980      1.5900     78.3900
    196      9.4360     11.2070      6.4980      1.7700     78.3900
    197     10.5040     11.2900      6.8000      0.0100     78.3900
    198      8.8280     11.6640      7.3070      0.0100     78.3900
    199      9.2270     12.0610      5.2360      1.7700     78.3900
    200      9.5210     13.1150      5.4210      0.0100     78.3900
    201     10.0570     11.5620      4.1460      1.5900     78.3900
    202      9.3320     11.6460      2.9170      1.7700     78.3900
    203      9.9630     12.2570      2.2330      0.0100     78.3900
    204      9.0890     10.3150      2.2810      1.6800     78.3900
    205      9.2120      9.1660      3.0260      1.7700     78.3900
    206      9.5020      9.3050      4.0670      0.0100     78.3900
    207      9.0160      7.9560      2.4900      1.7700     78.3900
    208      9.1430      7.0400      3.0630      0.0100     78.3900
    209      8.7010     10.2240      0.9440      1.7700     78.3900
    210      8.5550     11.2640      0.2820      1.5900     78.3900
    211      8.4990      9.0080      0.3820      1.6800     78.3900
    212      8.6540      7.8910      1.1140      1.7700     78.3900
    213      8.4740      6.7070      0.5300      1.6800     78.3900
    214      8.3250      6.6700     -0.4600      0.0100     78.3900
    215      8.5390      5.8410      1.0350      0.0100     78.3900
    216      8.0440     12.4020      3.2010      1.7700     78.3900
    217      7.2010     12.0510      2.5700      0.0100     78.3900
    218      8.2230     13.7980      3.0240      1.5900     78.3900
    219      7.4350     14.2220      3.3910      0.0100     78.3900
    220      7.8050     12.0480      4.6590      1.7700     78.3900
    221      7.4850     10.9880      4.7320      0.0100     78.3900
    222      6.9490     12.9730      5.3710      1.5900     78.3900
    223      5.4960     12.5190      5.7970      2.1000     78.3900
    224      5.3910     11.0440      5.8130      1.5900     78.3900
    225      5.1190     13.2240      7.0420      1.5900     78.3900
    226      4.5910     13.0450      4.6220      1.5900     78.3900
    227      4.4120     14.4620      4.4030      1.7700     78.3900
    228      5.3800     15.0120      4.4560      0.0100     78.3900
    229      3.7370     14.8860      5.1810      0.0100     78.3900
    230      3.7990     14.7320      3.0220      1.7700     78.3900
    231      3.6400     15.8230      2.8670      0.0100     78.3900
    232      4.7250     14.2870      1.9910      1.5900     78.3900
    233      3.9920     13.7070      0.9240      1.7700     78.3900
    234      4.2900     14.2620      0.0040      0.0100     78.3900
    235      4.3330     12.2900      0.7700      1.6800     78.3900
    236      4.7410     10.3110     -0.0930      1.7700     78.3900
    237      5.0450     10.2140      1.2580      1.6800     78.3900
    238      4.7860     11.4110      1.7250      1.7700     78.3900
    239      4.9310     11.7210      2.7600      0.0100     78.3900
    240      4.4310      9.8160     -2.3880      1.6800     78.3900
    241      3.9660     11.0640     -2.5100      1.7700     78.3900
    242      3.6300     11.3560     -3.5110      0.0100     78.3900
    243      3.8650     12.0250     -1.5900      1.6800     78.3900
    244      4.2850     11.5820     -0.3980      1.7700     78.3900
    245      4.8310      9.3890     -1.1580      1.7700     78.3900
    246      5.2720      8.1240     -0.9930      1.6800     78.3900
    247      5.4780      7.7680     -0.0780      0.0100     78.3900
    248      5.1210      7.4450     -1.7150      0.0100     78.3900
    249      2.5140     13.9230      1.1920      1.7700     78.3900
    250      1.8780     13.0940      0.8120      0.0100     78.3900
    251      2.0920     15.1460      0.6200      1.5900     78.3900
    252      1.1770     15.3010      0.9010      0.0100     78.3900
    253      2.4910     13.9830      2.7170      1.7700     78.3900
    254      2.6160     12.9600      3.1380      0.0100     78.3900
    255      1.3650     14.6850      3.2960      1.5900     78.3900
    256      0.0000     13.8900      3.4320      2.1000     78.3900
    257      0.2580     12.4370      3.5050      1.5900     78.3900
    258     -0.7280     14.4980      4.5700      1.5900     78.3900
    259     -0.7890     14.2550      2.1090      1.5900     78.3900
    260     -1.8800     13.4000      1.6670      1.7700     78.3900
    261     -2.8520     13.8020      2.0320      0.0100     78.3900
    262     -1.7930     12.3580      2.0650      0.0100     78.3900
    263     -1.9390     13.2880      0.1350      1.7700     78.3900
    264     -2.2390     14.2560     -0.3210      0.0100     78.3900
    265     -0.6140     12.9610     -0.3700      1.5900     78.3900
    266     -0.7260     12.0660     -1.4520      1.7700     78.3900
    267     -0.2050     12.5440     -2.3120      0.0100     78.3900
    268     -0.0800     10.7960     -1.1330      1.6800     78.3900
    269      1.0220      8.9080     -1.3000      1.7700     78.3900
    270      0.7100      9.0480      0.0460      1.6800     78.3900
    271      0.0560     10.1860      0.0910      1.7700     78.3900
    272     -0.3570     10.6380      0.9960      0.0100     78.3900
    273      1.7700      8.0480     -3.3680      1.6800     78.3900
    274      1.2460      9.1340     -3.9330      1.7700     78.3900
    275      1.3730      9.2050     -5.0180      0.0100     78.3900
    276      0.6350     10.1700     -3.3540      1.6800     78.3900
    277      0.5340      9.9770     -2.0310      1.7700     78.3900
    278      1.7020      7.9090     -2.0210      1.7700     78.3900
    279      2.3130      6.8620     -1.4360      1.6800     78.3900
    280      2.2820      6.7130     -0.4480      0.0100     78.3900
    281      2.8960      6.2740     -1.9960      0.0100     78.3900
    282     -2.1960     11.9050     -1.7770      1.7700     78.3900
    283     -2.4420     10.8910     -2.1540      0.0100     78.3900
    284     -2.5930     12.8670     -2.7350      1.5900     78.3900
    285     -3.5500     12.7810     -2.8330      0.0100     78.3900
    286     -2.8410     12.1640     -0.4210      1.7700     78.3900
    287     -2.6830     11.2830      0.2460      0.0100     78.3900
    288     -4.2270     12.5940     -0.4820      1.5900     78.3900
    289     -5.3510     11.4890     -0.3710      2.1000     78.3900
    290     -4.9770     10.5680      0.7240      1.5900     78.3900
    291     -6.6730     12.1390     -0.2420      1.5900     78.3900
    292     -5.2770     10.7280     -1.7450      1.5900     78.3900
    293     -5.7420     11.3490     -2.9660      1.7700     78.3900
    294     -5.2850     12.3560     -3.1110      0.0100     78.3900
    295     -6.8480     11.4860     -2.9390      0.0100     78.3900
    296     -5.4020     10.4920     -4.1960      1.7700     78.3900
    297     -5.7310     11.0020     -5.1270      0.0100     78.3900
    298     -3.9590     10.3150     -4.2900      1.5900     78.3900
    299     -3.6750      9.0030     -4.7470      1.7700     78.3900
    300     -3.0190      9.1020     -5.6420      0.0100     78.3900
    301     -2.9820      8.2280     -3.7090      1.6800     78.3900
    302     -1.6930      6.7880     -2.6600      1.7700     78.3900
    303     -2.3180      7.5360     -1.6750      1.6800     78.3900
    304     -3.0760      8.3640     -2.3440      1.7700     78.3900
    305     -3.7230      9.1090     -1.8870      0.0100     78.3900
    306     -0.4030      5.1630     -3.7810      1.6800     78.3900
    307     -0.8710      5.6800     -4.9190      1.7700     78.3900
    308     -0.5050      5.1980     -5.8310      0.0100     78.3900
    309     -1.7110      6.7040     -5.1010      1.6800     78.3900
    310     -2.0940      7.2070     -3.9190      1.7700     78.3900
    311     -0.7950      5.7020     -2.6010      1.7700     78.3900
    312     -0.3280      5.1720     -1.4540      1.6800     78.3900
    313     -0.5500      5.5600     -0.5530      0.0100     78.3900
    314      0.3900      4.4730     -1.5040      0.0100     78.3900
    315     -4.9890      8.3690     -5.1580      1.7700     78.3900
    316     -4.9950      7.2700     -5.0160      0.0100     78.3900
    317     -5.2730      8.6660     -6.5130      1.5900     78.3900
    318     -6.1590      8.3290     -6.7030      0.0100     78.3900
    319     -5.9620      9.0610     -4.2120      1.7700     78.3900
    320     -5.8450      8.6690     -3.1740      0.0100     78.3900
    321     -7.3300      9.0710     -4.6700      1.5900     78.3900
    322     -8.3720      8.0630     -4.0710      2.1000     78.3900
    323     -8.1260      7.9070     -2.6250      1.5900     78.3900
    324     -9.7250      8.5020     -4.4770      1.5900     78.3900
    325     -8.0140      6.6970     -4.7650      1.5900     78.3900
    326     -8.1920      6.5170     -6.1860      1.7700     78.3900
    327     -7.6810      7.3230     -6.7580      0.0100     78.3900
    328     -9.2770      6.5530     -6.4470      0.0100     78.3900
    329     -7.6310      5.1710     -6.6660      1.7700     78.3900
    330     -7.8750      5.0080     -7.7400      0.0100     78.3900
    331     -6.1760      5.1720     -6.5550      1.5900     78.3900
    332     -5.7330      3.8830     -6.1450      1.7700     78.3900
    333     -5.0090      3.5430     -6.9240      0.0100     78.3900
    334     -5.0720      3.9260     -4.8060      1.6800     78.3900
    335     -5.3110      4.9570     -3.9240      1.7700     78.3900
    336     -6.0160      5.7080     -4.2730      0.0100     78.3900
    337     -4.2280      2.8940     -4.4600      1.7700     78.3900
    338     -4.0050      1.9450     -5.2060      1.5900     78.3900
    339     -3.6630      2.9980     -3.2170      1.6800     78.3900
    340     -3.0410      2.2400     -2.9570      0.0100     78.3900
    341     -3.8420      4.0030     -2.2940      1.7700     78.3900
    342     -3.2760      3.9460     -1.2050      1.5900     78.3900
    343     -4.7230      5.0470     -2.7230      1.7700     78.3900
    344     -4.9160      5.8780     -2.0460      0.0100     78.3900
    345     -6.9480      2.9620     -6.1580      1.7700     78.3900
    346     -6.8830      2.1890     -5.3640      0.0100     78.3900
    347     -7.0820      2.3350     -7.4260      1.5900     78.3900
    348     -7.9430      1.8780     -7.4670      0.0100     78.3900
    349     -8.0820      3.9410     -5.8690      1.7700     78.3900
    350     -8.0950      4.2040     -4.7920      0.0100     78.3900
    351     -9.3780      3.4970     -6.3060      1.5900     78.3900
    352     -9.6400      2.6950     -5.8150      0.0100     78.3900

     ----------------------------
     INPUT FOR TESSERA DEFINITION
     ----------------------------
     NTSALL  =        60     MTHALL  =         4
     MTHAUT  =         0     AUTFRE  =    2.0000
     NTSFRZ  =        60     KEEPSM  =         0
     AREAKP  =   10.0000     BONDRY  =    1.0000
     AREATL  =    0.0100

     SPHERE     INITS       METHOD
          1        60       FIXPVA
          2        60       FIXPVA
          3        60       FIXPVA
          4        60       FIXPVA
          5        60       FIXPVA
          6        60       FIXPVA
          7        60       FIXPVA
          8        60       FIXPVA
          9        60       FIXPVA
         10        60       FIXPVA
         11        60       FIXPVA
         12        60       FIXPVA
         13        60       FIXPVA
         14        60       FIXPVA
         15        60       FIXPVA
         16        60       FIXPVA
         17        60       FIXPVA
         18        60       FIXPVA
         19        60       FIXPVA
         20        60       FIXPVA
         21        60       FIXPVA
         22        60       FIXPVA
         23        60       FIXPVA
         24        60       FIXPVA
         25        60       FIXPVA
         26        60       FIXPVA
         27        60       FIXPVA
         28        60       FIXPVA
         29        60       FIXPVA
         30        60       FIXPVA
         31        60       FIXPVA
         32        60       FIXPVA
         33        60       FIXPVA
         34        60       FIXPVA
         35        60       FIXPVA
         36        60       FIXPVA
         37        60       FIXPVA
         38        60       FIXPVA
         39        60       FIXPVA
         40        60       FIXPVA
         41        60       FIXPVA
         42        60       FIXPVA
         43        60       FIXPVA
         44        60       FIXPVA
         45        60       FIXPVA
         46        60       FIXPVA
         47        60       FIXPVA
         48        60       FIXPVA
         49        60       FIXPVA
         50        60       FIXPVA
         51        60       FIXPVA
         52        60       FIXPVA
         53        60       FIXPVA
         54        60       FIXPVA
         55        60       FIXPVA
         56        60       FIXPVA
         57        60       FIXPVA
         58        60       FIXPVA
         59        60       FIXPVA
         60        60       FIXPVA
         61        60       FIXPVA
         62        60       FIXPVA
         63        60       FIXPVA
         64        60       FIXPVA
         65        60       FIXPVA
         66        60       FIXPVA
         67        60       FIXPVA
         68        60       FIXPVA
         69        60       FIXPVA
         70        60       FIXPVA
         71        60       FIXPVA
         72        60       FIXPVA
         73        60       FIXPVA
         74        60       FIXPVA
         75        60       FIXPVA
         76        60       FIXPVA
         77        60       FIXPVA
         78        60       FIXPVA
         79        60       FIXPVA
         80        60       FIXPVA
         81        60       FIXPVA
         82        60       FIXPVA
         83        60       FIXPVA
         84        60       FIXPVA
         85        60       FIXPVA
         86        60       FIXPVA
         87        60       FIXPVA
         88        60       FIXPVA
         89        60       FIXPVA
         90        60       FIXPVA
         91        60       FIXPVA
         92        60       FIXPVA
         93        60       FIXPVA
         94        60       FIXPVA
         95        60       FIXPVA
         96        60       FIXPVA
         97        60       FIXPVA
         98        60       FIXPVA
         99        60       FIXPVA
        100        60       FIXPVA
        101        60       FIXPVA
        102        60       FIXPVA
        103        60       FIXPVA
        104        60       FIXPVA
        105        60       FIXPVA
        106        60       FIXPVA
        107        60       FIXPVA
        108        60       FIXPVA
        109        60       FIXPVA
        110        60       FIXPVA
        111        60       FIXPVA
        112        60       FIXPVA
        113        60       FIXPVA
        114        60       FIXPVA
        115        60       FIXPVA
        116        60       FIXPVA
        117        60       FIXPVA
        118        60       FIXPVA
        119        60       FIXPVA
        120        60       FIXPVA
        121        60       FIXPVA
        122        60       FIXPVA
        123        60       FIXPVA
        124        60       FIXPVA
        125        60       FIXPVA
        126        60       FIXPVA
        127        60       FIXPVA
        128        60       FIXPVA
        129        60       FIXPVA
        130        60       FIXPVA
        131        60       FIXPVA
        132        60       FIXPVA
        133        60       FIXPVA
        134        60       FIXPVA
        135        60       FIXPVA
        136        60       FIXPVA
        137        60       FIXPVA
        138        60       FIXPVA
        139        60       FIXPVA
        140        60       FIXPVA
        141        60       FIXPVA
        142        60       FIXPVA
        143        60       FIXPVA
        144        60       FIXPVA
        145        60       FIXPVA
        146        60       FIXPVA
        147        60       FIXPVA
        148        60       FIXPVA
        149        60       FIXPVA
        150        60       FIXPVA
        151        60       FIXPVA
        152        60       FIXPVA
        153        60       FIXPVA
        154        60       FIXPVA
        155        60       FIXPVA
        156        60       FIXPVA
        157        60       FIXPVA
        158        60       FIXPVA
        159        60       FIXPVA
        160        60       FIXPVA
        161        60       FIXPVA
        162        60       FIXPVA
        163        60       FIXPVA
        164        60       FIXPVA
        165        60       FIXPVA
        166        60       FIXPVA
        167        60       FIXPVA
        168        60       FIXPVA
        169        60       FIXPVA
        170        60       FIXPVA
        171        60       FIXPVA
        172        60       FIXPVA
        173        60       FIXPVA
        174        60       FIXPVA
        175        60       FIXPVA
        176        60       FIXPVA
        177        60       FIXPVA
        178        60       FIXPVA
        179        60       FIXPVA
        180        60       FIXPVA
        181        60       FIXPVA
        182        60       FIXPVA
        183        60       FIXPVA
        184        60       FIXPVA
        185        60       FIXPVA
        186        60       FIXPVA
        187        60       FIXPVA
        188        60       FIXPVA
        189        60       FIXPVA
        190        60       FIXPVA
        191        60       FIXPVA
        192        60       FIXPVA
        193        60       FIXPVA
        194        60       FIXPVA
        195        60       FIXPVA
        196        60       FIXPVA
        197        60       FIXPVA
        198        60       FIXPVA
        199        60       FIXPVA
        200        60       FIXPVA
        201        60       FIXPVA
        202        60       FIXPVA
        203        60       FIXPVA
        204        60       FIXPVA
        205        60       FIXPVA
        206        60       FIXPVA
        207        60       FIXPVA
        208        60       FIXPVA
        209        60       FIXPVA
        210        60       FIXPVA
        211        60       FIXPVA
        212        60       FIXPVA
        213        60       FIXPVA
        214        60       FIXPVA
        215        60       FIXPVA
        216        60       FIXPVA
        217        60       FIXPVA
        218        60       FIXPVA
        219        60       FIXPVA
        220        60       FIXPVA
        221        60       FIXPVA
        222        60       FIXPVA
        223        60       FIXPVA
        224        60       FIXPVA
        225        60       FIXPVA
        226        60       FIXPVA
        227        60       FIXPVA
        228        60       FIXPVA
        229        60       FIXPVA
        230        60       FIXPVA
        231        60       FIXPVA
        232        60       FIXPVA
        233        60       FIXPVA
        234        60       FIXPVA
        235        60       FIXPVA
        236        60       FIXPVA
        237        60       FIXPVA
        238        60       FIXPVA
        239        60       FIXPVA
        240        60       FIXPVA
        241        60       FIXPVA
        242        60       FIXPVA
        243        60       FIXPVA
        244        60       FIXPVA
        245        60       FIXPVA
        246        60       FIXPVA
        247        60       FIXPVA
        248        60       FIXPVA
        249        60       FIXPVA
        250        60       FIXPVA
        251        60       FIXPVA
        252        60       FIXPVA
        253        60       FIXPVA
        254        60       FIXPVA
        255        60       FIXPVA
        256        60       FIXPVA
        257        60       FIXPVA
        258        60       FIXPVA
        259        60       FIXPVA
        260        60       FIXPVA
        261        60       FIXPVA
        262        60       FIXPVA
        263        60       FIXPVA
        264        60       FIXPVA
        265        60       FIXPVA
        266        60       FIXPVA
        267        60       FIXPVA
        268        60       FIXPVA
        269        60       FIXPVA
        270        60       FIXPVA
        271        60       FIXPVA
        272        60       FIXPVA
        273        60       FIXPVA
        274        60       FIXPVA
        275        60       FIXPVA
        276        60       FIXPVA
        277        60       FIXPVA
        278        60       FIXPVA
        279        60       FIXPVA
        280        60       FIXPVA
        281        60       FIXPVA
        282        60       FIXPVA
        283        60       FIXPVA
        284        60       FIXPVA
        285        60       FIXPVA
        286        60       FIXPVA
        287        60       FIXPVA
        288        60       FIXPVA
        289        60       FIXPVA
        290        60       FIXPVA
        291        60       FIXPVA
        292        60       FIXPVA
        293        60       FIXPVA
        294        60       FIXPVA
        295        60       FIXPVA
        296        60       FIXPVA
        297        60       FIXPVA
        298        60       FIXPVA
        299        60       FIXPVA
        300        60       FIXPVA
        301        60       FIXPVA
        302        60       FIXPVA
        303        60       FIXPVA
        304        60       FIXPVA
        305        60       FIXPVA
        306        60       FIXPVA
        307        60       FIXPVA
        308        60       FIXPVA
        309        60       FIXPVA
        310        60       FIXPVA
        311        60       FIXPVA
        312        60       FIXPVA
        313        60       FIXPVA
        314        60       FIXPVA
        315        60       FIXPVA
        316        60       FIXPVA
        317        60       FIXPVA
        318        60       FIXPVA
        319        60       FIXPVA
        320        60       FIXPVA
        321        60       FIXPVA
        322        60       FIXPVA
        323        60       FIXPVA
        324        60       FIXPVA
        325        60       FIXPVA
        326        60       FIXPVA
        327        60       FIXPVA
        328        60       FIXPVA
        329        60       FIXPVA
        330        60       FIXPVA
        331        60       FIXPVA
        332        60       FIXPVA
        333        60       FIXPVA
        334        60       FIXPVA
        335        60       FIXPVA
        336        60       FIXPVA
        337        60       FIXPVA
        338        60       FIXPVA
        339        60       FIXPVA
        340        60       FIXPVA
        341        60       FIXPVA
        342        60       FIXPVA
        343        60       FIXPVA
        344        60       FIXPVA
        345        60       FIXPVA
        346        60       FIXPVA
        347        60       FIXPVA
        348        60       FIXPVA
        349        60       FIXPVA
        350        60       FIXPVA
        351        60       FIXPVA
        352        60       FIXPVA

     ------------------------------
      FIXPVA TESSELLATION FOR PCM
         PEIFENG SU AND HUI LI
     UNIVERSITY OF NEBRASKA-LINCOLN
     ------------------------------


 PCM DIMENSIONS: MXSP=   352, MXTS=     14080, MEMORY=        144675

     INPUT FOR CAVITY DEFINITION 
     ---------------------------
   ATOM               COORDINATES                RADIUS       EPS
      1      4.0850     -3.9710      1.3060      0.0100     78.3900
      2      3.6180     -3.7510      0.4760      1.5900     78.3900
      3      3.5370     -4.9590     -0.2980      1.7700     78.3900
      4      3.0830     -5.7630      0.3240      0.0100     78.3900
      5      4.5640     -5.2840     -0.5800      0.0100     78.3900
      6      2.7110     -4.8010     -1.5780      1.7700     78.3900
      7      2.7080     -5.7370     -2.1720      0.0100     78.3900
      8      1.3260     -4.4940     -1.2450      1.5900     78.3900
      9      0.8160     -3.5630     -2.1830      1.7700     78.3900
     10     -0.0970     -4.0300     -2.6240      0.0100     78.3900
     11      0.4400     -2.3060     -1.5290      1.6800     78.3900
     12     -0.4970     -0.3730     -1.0620      1.7700     78.3900
     13      0.2780     -0.7050      0.0430      1.6800     78.3900
     14      0.8140     -1.8580     -0.2820      1.7700     78.3900
     15      1.4940     -2.4400      0.3460      0.0100     78.3900
     16     -1.9570      0.7580     -2.5440      1.6800     78.3900
     17     -1.7480     -0.2530     -3.3960      1.7700     78.3900
     18     -2.2790     -0.1760     -4.3510      0.0100     78.3900
     19     -0.9930     -1.3470     -3.2440      1.6800     78.3900
     20     -0.3970     -1.3480     -2.0400      1.7700     78.3900
     21     -1.3290      0.7320     -1.3410      1.7700     78.3900
     22     -1.5380      1.7390     -0.4720      1.6800     78.3900
     23     -1.1070      1.7510      0.4380      0.0100     78.3900
     24     -2.1110      2.5230     -0.7290      0.0100     78.3900
     25      1.8620     -3.3800     -3.2600      1.7700     78.3900
     26      1.8510     -2.3640     -3.7070      0.0100     78.3900
     27      1.6630     -4.3480     -4.2700      1.5900     78.3900
     28      2.4100     -4.2780     -4.8760      0.0100     78.3900
     29      3.1510     -3.6470     -2.4880      1.7700     78.3900
     30      3.3870     -2.7840     -1.8210      0.0100     78.3900
     31      4.2800     -4.0640     -3.2930      1.5900     78.3900
     32      5.2570     -2.9560     -3.8500      2.1000     78.3900
     33      5.6710     -2.0860     -2.7310      1.5900     78.3900
     34      6.3390     -3.6160     -4.6110      1.5900     78.3900
     35      4.3540     -2.1190     -4.8250      1.5900     78.3900
     36      3.9520     -2.6630     -6.1030      1.7700     78.3900
     37      3.3270     -3.5730     -5.9770      0.0100     78.3900
     38      4.8450     -2.9490     -6.7070      0.0100     78.3900
     39      3.1440     -1.6420     -6.9170      1.7700     78.3900
     40      2.8140     -2.0840     -7.8860      0.0100     78.3900
     41      1.9370     -1.2440     -6.2000      1.5900     78.3900
     42      1.6920      0.1420     -6.4310      1.7700     78.3900
     43      0.6700      0.1950     -6.8770      0.0100     78.3900
     44      1.7280      0.9330     -5.1700      1.6800     78.3900
     45      2.2910      0.4170     -4.0210      1.7700     78.3900
     46      2.7430     -0.5690     -4.1240      0.0100     78.3900
     47      1.1460      2.1800     -5.1670      1.7700     78.3900
     48      0.6190      2.6690     -6.1650      1.5900     78.3900
     49      1.1830      2.8280     -3.9630      1.6800     78.3900
     50      0.6920      3.7150     -3.9240      0.0100     78.3900
     51      1.6770      2.3620     -2.7690      1.7700     78.3900
     52      1.5930      3.0530     -1.7550      1.5900     78.3900
     53      2.2750      1.0650     -2.8470      1.7700     78.3900
     54      2.7090      0.6370     -1.9470      0.0100     78.3900
     55      2.7060      0.6220     -7.4570      1.7700     78.3900
     56      3.0050      1.6790     -7.2990      0.0100     78.3900
     57      2.2000      0.4570     -8.7710      1.5900     78.3900
     58      2.9450      0.5830     -9.3760      0.0100     78.3900
     59      3.8680     -0.3180     -7.1980      1.7700     78.3900
     60      4.3790     -0.0320     -6.2490      0.0100     78.3900
     61      4.7580     -0.4630     -8.3220      1.5900     78.3900
     62      6.2050      0.1450     -8.2790      2.1000     78.3900
     63      6.7380      0.0740     -6.9020      1.5900     78.3900
     64      7.0000     -0.5350     -9.3270      1.5900     78.3900
     65      6.0060      1.6550     -8.6770      1.5900     78.3900
     66      5.6260      1.9890    -10.0350      1.7700     78.3900
     67      4.7410      1.3960    -10.3650      0.0100     78.3900
     68      6.4640      1.7740    -10.7390      0.0100     78.3900
     69      5.2640      3.4740    -10.1700      1.7700     78.3900
     70      4.9630      3.7180    -11.2100      0.0100     78.3900
     71      4.1280      3.7760     -9.3090      1.5900     78.3900
     72      4.3260      5.0500     -8.7110      1.7700     78.3900
     73      3.4160      5.6520     -8.9290      0.0100     78.3900
     74      4.4920      4.9510     -7.2560      1.6800     78.3900
     75      4.4360      5.9970     -6.3780      1.7700     78.3900
     76      4.0820      9.3840     -5.7490      1.6800     78.3900
     77      3.8920      9.7590     -6.6590      0.0100     78.3900
     78      4.0870      9.9860     -4.9590      0.0100     78.3900
     79      4.2180      7.2860     -6.6990      1.6800     78.3900
     80      4.2570      8.0810     -5.6320      1.7700     78.3900
     81      4.4770      7.6230     -4.3620      1.6800     78.3900
     82      4.3450      8.2780     -3.6060      0.0100     78.3900
     83      4.5920      6.2910     -3.9940      1.7700     78.3900
     84      4.7210      5.9680     -2.8090      1.5900     78.3900
     85      4.6050      5.4380     -5.1270      1.7700     78.3900
     86      4.7770      4.0620     -5.2160      1.6800     78.3900
     87      4.7150      3.8180     -6.5040      1.7700     78.3900
     88      4.8110      2.8360     -6.9720      0.0100     78.3900
     89      5.5210      5.6860     -9.3830      1.7700     78.3900
     90      6.0760      6.3800     -8.7140      0.0100     78.3900
     91      5.1050      6.3730    -10.5490      1.5900     78.3900
     92      5.9080      6.6110    -11.0280      0.0100     78.3900
     93      6.3600      4.4660     -9.7330      1.7700     78.3900
     94      6.8390      4.0410     -8.8200      0.0100     78.3900
     95      7.3010      4.6760    -10.8090      1.5900     78.3900
     96      8.7440      5.2260    -10.4790      2.1000     78.3900
     97      9.3460      4.3460     -9.4520      1.5900     78.3900
     98      9.4590      5.3840    -11.7660      1.5900     78.3900
     99      8.5100      6.6400     -9.8270      1.5900     78.3900
    100      8.1850      7.8090    -10.6100      1.7700     78.3900
    101      7.1960      7.6960    -11.1060      0.0100     78.3900
    102      8.9440      7.9770    -11.4080      0.0100     78.3900
    103      8.1220      9.0710     -9.7400      1.7700     78.3900
    104      7.8140      9.9530    -10.3410      0.0100     78.3900
    105      7.1420      8.9060     -8.6770      1.5900     78.3900
    106      7.6250      9.5300     -7.4980      1.7700     78.3900
    107      6.8480     10.2630     -7.1870      0.0100     78.3900
    108      7.8160      8.5530     -6.4180      1.6800     78.3900
    109      7.9090      8.8270     -5.0810      1.7700     78.3900
    110      7.9160     11.1010     -2.4640      1.6800     78.3900
    111      7.8330     11.9840     -2.9270      0.0100     78.3900
    112      8.0730     11.0910     -1.4720      0.0100     78.3900
    113      7.8530     10.0470     -4.5190      1.6800     78.3900
    114      7.9440      9.9990     -3.1910      1.7700     78.3900
    115      8.0850      8.8290     -2.4950      1.6800     78.3900
    116      8.1430      8.8810     -1.4890      0.0100     78.3900
    117      8.1340      7.5540     -3.0460      1.7700     78.3900
    118      8.2460      6.5480     -2.3380      1.5900     78.3900
    119      8.0480      7.5990     -4.4610      1.7700     78.3900
    120      8.0600      6.5700     -5.3960      1.6800     78.3900
    121      7.9140      7.1850     -6.5450      1.7700     78.3900
    122      7.8840      6.7010     -7.5230      0.0100     78.3900
    123      8.9030     10.2620     -7.8550      1.7700     78.3900
    124      9.6280     10.2940     -7.0150      0.0100     78.3900
    125      8.6060     11.5810     -8.2720      1.5900     78.3900
    126      9.4220     11.9530     -8.6320      0.0100     78.3900
    127      9.4220      9.4140     -9.0080      1.7700     78.3900
    128      9.8270      8.4480     -8.6210      0.0100     78.3900
    129     10.3200     10.0980     -9.9100      1.5900     78.3900
    130     11.8670      9.8420     -9.7990      2.1000     78.3900
    131     12.1250      8.4100     -9.5560      1.5900     78.3900
    132     12.5370     10.4520    -10.9680      1.5900     78.3900
    133     12.2670     10.6390     -8.5030      1.5900     78.3900
    134     12.2410     12.0850     -8.5200      1.7700     78.3900
    135     11.2370     12.4740     -8.8080      0.0100     78.3900
    136     12.9870     12.4790     -9.2500      0.0100     78.3900
    137     12.5900     12.6500     -7.1390      1.7700     78.3900
    138     12.6240     13.7590     -7.1640      0.0100     78.3900
    139     11.5680     12.2720     -6.1700      1.5900     78.3900
    140     12.1890     12.0080     -4.9200      1.7700     78.3900
    141     11.7010     12.6820     -4.1780      0.0100     78.3900
    142     11.9760     10.6140     -4.5110      1.6800     78.3900
    143     11.7520      8.7670     -3.3370      1.7700     78.3900
    144     11.4340      8.4360     -4.6440      1.6800     78.3900
    145     11.5890      9.5590     -5.3010      1.7700     78.3900
    146     11.4460      9.6820     -6.3770      0.0100     78.3900
    147     12.1440      8.6500     -1.0070      1.6800     78.3900
    148     12.4460      9.9510     -1.0710      1.7700     78.3900
    149     12.7390     10.4110     -0.1200      0.0100     78.3900
    150     12.4610     10.7650     -2.1340      1.6800     78.3900
    151     12.0900     10.1060     -3.2420      1.7700     78.3900
    152     11.7830      8.0100     -2.1460      1.7700     78.3900
    153     11.4780      6.7020     -2.0860      1.6800     78.3900
    154     11.2000      6.1840     -2.8970      0.0100     78.3900
    155     11.5120      6.2150     -1.2090      0.0100     78.3900
    156     13.6590     12.3710     -5.0430      1.7700     78.3900
    157     14.3040     11.7100     -4.4280      0.0100     78.3900
    158     13.8520     13.7250     -4.6650      1.5900     78.3900
    159     14.7630     13.9850     -4.8830      0.0100     78.3900
    160     13.9050     12.1420     -6.5300      1.7700     78.3900
    161     13.9950     11.0560     -6.7480      0.0100     78.3900
    162     15.0240     12.8680     -7.0690      1.5900     78.3900
    163     15.8480     12.5330     -6.6790      0.0100     78.3900
    164     11.7810      4.1650      7.4950      0.0100     78.3900
    165     11.8440      4.9920      6.9850      1.5900     78.3900
    166     12.5830      5.9240      7.7900      1.7700     78.3900
    167     13.5890      5.5020      8.0040      0.0100     78.3900
    168     12.0600      6.0460      8.7630      0.0100     78.3900
    169     12.7550      7.3030      7.1330      1.7700     78.3900
    170     13.2190      8.0180      7.8470      0.0100     78.3900
    171     13.6580      7.2000      5.9870      1.5900     78.3900
    172     13.1960      8.0500      4.9450      1.7700     78.3900
    173     14.0510      8.7170      4.6850      0.0100     78.3900
    174     12.7570      7.2770      3.7460      1.6800     78.3900
    175     12.4540      5.9330      3.8280      1.7700     78.3900
    176     12.5760      5.4810      4.8130      0.0100     78.3900
    177     12.6670      7.9400      2.5440      1.7700     78.3900
    178     12.9300      9.1330      2.4270      1.5900     78.3900
    179     12.2720      7.1710      1.4810      1.6800     78.3900
    180     12.2410      7.6510      0.5890      0.0100     78.3900
    181     12.0120      5.8160      1.4740      1.7700     78.3900
    182     11.7520      5.2420      0.4160      1.5900     78.3900
    183     12.0900      5.2000      2.7650      1.7700     78.3900
    184     11.9050      4.1320      2.8510      0.0100     78.3900
    185     12.0720      8.8900      5.5270      1.7700     78.3900
    186     11.3240      9.1770      4.7630      0.0100     78.3900
    187     12.5950     10.0550      6.1360      1.5900     78.3900
    188     11.8500     10.4970      6.5620      0.0100     78.3900
    189     11.4760      7.9390      6.5600      1.7700     78.3900
    190     10.9070      7.1260      6.0540      0.0100     78.3900
    191     10.7230      8.5830      7.6150      1.5900     78.3900
    192      9.1710      8.7690      7.4510      2.1000     78.3900
    193      8.5960      7.4920      6.9840      1.5900     78.3900
    194      8.6470      9.3020      8.7340      1.5900     78.3900
    195      9.0440      9.8310      6.2980      1.5900     78.3900
    196      9.4360     11.2070      6.4980      1.7700     78.3900
    197     10.5040     11.2900      6.8000      0.0100     78.3900
    198      8.8280     11.6640      7.3070      0.0100     78.3900
    199      9.2270     12.0610      5.2360      1.7700     78.3900
    200      9.5210     13.1150      5.4210      0.0100     78.3900
    201     10.0570     11.5620      4.1460      1.5900     78.3900
    202      9.3320     11.6460      2.9170      1.7700     78.3900
    203      9.9630     12.2570      2.2330      0.0100     78.3900
    204      9.0890     10.3150      2.2810      1.6800     78.3900
    205      9.2120      9.1660      3.0260      1.7700     78.3900
    206      9.5020      9.3050      4.0670      0.0100     78.3900
    207      9.0160      7.9560      2.4900      1.7700     78.3900
    208      9.1430      7.0400      3.0630      0.0100     78.3900
    209      8.7010     10.2240      0.9440      1.7700     78.3900
    210      8.5550     11.2640      0.2820      1.5900     78.3900
    211      8.4990      9.0080      0.3820      1.6800     78.3900
    212      8.6540      7.8910      1.1140      1.7700     78.3900
    213      8.4740      6.7070      0.5300      1.6800     78.3900
    214      8.3250      6.6700     -0.4600      0.0100     78.3900
    215      8.5390      5.8410      1.0350      0.0100     78.3900
    216      8.0440     12.4020      3.2010      1.7700     78.3900
    217      7.2010     12.0510      2.5700      0.0100     78.3900
    218      8.2230     13.7980      3.0240      1.5900     78.3900
    219      7.4350     14.2220      3.3910      0.0100     78.3900
    220      7.8050     12.0480      4.6590      1.7700     78.3900
    221      7.4850     10.9880      4.7320      0.0100     78.3900
    222      6.9490     12.9730      5.3710      1.5900     78.3900
    223      5.4960     12.5190      5.7970      2.1000     78.3900
    224      5.3910     11.0440      5.8130      1.5900     78.3900
    225      5.1190     13.2240      7.0420      1.5900     78.3900
    226      4.5910     13.0450      4.6220      1.5900     78.3900
    227      4.4120     14.4620      4.4030      1.7700     78.3900
    228      5.3800     15.0120      4.4560      0.0100     78.3900
    229      3.7370     14.8860      5.1810      0.0100     78.3900
    230      3.7990     14.7320      3.0220      1.7700     78.3900
    231      3.6400     15.8230      2.8670      0.0100     78.3900
    232      4.7250     14.2870      1.9910      1.5900     78.3900
    233      3.9920     13.7070      0.9240      1.7700     78.3900
    234      4.2900     14.2620      0.0040      0.0100     78.3900
    235      4.3330     12.2900      0.7700      1.6800     78.3900
    236      4.7410     10.3110     -0.0930      1.7700     78.3900
    237      5.0450     10.2140      1.2580      1.6800     78.3900
    238      4.7860     11.4110      1.7250      1.7700     78.3900
    239      4.9310     11.7210      2.7600      0.0100     78.3900
    240      4.4310      9.8160     -2.3880      1.6800     78.3900
    241      3.9660     11.0640     -2.5100      1.7700     78.3900
    242      3.6300     11.3560     -3.5110      0.0100     78.3900
    243      3.8650     12.0250     -1.5900      1.6800     78.3900
    244      4.2850     11.5820     -0.3980      1.7700     78.3900
    245      4.8310      9.3890     -1.1580      1.7700     78.3900
    246      5.2720      8.1240     -0.9930      1.6800     78.3900
    247      5.4780      7.7680     -0.0780      0.0100     78.3900
    248      5.1210      7.4450     -1.7150      0.0100     78.3900
    249      2.5140     13.9230      1.1920      1.7700     78.3900
    250      1.8780     13.0940      0.8120      0.0100     78.3900
    251      2.0920     15.1460      0.6200      1.5900     78.3900
    252      1.1770     15.3010      0.9010      0.0100     78.3900
    253      2.4910     13.9830      2.7170      1.7700     78.3900
    254      2.6160     12.9600      3.1380      0.0100     78.3900
    255      1.3650     14.6850      3.2960      1.5900     78.3900
    256      0.0000     13.8900      3.4320      2.1000     78.3900
    257      0.2580     12.4370      3.5050      1.5900     78.3900
    258     -0.7280     14.4980      4.5700      1.5900     78.3900
    259     -0.7890     14.2550      2.1090      1.5900     78.3900
    260     -1.8800     13.4000      1.6670      1.7700     78.3900
    261     -2.8520     13.8020      2.0320      0.0100     78.3900
    262     -1.7930     12.3580      2.0650      0.0100     78.3900
    263     -1.9390     13.2880      0.1350      1.7700     78.3900
    264     -2.2390     14.2560     -0.3210      0.0100     78.3900
    265     -0.6140     12.9610     -0.3700      1.5900     78.3900
    266     -0.7260     12.0660     -1.4520      1.7700     78.3900
    267     -0.2050     12.5440     -2.3120      0.0100     78.3900
    268     -0.0800     10.7960     -1.1330      1.6800     78.3900
    269      1.0220      8.9080     -1.3000      1.7700     78.3900
    270      0.7100      9.0480      0.0460      1.6800     78.3900
    271      0.0560     10.1860      0.0910      1.7700     78.3900
    272     -0.3570     10.6380      0.9960      0.0100     78.3900
    273      1.7700      8.0480     -3.3680      1.6800     78.3900
    274      1.2460      9.1340     -3.9330      1.7700     78.3900
    275      1.3730      9.2050     -5.0180      0.0100     78.3900
    276      0.6350     10.1700     -3.3540      1.6800     78.3900
    277      0.5340      9.9770     -2.0310      1.7700     78.3900
    278      1.7020      7.9090     -2.0210      1.7700     78.3900
    279      2.3130      6.8620     -1.4360      1.6800     78.3900
    280      2.2820      6.7130     -0.4480      0.0100     78.3900
    281      2.8960      6.2740     -1.9960      0.0100     78.3900
    282     -2.1960     11.9050     -1.7770      1.7700     78.3900
    283     -2.4420     10.8910     -2.1540      0.0100     78.3900
    284     -2.5930     12.8670     -2.7350      1.5900     78.3900
    285     -3.5500     12.7810     -2.8330      0.0100     78.3900
    286     -2.8410     12.1640     -0.4210      1.7700     78.3900
    287     -2.6830     11.2830      0.2460      0.0100     78.3900
    288     -4.2270     12.5940     -0.4820      1.5900     78.3900
    289     -5.3510     11.4890     -0.3710      2.1000     78.3900
    290     -4.9770     10.5680      0.7240      1.5900     78.3900
    291     -6.6730     12.1390     -0.2420      1.5900     78.3900
    292     -5.2770     10.7280     -1.7450      1.5900     78.3900
    293     -5.7420     11.3490     -2.9660      1.7700     78.3900
    294     -5.2850     12.3560     -3.1110      0.0100     78.3900
    295     -6.8480     11.4860     -2.9390      0.0100     78.3900
    296     -5.4020     10.4920     -4.1960      1.7700     78.3900
    297     -5.7310     11.0020     -5.1270      0.0100     78.3900
    298     -3.9590     10.3150     -4.2900      1.5900     78.3900
    299     -3.6750      9.0030     -4.7470      1.7700     78.3900
    300     -3.0190      9.1020     -5.6420      0.0100     78.3900
    301     -2.9820      8.2280     -3.7090      1.6800     78.3900
    302     -1.6930      6.7880     -2.6600      1.7700     78.3900
    303     -2.3180      7.5360     -1.6750      1.6800     78.3900
    304     -3.0760      8.3640     -2.3440      1.7700     78.3900
    305     -3.7230      9.1090     -1.8870      0.0100     78.3900
    306     -0.4030      5.1630     -3.7810      1.6800     78.3900
    307     -0.8710      5.6800     -4.9190      1.7700     78.3900
    308     -0.5050      5.1980     -5.8310      0.0100     78.3900
    309     -1.7110      6.7040     -5.1010      1.6800     78.3900
    310     -2.0940      7.2070     -3.9190      1.7700     78.3900
    311     -0.7950      5.7020     -2.6010      1.7700     78.3900
    312     -0.3280      5.1720     -1.4540      1.6800     78.3900
    313     -0.5500      5.5600     -0.5530      0.0100     78.3900
    314      0.3900      4.4730     -1.5040      0.0100     78.3900
    315     -4.9890      8.3690     -5.1580      1.7700     78.3900
    316     -4.9950      7.2700     -5.0160      0.0100     78.3900
    317     -5.2730      8.6660     -6.5130      1.5900     78.3900
    318     -6.1590      8.3290     -6.7030      0.0100     78.3900
    319     -5.9620      9.0610     -4.2120      1.7700     78.3900
    320     -5.8450      8.6690     -3.1740      0.0100     78.3900
    321     -7.3300      9.0710     -4.6700      1.5900     78.3900
    322     -8.3720      8.0630     -4.0710      2.1000     78.3900
    323     -8.1260      7.9070     -2.6250      1.5900     78.3900
    324     -9.7250      8.5020     -4.4770      1.5900     78.3900
[...]
   8  7  0     -901.4394748494     0.0000000446   0.000000747   0.000000250      273693008   13772200
   9  8  0     -901.4394748534    -0.0000000040   0.000000299   0.000000091      254092578   13973048
  10  9  0     -901.4394748559    -0.0000000025   0.000000117   0.000000053      237559300   14143841

          -----------------
          DENSITY CONVERGED
          -----------------
     TIME TO FORM FOCK OPERATORS=      11.4 SECONDS (       1.1 SEC/ITER)
     FOCK TIME ON FIRST ITERATION=       1.6, LAST ITERATION=       0.7
     TIME TO SOLVE SCF EQUATIONS=       0.2 SECONDS (       0.0 SEC/ITER)

 FINAL RHF ENERGY IS     -901.4394748559 AFTER  10 ITERATIONS
 ...... END OF RHF CALCULATION ......
 CPU     0: STEP CPU TIME=    22.30 TOTAL CPU TIME=       2218.6 (     37.0 MIN)
 TOTAL WALL CLOCK TIME=       4956.0 SECONDS, CPU UTILIZATION IS    44.77%
 DONE PCM POT.
 CPU     0: STEP CPU TIME=     0.31 TOTAL CPU TIME=       2218.9 (     37.0 MIN)
 TOTAL WALL CLOCK TIME=       4956.9 SECONDS, CPU UTILIZATION IS    44.76%

 Iter=  5 iFrag=      5 EFMO=  -942.879386989, DD= 0.004412352, DE= 0.003172267


 RHF      monomer     11 corr= NONE       , L1=   262, L0=   246 ID=     11


 AO spaces for    11     0     0 n-mer: L1=   262, L0=   246

 DIRECT SCF CALCULATION, SCHWRZ=T   FDIFF=T,  DIRTHR=  0.00E+00 NITDIR=10

                                                                                   NONZERO     BLOCKS
 ITER EX DEM     TOTAL ENERGY        E CHANGE  DENSITY CHANGE     ORB. GRAD      INTEGRALS    SKIPPED
   1  0  0     -781.4769581496  -781.4769581496   0.005293818   0.000000000      323910037    3475386
          ---------------START SECOND ORDER SCF---------------
   2  1  0     -781.4768465055     0.0001116441   0.001249987   0.000280840      274984684    4290339
   3  2  0     -781.4768762663    -0.0000297609   0.000271340   0.000052207      266471609    4403585
   4  3  0     -781.4768686702     0.0000075962   0.000053018   0.000007775      250560469    4592611
   5  4  0     -781.4768665134     0.0000021568   0.000024243   0.000003264      231683625    4795113
   6  5  0     -781.4768666588    -0.0000001454   0.000004409   0.000001169      221044796    4919868
   7  6  0     -781.4768666586     0.0000000002   0.000001769   0.000000624      201057183    5157107
   8  7  0     -781.4768667034    -0.0000000448   0.000000583   0.000000115      187301355    5301704
   9  8  0     -781.4768667148    -0.0000000113   0.000000243   0.000000066      169294604    5488794
  10  9  0     -781.4768667156    -0.0000000008   0.000000073   0.000000017      154988107    5644018
  11 10  0     -781.4768667146     0.0000000010   0.000000000   0.000000007      138331087    5803122

          -----------------
          DENSITY CONVERGED
          -----------------
     TIME TO FORM FOCK OPERATORS=       7.5 SECONDS (       0.7 SEC/ITER)
     FOCK TIME ON FIRST ITERATION=       0.9, LAST ITERATION=       0.6
     TIME TO SOLVE SCF EQUATIONS=       0.2 SECONDS (       0.0 SEC/ITER)

 FINAL RHF ENERGY IS     -781.4768667146 AFTER  11 ITERATIONS
 ...... END OF RHF CALCULATION ......
 CPU     0: STEP CPU TIME=    20.95 TOTAL CPU TIME=       2239.8 (     37.3 MIN)
 TOTAL WALL CLOCK TIME=       5001.7 SECONDS, CPU UTILIZATION IS    44.78%
 DONE PCM POT.
 CPU     0: STEP CPU TIME=     0.25 TOTAL CPU TIME=       2240.1 (     37.3 MIN)
 TOTAL WALL CLOCK TIME=       5002.4 SECONDS, CPU UTILIZATION IS    44.78%

 Iter=  5 iFrag=     11 EFMO=  -815.657216460, DD= 0.004335425, DE= 0.005608874

 CPU     0: STEP CPU TIME=     0.00 TOTAL CPU TIME=       2240.1 (     37.3 MIN)
 TOTAL WALL CLOCK TIME=       5002.4 SECONDS, CPU UTILIZATION IS    44.78%

  Monomer SCF synchronisation on iteration   5.1 took     0.0 s.
 CPU     0: STEP CPU TIME=     0.00 TOTAL CPU TIME=       2240.1 (     37.3 MIN)
 TOTAL WALL CLOCK TIME=       5002.4 SECONDS, CPU UTILIZATION IS    44.78%
 dmexch needs              4174666  words of memory.
 CPU     0: STEP CPU TIME=     0.02 TOTAL CPU TIME=       2240.1 (     37.3 MIN)
 TOTAL WALL CLOCK TIME=       5002.4 SECONDS, CPU UTILIZATION IS    44.78%

 Data exchange of   1382864 words took     0.0 s.

 Calculating apparent surface charges...
     Using       55972 words of memory.
 ASC ITERATION=   1 CONVERGED TO  0.149473E-03
 ASC ITERATION=   2 CONVERGED TO  0.129354E-02
 ASC ITERATION=   3 CONVERGED TO  0.223685E-02
 ASC ITERATION=   4 CONVERGED TO  0.353370E-03
 ASC ITERATION=   5 CONVERGED TO  0.120834E-03
 ASC ITERATION=   6 CONVERGED TO  0.108991E-03
 ASC ITERATION=   7 CONVERGED TO  0.462136E-04
 ASC ITERATION=   8 CONVERGED TO  0.308234E-04
 ASC ITERATION=   9 CONVERGED TO  0.200291E-04
 ASC ITERATION=  10 CONVERGED TO  0.149006E-04
 ASC ITERATION=  11 CONVERGED TO  0.559798E-05
 ASC ITERATION=  12 CONVERGED TO  0.277365E-05
 ASC ITERATION=  13 CONVERGED TO  0.115029E-05
 ASC ITERATION=  14 CONVERGED TO  0.789003E-06
 ASC ITERATION=  15 CONVERGED TO  0.438470E-06
 ASC ITERATION=  16 CONVERGED TO  0.269002E-06
 ASC ITERATION=  17 CONVERGED TO  0.148484E-06
 ASC ITERATION=  18 CONVERGED TO  0.103623E-06
 ASC ITERATION=  19 CONVERGED TO  0.594972E-07
 ASC ITERATION=  20 CONVERGED TO  0.335706E-07
 ASC ITERATION=  21 CONVERGED TO  0.177457E-07
 ASC ITERATION=  22 CONVERGED TO  0.101771E-07
 ASC ITERATION=  23 CONVERGED TO  0.582371E-08
 ASC ITERATION=  24 CONVERGED TO  0.325206E-08
 ASC ITERATION=  25 CONVERGED TO  0.177684E-08
 ASC ITERATION=  26 CONVERGED TO  0.945210E-09
 ASC ITERATION=  27 CONVERGED TO  0.615352E-09
 ASC ITERATION=  28 CONVERGED TO  0.306951E-09
 ASC ITERATION=  29 CONVERGED TO  0.177914E-09
 ASC ITERATION=  30 CONVERGED TO  0.111543E-09
 ASC ITERATION=  31 CONVERGED TO  0.565598E-10

 THE ASC EQUATIONS FOR PHASE=1 CONVERGED IN  31 ITERATIONS.

 PCM ASC=      8.8261803427 normalised to=      8.8851894374
 Nuclear factor=   1.0026749094, electronic factor=   1.0026951310

 CPU     0: STEP CPU TIME=     0.21 TOTAL CPU TIME=       2240.3 (     37.3 MIN)
 TOTAL WALL CLOCK TIME=       5002.9 SECONDS, CPU UTILIZATION IS    44.78%


 ------------------------------------------------------------------------------
 FMO iter  5.1,      0 fragment(s) converged, maxD 0.004412352 maxE 0.005608874
 ------------------------------------------------------------------------------

 RHF      monomer      1 corr= NONE       , L1=   388, L0=   364 ID=      1


 AO spaces for     1     0     0 n-mer: L1=   388, L0=   364

 DIRECT SCF CALCULATION, SCHWRZ=T   FDIFF=T,  DIRTHR=  0.00E+00 NITDIR=10

                                                                                   NONZERO     BLOCKS
 ITER EX DEM     TOTAL ENERGY        E CHANGE  DENSITY CHANGE     ORB. GRAD      INTEGRALS    SKIPPED
   1  0  0    -1468.8733343293 -1468.8733343293   0.000983179   0.000000000      960714136   18735927
          ---------------START SECOND ORDER SCF---------------
   2  1  0    -1468.8732903221     0.0000440072   0.000154059   0.000048262      717246229   21707266
   3  2  0    -1468.8732969975    -0.0000066755   0.000097529   0.000014064      681800045   22000651
   4  3  0    -1468.8732922912     0.0000047063   0.000021781   0.000007560      639401356   22381269
   5  4  0    -1468.8732931125    -0.0000008213   0.000006706   0.000002738      590202716   22807914
   6  5  0    -1468.8732934942    -0.0000003816   0.000002915   0.000000726      544168261   23190468
   7  6  0    -1468.8732934790     0.0000000151   0.000000952   0.000000274      494134459   23587570
   8  7  0    -1468.8732934670     0.0000000120   0.000000199   0.000000065      441196435   24034773
   9  8  0    -1468.8732934885    -0.0000000215   0.000000096   0.000000029      399007664   24388785

          -----------------
          DENSITY CONVERGED
          -----------------
     TIME TO FORM FOCK OPERATORS=      17.4 SECONDS (       1.9 SEC/ITER)
     FOCK TIME ON FIRST ITERATION=       2.8, LAST ITERATION=       1.2
     TIME TO SOLVE SCF EQUATIONS=       0.4 SECONDS (       0.0 SEC/ITER)

 FINAL RHF ENERGY IS    -1468.8732934885 AFTER   9 ITERATIONS
 ...... END OF RHF CALCULATION ......
 CPU     0: STEP CPU TIME=    32.44 TOTAL CPU TIME=       2272.8 (     37.9 MIN)
 TOTAL WALL CLOCK TIME=       5070.1 SECONDS, CPU UTILIZATION IS    44.83%
 DONE PCM POT.
 CPU     0: STEP CPU TIME=     0.46 TOTAL CPU TIME=       2273.2 (     37.9 MIN)
 TOTAL WALL CLOCK TIME=       5071.3 SECONDS, CPU UTILIZATION IS    44.83%

 Iter=  6 iFrag=      1 EFMO= -1522.830607670, DD= 0.001203542, DE=-0.003330691


 RHF      monomer      4 corr= NONE       , L1=   386, L0=   362 ID=      2


 AO spaces for     4     0     0 n-mer: L1=   386, L0=   362

 DIRECT SCF CALCULATION, SCHWRZ=T   FDIFF=T,  DIRTHR=  0.00E+00 NITDIR=10

                                                                                   NONZERO     BLOCKS
 ITER EX DEM     TOTAL ENERGY        E CHANGE  DENSITY CHANGE     ORB. GRAD      INTEGRALS    SKIPPED
   1  0  0    -1456.0411195480 -1456.0411195480   0.001398396   0.000000000      883005632   17652926
          ---------------START SECOND ORDER SCF---------------
   2  1  0    -1456.0409886557     0.0001308922   0.000253159   0.000046208      709051178   20172454
   3  2  0    -1456.0410014530    -0.0000127972   0.000150894   0.000014668      674967323   20475861
   4  3  0    -1456.0409894086     0.0000120443   0.000030830   0.000005432      628259573   20875013
   5  4  0    -1456.0409891431     0.0000002655   0.000007856   0.000001914      579227129   21292396
   6  5  0    -1456.0409895511    -0.0000004080   0.000002067   0.000000479      529176654   21688543
   7  6  0    -1456.0409896429    -0.0000000918   0.000000782   0.000000195      481752291   22072330
   8  7  0    -1456.0409896200     0.0000000229   0.000000237   0.000000061      436071971   22453039
   9  8  0    -1456.0409896177     0.0000000023   0.000000107   0.000000046      393673051   22790525
  10  9  0    -1456.0409896149     0.0000000028   0.000000028   0.000000013      357711294   23069883

          -----------------
          DENSITY CONVERGED
          -----------------
     TIME TO FORM FOCK OPERATORS=      18.4 SECONDS (       1.8 SEC/ITER)
     FOCK TIME ON FIRST ITERATION=       3.3, LAST ITERATION=       1.0
     TIME TO SOLVE SCF EQUATIONS=       0.4 SECONDS (       0.0 SEC/ITER)

 FINAL RHF ENERGY IS    -1456.0409896149 AFTER  10 ITERATIONS
 ...... END OF RHF CALCULATION ......
 CPU     0: STEP CPU TIME=    42.33 TOTAL CPU TIME=       2315.6 (     38.6 MIN)
 TOTAL WALL CLOCK TIME=       5160.9 SECONDS, CPU UTILIZATION IS    44.87%
 DONE PCM POT.
 CPU     0: STEP CPU TIME=     0.44 TOTAL CPU TIME=       2316.0 (     38.6 MIN)
 TOTAL WALL CLOCK TIME=       5162.0 SECONDS, CPU UTILIZATION IS    44.87%

 Iter=  6 iFrag=      4 EFMO= -1507.471389609, DD= 0.001713390, DE=-0.002990987


 RHF      monomer      3 corr= NONE       , L1=   386, L0=   362 ID=      3


 AO spaces for     3     0     0 n-mer: L1=   386, L0=   362

 DIRECT SCF CALCULATION, SCHWRZ=T   FDIFF=T,  DIRTHR=  0.00E+00 NITDIR=10

                                                                                   NONZERO     BLOCKS
 ITER EX DEM     TOTAL ENERGY        E CHANGE  DENSITY CHANGE     ORB. GRAD      INTEGRALS    SKIPPED
   1  0  0    -1450.2868170639 -1450.2868170639   0.000870771   0.000000000      914832486   17470541
          ---------------START SECOND ORDER SCF---------------
   2  1  0    -1450.2867103202     0.0001067437   0.000173986   0.000055877      728781621   20068229
   3  2  0    -1450.2867229865    -0.0000126663   0.000117502   0.000019513      691808707   20382694
   4  3  0    -1450.2867136722     0.0000093143   0.000022974   0.000007680      645110551   20777337
   5  4  0    -1450.2867135576     0.0000001146   0.000006053   0.000002712      596416535   21185569
   6  5  0    -1450.2867140530    -0.0000004955   0.000003030   0.000000494      546054789   21586455
   7  6  0    -1450.2867141611    -0.0000001081   0.000000828   0.000000392      496492248   21975191
   8  7  0    -1450.2867141355     0.0000000256   0.000000204   0.000000076      452810831   22343424
   9  8  0    -1450.2867141408    -0.0000000053   0.000000092   0.000000062      411304760   22659615
  10  9  0    -1450.2867141406     0.0000000002   0.000000069   0.000000023      370316019   22968997

          -----------------
          DENSITY CONVERGED
          -----------------
     TIME TO FORM FOCK OPERATORS=      19.1 SECONDS (       1.9 SEC/ITER)
     FOCK TIME ON FIRST ITERATION=       3.3, LAST ITERATION=       1.2
     TIME TO SOLVE SCF EQUATIONS=       0.4 SECONDS (       0.0 SEC/ITER)

 FINAL RHF ENERGY IS    -1450.2867141406 AFTER  10 ITERATIONS
 ...... END OF RHF CALCULATION ......
 CPU     0: STEP CPU TIME=    52.15 TOTAL CPU TIME=       2368.1 (     39.5 MIN)
 TOTAL WALL CLOCK TIME=       5265.7 SECONDS, CPU UTILIZATION IS    44.97%
 DONE PCM POT.
 CPU     0: STEP CPU TIME=     0.45 TOTAL CPU TIME=       2368.6 (     39.5 MIN)
 TOTAL WALL CLOCK TIME=       5266.9 SECONDS, CPU UTILIZATION IS    44.97%

 Iter=  6 iFrag=      3 EFMO= -1507.507621380, DD= 0.001065256, DE=-0.003105077


 RHF      monomer     10 corr= NONE       , L1=   371, L0=   348 ID=      4


 AO spaces for    10     0     0 n-mer: L1=   371, L0=   348

 DIRECT SCF CALCULATION, SCHWRZ=T   FDIFF=T,  DIRTHR=  0.00E+00 NITDIR=10

                                                                                   NONZERO     BLOCKS
 ITER EX DEM     TOTAL ENERGY        E CHANGE  DENSITY CHANGE     ORB. GRAD      INTEGRALS    SKIPPED
   1  0  0    -1389.8965767307 -1389.8965767307   0.001312137   0.000000000      815406267   15093820
          ---------------START SECOND ORDER SCF---------------
   2  1  0    -1389.8964854518     0.0000912789   0.000238145   0.000051904      632403622   17420963
   3  2  0    -1389.8964896195    -0.0000041677   0.000145518   0.000014605      603837748   17674328
   4  3  0    -1389.8964811219     0.0000084976   0.000026212   0.000006367      563292054   18024230
   5  4  0    -1389.8964810585     0.0000000634   0.000007989   0.000002446      521065656   18390335
   6  5  0    -1389.8964813636    -0.0000003051   0.000002054   0.000000579      479293816   18730266
   7  6  0    -1389.8964814398    -0.0000000762   0.000000922   0.000000406      436566563   19079332
   8  7  0    -1389.8964814115     0.0000000283   0.000000203   0.000000071      395152532   19432251
   9  8  0    -1389.8964814082     0.0000000033   0.000000106   0.000000038      357470106   19738377
  10  9  0    -1389.8964814095    -0.0000000013   0.000000030   0.000000015      316820558   20035212

          -----------------
          DENSITY CONVERGED
          -----------------
     TIME TO FORM FOCK OPERATORS=      17.0 SECONDS (       1.7 SEC/ITER)
     FOCK TIME ON FIRST ITERATION=       2.4, LAST ITERATION=       1.1
     TIME TO SOLVE SCF EQUATIONS=       0.3 SECONDS (       0.0 SEC/ITER)

 FINAL RHF ENERGY IS    -1389.8964814095 AFTER  10 ITERATIONS
 ...... END OF RHF CALCULATION ......
 CPU     0: STEP CPU TIME=    41.04 TOTAL CPU TIME=       2409.6 (     40.2 MIN)
 TOTAL WALL CLOCK TIME=       5350.7 SECONDS, CPU UTILIZATION IS    45.03%
 DONE PCM POT.
 CPU     0: STEP CPU TIME=     0.42 TOTAL CPU TIME=       2410.0 (     40.2 MIN)
 TOTAL WALL CLOCK TIME=       5351.8 SECONDS, CPU UTILIZATION IS    45.03%

 Iter=  6 iFrag=     10 EFMO= -1432.575424825, DD= 0.001609049, DE=-0.002805388


 RHF      monomer      9 corr= NONE       , L1=   371, L0=   348 ID=      5


 AO spaces for     9     0     0 n-mer: L1=   371, L0=   348

 DIRECT SCF CALCULATION, SCHWRZ=T   FDIFF=T,  DIRTHR=  0.00E+00 NITDIR=10

                                                                                   NONZERO     BLOCKS
 ITER EX DEM     TOTAL ENERGY        E CHANGE  DENSITY CHANGE     ORB. GRAD      INTEGRALS    SKIPPED
   1  0  0    -1384.6928764304 -1384.6928764304   0.000933771   0.000000000      824714553   14978265
          ---------------START SECOND ORDER SCF---------------
   2  1  0    -1384.6928064723     0.0000699582   0.000148706   0.000054008      647446561   17256389
   3  2  0    -1384.6928107866    -0.0000043144   0.000099243   0.000015890      612865288   17566417
   4  3  0    -1384.6928039720     0.0000068146   0.000024627   0.000006274      571669063   17930107
   5  4  0    -1384.6928042949    -0.0000003229   0.000007425   0.000001742      525945724   18321936
   6  5  0    -1384.6928044798    -0.0000001849   0.000002656   0.000000639      478455126   18699768
   7  6  0    -1384.6928045539    -0.0000000740   0.000000692   0.000000422      442428814   19005223
   8  7  0    -1384.6928045462     0.0000000076   0.000000170   0.000000088      401997262   19355116
   9  8  0    -1384.6928045476    -0.0000000014   0.000000066   0.000000044      361682502   19682965

          -----------------
          DENSITY CONVERGED
          -----------------
     TIME TO FORM FOCK OPERATORS=      15.7 SECONDS (       1.7 SEC/ITER)
     FOCK TIME ON FIRST ITERATION=       2.6, LAST ITERATION=       1.2
     TIME TO SOLVE SCF EQUATIONS=       0.3 SECONDS (       0.0 SEC/ITER)

 FINAL RHF ENERGY IS    -1384.6928045476 AFTER   9 ITERATIONS
 ...... END OF RHF CALCULATION ......
 CPU     0: STEP CPU TIME=    38.69 TOTAL CPU TIME=       2448.7 (     40.8 MIN)
 TOTAL WALL CLOCK TIME=       5432.9 SECONDS, CPU UTILIZATION IS    45.07%
 DONE PCM POT.
 CPU     0: STEP CPU TIME=     0.44 TOTAL CPU TIME=       2449.2 (     40.8 MIN)
 TOTAL WALL CLOCK TIME=       5434.0 SECONDS, CPU UTILIZATION IS    45.07%

 Iter=  6 iFrag=      9 EFMO= -1432.605443722, DD= 0.001143049, DE=-0.002807123


 RHF      monomer      8 corr= NONE       , L1=   371, L0=   348 ID=      6


 AO spaces for     8     0     0 n-mer: L1=   371, L0=   348

 DIRECT SCF CALCULATION, SCHWRZ=T   FDIFF=T,  DIRTHR=  0.00E+00 NITDIR=10

                                                                                   NONZERO     BLOCKS
 ITER EX DEM     TOTAL ENERGY        E CHANGE  DENSITY CHANGE     ORB. GRAD      INTEGRALS    SKIPPED
   1  0  0    -1383.2608615920 -1383.2608615920   0.000548888   0.000000000      802993605   15136841
          ---------------START SECOND ORDER SCF---------------
   2  1  0    -1383.2608227960     0.0000387961   0.000143620   0.000043329      622993557   17502731
   3  2  0    -1383.2608269691    -0.0000041731   0.000075443   0.000011110      591507306   17785547
   4  3  0    -1383.2608231782     0.0000037909   0.000014678   0.000003671      550698596   18139585
   5  4  0    -1383.2608233500    -0.0000001717   0.000004520   0.000001723      509820656   18499893
   6  5  0    -1383.2608234421    -0.0000000922   0.000001115   0.000000546      463961261   18864739
   7  6  0    -1383.2608234646    -0.0000000224   0.000000519   0.000000408      425224674   19180629
   8  7  0    -1383.2608234698    -0.0000000052   0.000000137   0.000000088      385333561   19530042
   9  8  0    -1383.2608234733    -0.0000000035   0.000000079   0.000000033      350563302   19808881

          -----------------
          DENSITY CONVERGED
          -----------------
     TIME TO FORM FOCK OPERATORS=      15.8 SECONDS (       1.8 SEC/ITER)
     FOCK TIME ON FIRST ITERATION=       3.3, LAST ITERATION=       1.1
     TIME TO SOLVE SCF EQUATIONS=       0.3 SECONDS (       0.0 SEC/ITER)

 FINAL RHF ENERGY IS    -1383.2608234733 AFTER   9 ITERATIONS
 ...... END OF RHF CALCULATION ......
 CPU     0: STEP CPU TIME=    35.76 TOTAL CPU TIME=       2484.9 (     41.4 MIN)
 TOTAL WALL CLOCK TIME=       5508.4 SECONDS, CPU UTILIZATION IS    45.11%
 DONE PCM POT.
 CPU     0: STEP CPU TIME=     0.40 TOTAL CPU TIME=       2485.3 (     41.4 MIN)
 TOTAL WALL CLOCK TIME=       5509.5 SECONDS, CPU UTILIZATION IS    45.11%

 Iter=  6 iFrag=      8 EFMO= -1432.620244645, DD= 0.000666375, DE=-0.001772331


 RHF      monomer      7 corr= NONE       , L1=   341, L0=   320 ID=      7

