‘2LHP_4_fmo_input.inp’ -> ‘/scratch/hazwong/820701/./2LHP_4_fmo_input.inp’
‘rungms’ -> ‘/scratch/hazwong/820701/./rungms’
‘gms-files.csh’ -> ‘/scratch/hazwong/820701/./gms-files.csh’
----- GAMESS execution script 'rungms' -----
This job is running on host gollum082.lsa.umich.edu
under operating system Linux at Thu Dec 5 23:24:41 EST 2019
Available scratch disk space (Kbyte units) at beginning of the job is
Filesystem     1K-blocks  Used Available Use% Mounted on
/dev/sda4      426933580 33264 426900316   1% /scratch
GAMESS temporary binary files will be written to /scratch/hazwong/820701/2LHP_4/usrc
GAMESS supplementary output files will be written to /scratch/hazwong/820701/2LHP_4/src
Copying input file 2LHP_4_fmo_input.inp to your run's scratch directory...
cp 2LHP_4_fmo_input.inp /scratch/hazwong/820701/2LHP_4/usrc/2LHP_4_fmo_input.F05
unset echo
This is a GDDI run, keeping various output files on local disks
setenv OUTPUT /scratch/hazwong/820701/2LHP_4/usrc/2LHP_4_fmo_input.F06
setenv PUNCH /scratch/hazwong/820701/2LHP_4/usrc/2LHP_4_fmo_input.F07
unset echo
 
Assuming a single but multicore node.
 
/export/apps/CentOS7/gamess/src/build//ddikick.x /export/apps/CentOS7/gamess/src/build//gamess.R3.x 2LHP_4_fmo_input -ddi 1 16 gollum082.lsa.umich.edu:cpus=16 -scr /scratch/hazwong/820701/2LHP_4/usrc

 Distributed Data Interface kickoff program.
 Initiating 16 compute processes on 1 nodes to run the following command:
 /export/apps/CentOS7/gamess/src/build//gamess.R3.x 2LHP_4_fmo_input 

          ******************************************************
          *         GAMESS VERSION = 30 SEP 2018 (R3)         *
          *             FROM IOWA STATE UNIVERSITY             *
          * M.W.SCHMIDT, K.K.BALDRIDGE, J.A.BOATZ, S.T.ELBERT, *
          *   M.S.GORDON, J.H.JENSEN, S.KOSEKI, N.MATSUNAGA,   *
          *          K.A.NGUYEN, S.J.SU, T.L.WINDUS,           *
          *       TOGETHER WITH M.DUPUIS, J.A.MONTGOMERY       *
          *         J.COMPUT.CHEM.  14, 1347-1363(1993)        *
          **************** 64 BIT LINUX VERSION ****************

  SINCE 1993, STUDENTS AND POSTDOCS WORKING AT IOWA STATE UNIVERSITY
  AND ALSO IN THEIR VARIOUS JOBS AFTER LEAVING ISU HAVE MADE IMPORTANT
  CONTRIBUTIONS TO THE CODE:
     IVANA ADAMOVIC, CHRISTINE AIKENS, YURI ALEXEEV, POOJA ARORA,
     ANDREY ASADCHEV, ROB BELL, PRADIPTA BANDYOPADHYAY, JONATHAN BENTZ,
     BRETT BODE, KURT BRORSEN, CALEB CARLIN, GALINA CHABAN, WEI CHEN,
     CHEOL HO CHOI, PAUL DAY, ALBERT DEFUSCO, NUWAN DESILVA, TIM DUDLEY,
     DMITRI FEDOROV, ALEX FINDLATER, GRAHAM FLETCHER, MARK FREITAG,
     KURT GLAESEMANN, ANASTASIA GUNINA,
     DAN KEMP, GRANT MERRILL, NORIYUKI MINEZAWA, JONATHAN MULLIN,
     TAKESHI NAGATA, SEAN NEDD, HEATHER NETZLOFF, BOSILJKA NJEGIC, RYAN OLSON,
     MIKE PAK, BUU PHAM,
     SPENCER PRUITT, LUKE ROSKOP, JIM SHOEMAKER, LYUDMILA SLIPCHENKO,
     TONY SMITH, SAROM SOK LEANG, JIE SONG, TETSUYA TAKETSUGU, SIMON WEBB,
     PENG XU, SOOHAENG YOO, FEDERICO ZAHARIEV

  ADDITIONAL CODE HAS BEEN PROVIDED BY COLLABORATORS IN OTHER GROUPS:
     IOWA STATE UNIVERSITY:
          JOE IVANIC, AARON WEST, LAIMUTIS BYTAUTAS, KLAUS RUEDENBERG
     UNIVERSITY OF TOKYO: KIMIHIKO HIRAO, TAKAHITO NAKAJIMA,
          TAKAO TSUNEDA, MUNEAKI KAMIYA, SUSUMU YANAGISAWA,
          KIYOSHI YAGI, MAHITO CHIBA, SEIKEN TOKURA, NAOAKI KAWAKAMI
     UNIVERSITY OF AARHUS: FRANK JENSEN
     UNIVERSITY OF IOWA: VISVALDAS KAIRYS, HUI LI
     NATIONAL INST. OF STANDARDS AND TECHNOLOGY: WALT STEVENS, DAVID GARMER
     UNIVERSITY OF PISA: BENEDETTA MENNUCCI, JACOPO TOMASI
     UNIVERSITY OF MEMPHIS: HENRY KURTZ, PRAKASHAN KORAMBATH
     UNIVERSITY OF ALBERTA: TOBY ZENG, MARIUSZ KLOBUKOWSKI
     UNIVERSITY OF NEW ENGLAND: MARK SPACKMAN
     MIE UNIVERSITY: HIROAKI UMEDA
     NAT. INST. OF ADVANCED INDUSTRIAL SCIENCE AND TECHNOLOGY: KAZUO KITAURA
     MICHIGAN STATE UNIVERSITY:
          KAROL KOWALSKI, MARTA WLOCH, JEFFREY GOUR, JESSE LUTZ,
          WEI LI, JUN SHEN, J. EMILIANO DEUSTUA, PIOTR PIECUCH
     UNIVERSITY OF MINNESOTA:
          YINAN SHU
     UNIVERSITY OF SILESIA: MONIKA MUSIAL, STANISLAW KUCHARSKI
     FACULTES UNIVERSITAIRES NOTRE-DAME DE LA PAIX:
          OLIVIER QUINET, BENOIT CHAMPAGNE
     UNIVERSITY OF CALIFORNIA - SANTA BARBARA: BERNARD KIRTMAN
     INSTITUTE FOR MOLECULAR SCIENCE:
          KAZUYA ISHIMURA, MICHIO KATOUDA, AND SHIGERU NAGASE
     UNIVERSITY OF NOTRE DAME: ANNA POMOGAEVA, DAN CHIPMAN
     KYUSHU UNIVERSITY:
          HARUYUKI NAKANO,
          FENG LONG GU, JACEK KORCHOWIEC, MARCIN MAKOWSKI, AND YURIKO AOKI,
          HIROTOSHI MORI AND EISAKU MIYOSHI
     PENNSYLVANIA STATE UNIVERSITY:
          TZVETELIN IORDANOV, CHET SWALINA, JONATHAN SKONE,
          SHARON HAMMES-SCHIFFER
     WASEDA UNIVERSITY:
          MASATO KOBAYASHI, TOMOKO AKAMA, TSUGUKI TOUMA,
          TAKESHI YOSHIKAWA, YASUHIRO IKABATA, JUNJI SEINO,
          YUYA NAKAJIMA, HIROMI NAKAI
     NANJING UNIVERSITY: SHUHUA LI
     UNIVERSITY OF NEBRASKA:
          PEIFENG SU, DEJUN SI, NANDUN THELLAMUREGE, YALI WANG, HUI LI
     UNIVERSITY OF ZURICH: ROBERTO PEVERATI, KIM BALDRIDGE
     N. COPERNICUS UNIVERSITY AND JACKSON STATE UNIVERSITY:
          MARIA BARYSZ
     UNIVERSITY OF COPENHAGEN: Jimmy Kromann, CASPER STEINMANN
     TOKYO INSTITUTE OF TECHNOLOGY: HIROYA NAKATA
     NAGOYA UNIVERSITY: YOSHIO NISHIMOTO, STEPHAN IRLE
     MOSCOW STATE UNIVERSITY: VLADIMIR MIRONOV


 PARALLEL VERSION RUNNING ON       16 PROCESSORS IN        1 NODES.

 EXECUTION OF GAMESS BEGUN Thu Dec  5 23:24:42 2019

            ECHO OF THE FIRST FEW INPUT CARDS -
 INPUT CARD>!*** FMO 5.3 (Gamess) INPUT generated by Facio 22.1.1.32 ***                    
 INPUT CARD> $CONTRL RUNTYP=ENERGY NPRINT=-5 ISPHER=1 MAXIT=200 $END                        
 INPUT CARD> $SYSTEM MWORDS=63 MEMDDI=63 $END                                               
 INPUT CARD> $GDDI NGROUP=1 $END                                                            
 INPUT CARD> $SCF DIRSCF=.TRUE. NPUNCH=0 $END                                               
 INPUT CARD>!*** NumCPU : 2  MemPerNode : 512MB                                             
 INPUT CARD> $PCM SOLVNT=WATER IEF=-10 ICOMP=2 ICAV=1 IDISP=1 IFMO=-1 $END                  
 INPUT CARD> $PCMCAV RADII=SUAHF $END                                                       
 INPUT CARD> $TESCAV NTSALL=60 $END                                                         
 INPUT CARD> $FMOPRP                                                                        
 INPUT CARD>    NAODIR=200                                                                  
 INPUT CARD>    NGRFMO(1)=1, 1, 0, 0, 0,   0, 0, 0, 0, 0                                    
 INPUT CARD>    IPIEDA=1                                                                    
 INPUT CARD>    NPRINT=9                                                                    
 INPUT CARD> $END                                                                           
 INPUT CARD> $FMO                                                                           
 INPUT CARD>      SCFTYP(1)=RHF                                                             
 INPUT CARD>      MODGRD=10                                                                 
 INPUT CARD>      MODMUL=0                                                                  
 INPUT CARD>      MAXCAO=5                                                                  
 INPUT CARD>      MAXBND=13                                                                 
 INPUT CARD>      NLAYER=1                                                                  
 INPUT CARD>      MPLEVL(1)=2                                                               
 INPUT CARD>      NFRAG=11                                                                  
 INPUT CARD>      ICHARG(1)=-1, -1, -1, -1, 0, -1, -1, -1, -1, -1, 0                        
 INPUT CARD>      FRGNAM(1)=F1, F2, F3, F4, F5, F6, F7, F8, F9, F10, F11                    
 INPUT CARD>      indat(1)=0                                                                
 INPUT CARD>               1   -35   0                                                      
 INPUT CARD>               36   -65   0                                                     
 INPUT CARD>               66   -99   0                                                     
 INPUT CARD>               100   -133   0                                                   
 INPUT CARD>               134   -165   0                                                   
 INPUT CARD>               166   -195   0                                                   
 INPUT CARD>               196   -226   0                                                   
 INPUT CARD>               227   -259   0                                                   
 INPUT CARD>               260   -292   0                                                   
 INPUT CARD>               293   -325   0                                                   
 INPUT CARD>               326   -352   0                                                   
 INPUT CARD> $END                                                                           
 INPUT CARD>                                                                                
 INPUT CARD> $FMOBND                                                                        
 INPUT CARD>   -36   35       6-31G*    MINI                                                
 INPUT CARD>   -66   65       6-31G*    MINI                                                
 INPUT CARD>   -100   99       6-31G*    MINI                                               
 INPUT CARD>   -134   133       6-31G*    MINI                                              
 INPUT CARD>   -166   165       6-31G*    MINI                                              
 INPUT CARD>   -196   195       6-31G*    MINI                                              
 INPUT CARD>   -227   226       6-31G*    MINI                                              
 INPUT CARD>   -260   259       6-31G*    MINI                                              
 INPUT CARD>   -293   292       6-31G*    MINI                                              


 -------------------------------------------------------------
 GROUP DDI, PROGRAMMED BY: RYAN M. OLSON AND DMITRI G. FEDOROV
        FEDOROV ET AL., J. COMPUT. CHEM., 25 (2004) 872.
 -------------------------------------------------------------

 -------------------------------------------------------
 GDDI: INITIALIZATION COMPLETED FOR GROUP     1 OF     1
 WITH    16 PROCESSES BALTYP=DLB   global rank=        0
 -------------------------------------------------------

   63000000 WORDS OF MEMORY AVAILABLE


     RUN TITLE
     ---------
  FMO calculation                                                                

 THE POINT GROUP OF THE MOLECULE IS C1      
 THE ORDER OF THE PRINCIPAL AXIS IS     0

 ATOM   ATOMIC CHARGE
 H.1-1       1.0
 O.1-1       8.0
 C.1-1       6.0
 N.1-1       7.0
 P.1-1      15.0

     ATOMIC BASIS SET LIBRARY
     ----------------
 THE CONTRACTED PRIMITIVE FUNCTIONS HAVE BEEN UNNORMALIZED
 THE CONTRACTED BASIS FUNCTIONS ARE NOW NORMALIZED TO UNITY

  SHELL TYPE  PRIMITIVE        EXPONENT          CONTRACTION COEFFICIENT(S)

 H.1-1     

      1   S       1            18.7311370    0.033494604338
      1   S       2             2.8253944    0.234726953484
      1   S       3             0.6401217    0.813757326146

      2   S       4             0.1612778    1.000000000000

 O.1-1     

      3   S       5          5484.6716600    0.001831074430
      3   S       6           825.2349460    0.013950172200
      3   S       7           188.0469580    0.068445078098
      3   S       8            52.9645000    0.232714335992
      3   S       9            16.8975704    0.470192897984
      3   S      10             5.7996353    0.358520852987

      4   L      11            15.5396162   -0.110777549525    0.070874268231
      4   L      12             3.5999336   -0.148026262701    0.339752839147
      4   L      13             1.0137618    1.130767015354    0.727158577316

      5   L      14             0.2700058    1.000000000000    1.000000000000

      6   D      15             0.8000000    1.000000000000

 C.1-1     

      7   S      16          3047.5248800    0.001834737132
      7   S      17           457.3695180    0.014037322813
      7   S      18           103.9486850    0.068842622264
      7   S      19            29.2101553    0.232184443216
      7   S      20             9.2866630    0.467941348435
      7   S      21             3.1639270    0.362311985337

      8   L      22             7.8682723   -0.119332419775    0.068999066591
      8   L      23             1.8812885   -0.160854151696    0.316423960957
      8   L      24             0.5442493    1.143456437840    0.744308290898

      9   L      25             0.1687145    1.000000000000    1.000000000000

     10   D      26             0.8000000    1.000000000000

 N.1-1     

     11   S      27          4173.5114600    0.001834772160
     11   S      28           627.4579110    0.013994627002
     11   S      29           142.9020930    0.068586551812
     11   S      30            40.2343293    0.232240873040
     11   S      31            12.8202129    0.469069948082
     11   S      32             4.3904370    0.360455199063

     12   L      33            11.6263619   -0.114961181702    0.067579743878
     12   L      34             2.7162798   -0.169117478561    0.323907295893
     12   L      35             0.7722184    1.145851947027    0.740895139755

     13   L      36             0.2120315    1.000000000000    1.000000000000

     14   D      37             0.8000000    1.000000000000

 P.1-1     

     15   S      38         19413.3000000    0.001851598923
     15   S      39          2909.4200000    0.014206191735
     15   S      40           661.3640000    0.069999459277
     15   S      41           185.7590000    0.240078860331
     15   S      42            59.1943000    0.484761717984
     15   S      43            20.0310000    0.335199804993

     16   L      44           339.4780000   -0.002782170105    0.004564616191
     16   L      45            81.0101000   -0.036049901354    0.033693571881
     16   L      46            25.8780000   -0.116631004382    0.139754883368
     16   L      47             9.4522100    0.096832803638    0.339361716786
     16   L      48             3.6656600    0.614418023082    0.450920623685
     16   L      49             1.4674600    0.403798015170    0.238585800889

     17   L      50             2.1562300   -0.252924113863   -0.017765312733
     17   L      51             0.7489970    0.032851844678    0.274058196433
     17   L      52             0.2831450    1.081254761783    0.785421562957

     18   L      53             0.0998317    1.000000000000    1.000000000000

     19   D      54             0.5500000    1.000000000000

 TOTAL NUMBER OF BASIS SET SHELLS             =   19
 NUMBER OF CARTESIAN GAUSSIAN BASIS FUNCTIONS =   66

     $CONTRL OPTIONS
     ---------------
 SCFTYP=RHF          RUNTYP=ENERGY       EXETYP=RUN     
 MPLEVL=       0     CITYP =NONE         CCTYP =NONE         VBTYP =NONE    
 DFTTYP=NONE         TDDFT =NONE    
 MULT  =       1     ICHARG=       0     NZVAR =       0     COORD =UNIQUE  
 PP    =NONE         RELWFN=NONE         LOCAL =NONE         NUMGRD=       F
 ISPHER=       1     NOSYM =       0     MAXIT =     200     UNITS =ANGS    
 PLTORB=       F     MOLPLT=       F     AIMPAC=       F     FRIEND=        
 NPRINT=      -5     IREST =       0     GEOM  =INPUT   
 NORMF =       0     NORMP =       0     ITOL  =      24     ICUT  =      12
 INTTYP=BEST         GRDTYP=BEST         QMTTOL= 1.0E-06

     $SYSTEM OPTIONS
     ---------------
  REPLICATED MEMORY=    63000000 WORDS (ON EVERY NODE).
 DISTRIBUTED MEMDDI=          63 MILLION WORDS IN AGGREGATE,
 MEMDDI DISTRIBUTED OVER  16 PROCESSORS IS     3937500 WORDS/PROCESSOR.
 TOTAL MEMORY REQUESTED ON EACH PROCESSOR=    66937500 WORDS.
 TIMLIM=      525600.00 MINUTES, OR     365.0 DAYS.
 PARALL= T  BALTYP=  DLB     KDIAG=    0  COREFL= F
 MXSEQ2=     300 MXSEQ3=     150  mem10=         0

 ** LOOKING UP INTERNALLY STORED DATA FOR SOLVENT=WATER    **
 OPTICAL AND PHYSICAL CONSTANTS:
 EPS= 78.390; EPSINF=  1.776; RSOLV=  1.385 A; VMOL=  18.070 ML/MOL;
 TCE= .25700E-03 1/K; STEN= 71.810 DYN/CM;  DSTEN=  0.6500; CMF=  1.2770


     -----------------------------------
     INPUT FOR PCM SOLVATION CALCULATION 
     -----------------------------------
     IEF   =     -10
     ICOMP =       2     IFIELD=       0     ICAV  =       1
     IDISP =       1     IREP  =       0     IDP   =       0

     SOLVNT=WATER        EPS   = 78.3900     EPSINF=  1.7760
     VMOL  = 18.0700     TCE   =  0.00025700 STEN  = 71.8100
     DSTEN =  0.6500     CMF   =  1.2770     RSOLV =  1.3850

     NESFP =       0
     OMEGA = 40.0000     RET   =100.0000     FRO   =  0.7000

     TABS  =298.0000     IPRINT=       0

     --------------------------------
     INPUT FOR ITERATIVE C-PCM METHOD 
     --------------------------------
     IPCMIT  =         1     MXDIIS  =        50
     MXITR1  =       200     MXITR2  =       200
     THRES   = 0.100E-09     IMUL    =         3
     RCUT(1) =   20.0000     RCUT(2) =   50.0000

     IDIRCT  =         1
     IMGABI  =         0     RABI    =    4.0000
     IMGASC  =         0     RASC    =   20.0000
     THRSLS  = 0.500E-03     DENSLS  =    0.0100
     IEFPOL  =         1     REFPOL  =    0.0000

     INPUT FOR ISOTROPIC DIELECTRICS
     -------------------------------
     EPS=    78.39

          ----------------
          PROPERTIES INPUT
          ----------------

     MOMENTS            FIELD           POTENTIAL          DENSITY
 IEMOM =       1   IEFLD =       0   IEPOT =       0   IEDEN =       0
 WHERE =COMASS     WHERE =NUCLEI     WHERE =NUCLEI     WHERE =NUCLEI  
 OUTPUT=BOTH       OUTPUT=BOTH       OUTPUT=NONE       OUTPUT=BOTH    
 IEMINT=       0   IEFINT=       0                     IEDINT=       0
                                                       MORB  =       0
          EXTRAPOLATION IN EFFECT
          SOSCF IN EFFECT
 ORBITAL PRINTING OPTION: NPREO=     1 32767     2     1

     -------------------------------
     INTEGRAL TRANSFORMATION OPTIONS
     -------------------------------
     NWORD  =            0
     CUTOFF = 1.0E-10     MPTRAN =       0
     DIRTRF =       T     AOINTS =DUP     

          ----------------------
          INTEGRAL INPUT OPTIONS
          ----------------------
 NOPK  =       1 NORDER=       0 SCHWRZ=       T

 ..... DONE SETTING UP THE RUN .....
 CPU     0: STEP CPU TIME=     0.04 TOTAL CPU TIME=          0.0 (      0.0 MIN)
 TOTAL WALL CLOCK TIME=          0.1 SECONDS, CPU UTILIZATION IS    44.44%
 CPU     0: STEP CPU TIME=     0.00 TOTAL CPU TIME=          0.0 (      0.0 MIN)
 TOTAL WALL CLOCK TIME=          0.1 SECONDS, CPU UTILIZATION IS    44.44%

                    ----------------------
                    AO INTEGRAL TECHNOLOGY
                    ----------------------
     S,P,L SHELL ROTATED AXIS INTEGRALS, REPROGRAMMED BY
        KAZUYA ISHIMURA (IMS) AND JOSE SIERRA (SYNSTAR).
     S,P,D,L SHELL ROTATED AXIS INTEGRALS PROGRAMMED BY
        KAZUYA ISHIMURA (INSTITUTE FOR MOLECULAR SCIENCE).
     S,P,D,F,G SHELL TO TOTAL QUARTET ANGULAR MOMENTUM SUM 5,
        ERIC PROGRAM BY GRAHAM FLETCHER (ELORET AND NASA ADVANCED
        SUPERCOMPUTING DIVISION, AMES RESEARCH CENTER).
     S,P,D,F,G,L SHELL GENERAL RYS QUADRATURE PROGRAMMED BY
        MICHEL DUPUIS (PACIFIC NORTHWEST NATIONAL LABORATORY).
 Setting modorb=1 flag...
 Setting modorb=1 flag...

          -----------------------
          MP2 CONTROL INFORMATION
          -----------------------
          NACORE =        8  NBCORE =        8
          LMOMP2 =        F  AOINTS = DUP     
          METHOD =        2  NWORD  =               0
          MP2PRP =        F  OSPT   = NONE    
          CUTOFF = 1.00E-12  CPHFBS = BASISAO 
          CODE   = IMS     

          NUMBER OF CORE -A-  ORBITALS =     8
          NUMBER OF CORE -B-  ORBITALS =     8
          NUMBER OF OCC. -A-  ORBITALS =    18
          NUMBER OF OCC. -B-  ORBITALS =    18
          NUMBER OF MOLECULAR ORBITALS =    66
          NUMBER OF   BASIS  FUNCTIONS =    66

 CPU     0: STEP CPU TIME=     0.02 TOTAL CPU TIME=          0.1 (      0.0 MIN)
 TOTAL WALL CLOCK TIME=          0.1 SECONDS, CPU UTILIZATION IS    50.00%
 CPU     0: STEP CPU TIME=     0.00 TOTAL CPU TIME=          0.1 (      0.0 MIN)
 TOTAL WALL CLOCK TIME=          0.1 SECONDS, CPU UTILIZATION IS    50.00%

     INPUT FOR CAVITY DEFINITION 
     ---------------------------
   ATOM               COORDINATES                RADIUS       EPS
      1      6.2160     -3.1040      1.1390      0.0100     78.3900
      2      5.4950     -3.0400      0.4860      1.5900     78.3900
      3      5.4080     -4.3240     -0.1500      1.7700     78.3900
      4      5.1850     -5.1000      0.6190      0.0100     78.3900
      5      6.3930     -4.5640     -0.5970      0.0100     78.3900
      6      4.3300     -4.3870     -1.2400      1.7700     78.3900
      7      4.2980     -5.3940     -1.7120      0.0100     78.3900
      8      3.0230     -4.1400     -0.6410      1.5900     78.3900
      9      2.2360     -3.3650     -1.5290      1.7700     78.3900
     10      1.2970     -3.9380     -1.7040      0.0100     78.3900
     11      1.8970     -2.0650     -0.9440      1.6800     78.3900
     12      0.9060     -0.1560     -0.4780      1.7700     78.3900
     13      1.9230     -0.3030      0.4580      1.6800     78.3900
     14      2.4730     -1.4540      0.1460      1.7700     78.3900
     15      3.3160     -1.9120      0.6690      0.0100     78.3900
     16     -0.9470      0.6780     -1.6970      1.6800     78.3900
     17     -0.8230     -0.4040     -2.4750      1.7700     78.3900
     18     -1.5490     -0.4800     -3.2930      0.0100     78.3900
     19      0.0470     -1.4150     -2.3810      1.6800     78.3900
     20      0.8870     -1.2310     -1.3510      1.7700     78.3900
     21     -0.0790      0.8380     -0.6640      1.7700     78.3900
     22     -0.2010      1.9200      0.1260      1.6800     78.3900
     23      0.4200      2.0800      0.8950      0.0100     78.3900
     24     -0.8750      2.6320     -0.0910      0.0100     78.3900
     25      3.0010     -3.2480     -2.8280      1.7700     78.3900
     26      2.7990     -2.3010     -3.3700      0.0100     78.3900
     27      2.6750     -4.3540     -3.6470      1.5900     78.3900
     28      3.3330     -4.3830     -4.3550      0.0100     78.3900
     29      4.4480     -3.3280     -2.3490      1.7700     78.3900
     30      4.7450     -2.3790     -1.8460      0.0100     78.3900
     31      5.4010     -3.7570     -3.3540      1.5900     78.3900
     32      6.1440     -2.6630     -4.2140      2.1000     78.3900
     33      6.7350     -1.6580     -3.3040      1.5900     78.3900
     34      7.0800     -3.3480     -5.1320      1.5900     78.3900
     35      4.9820     -1.9910     -5.0310      1.5900     78.3900
     36      4.3130     -2.7010     -6.0970      1.7700     78.3900
     37      3.8160     -3.6180     -5.7210      0.0100     78.3900
     38      5.0450     -3.0100     -6.8800      0.0100     78.3900
     39      3.2440     -1.8290     -6.7730      1.7700     78.3900
     40      2.7410     -2.3880     -7.5910      0.0100     78.3900
     41      2.2120     -1.4390     -5.8250      1.5900     78.3900
     42      1.7710     -0.1190     -6.1260      1.7700     78.3900
     43      0.6780     -0.2030     -6.3360      0.0100     78.3900
     44      1.9980      0.8080     -4.9850      1.6800     78.3900
     45      2.9260      0.5100     -4.0130      1.7700     78.3900
     46      3.4850     -0.4140     -4.1690      0.0100     78.3900
     47      1.2720      1.9770     -4.9310      1.7700     78.3900
     48      0.4630      2.2970     -5.7990      1.5900     78.3900
     49      1.5150      2.7560     -3.8320      1.6800     78.3900
     50      0.9950      3.6280     -3.7920      0.0100     78.3900
     51      2.3780      2.4940     -2.7940      1.7700     78.3900
     52      2.4630      3.2710     -1.8480      1.5900     78.3900
     53      3.1240      1.2820     -2.9370      1.7700     78.3900
     54      3.8370      1.0170     -2.1600      0.0100     78.3900
     55      2.4920      0.3230     -7.3920      1.7700     78.3900
     56      2.7330      1.4100     -7.3960      0.0100     78.3900
     57      1.7070     -0.0050     -8.5250      1.5900     78.3900
     58      2.2660      0.1040     -9.3120      0.0100     78.3900
     59      3.7630     -0.5060     -7.3320      1.7700     78.3900
     60      4.4500     -0.0860     -6.5610      0.0100     78.3900
     61      4.3980     -0.7250     -8.6100      1.5900     78.3900
     62      5.6010      0.1960     -9.0270      2.1000     78.3900
     63      6.5450      0.2730     -7.8860      1.5900     78.3900
     64      6.1330     -0.3100    -10.3160      1.5900     78.3900
     65      4.9450      1.6030     -9.2770      1.5900     78.3900
     66      5.7880      2.7810     -9.1650      1.7700     78.3900
     67      6.5700      2.7790     -9.9630      0.0100     78.3900
     68      6.3280      2.8060     -8.1890      0.0100     78.3900
     69      4.9630      4.0810     -9.2990      1.7700     78.3900
     70      4.5470      4.1360    -10.3260      0.0100     78.3900
     71      3.8070      4.0850     -8.4010      1.5900     78.3900
     72      3.6520      5.3750     -7.8270      1.7700     78.3900
     73      2.5860      5.6510     -7.9940      0.0100     78.3900
     74      3.9320      5.4060     -6.3710      1.6800     78.3900
     75      4.6550      4.5250     -5.5900      1.7700     78.3900
     76      6.4150      1.5650     -5.3030      1.6800     78.3900
     77      6.9430      1.0560     -4.6270      0.0100     78.3900
     78      6.3700      1.2400     -6.2540      0.0100     78.3900
     79      5.2810      3.4100     -6.0060      1.6800     78.3900
     80      5.8150      2.7100     -5.0320      1.7700     78.3900
     81      5.8420      3.1450     -3.7330      1.6800     78.3900
     82      6.3370      2.5940     -3.0490      0.0100     78.3900
     83      5.2740      4.3330     -3.2700      1.7700     78.3900
     84      5.3470      4.6510     -2.0790      1.5900     78.3900
     85      4.6130      5.0400     -4.3130      1.7700     78.3900
     86      3.8780      6.2180     -4.2790      1.6800     78.3900
     87      3.4950      6.3950     -5.5180      1.7700     78.3900
     88      2.8890      7.2370     -5.8680      0.0100     78.3900
     89      4.5500      6.3230     -8.5930      1.7700     78.3900
     90      4.9380      7.1550     -7.9670      0.0100     78.3900
     91      3.8550      6.8570     -9.7080      1.5900     78.3900
     92      4.5180      7.2440    -10.3020      0.0100     78.3900
     93      5.6900      5.4040     -9.0140      1.7700     78.3900
     94      6.3520      5.2190     -8.1310      0.0100     78.3900
     95      6.3860      5.8650    -10.1960      1.5900     78.3900
     96      7.9480      5.9700    -10.2170      2.1000     78.3900
     97      8.5060      5.0350     -9.2190      1.5900     78.3900
     98      8.4350      5.8210    -11.6070      1.5900     78.3900
     99      8.2360      7.4360     -9.7220      1.5900     78.3900
    100      7.7780      8.5890    -10.4620      1.7700     78.3900
    101      6.7660      8.4280    -10.9040      0.0100     78.3900
    102      8.4850      8.8090    -11.2930      0.0100     78.3900
    103      7.7020      9.8220     -9.5530      1.7700     78.3900
    104      7.3500     10.7140    -10.1160      0.0100     78.3900
    105      6.7390      9.5700     -8.4900      1.5900     78.3900
    106      7.2200     10.1330     -7.2810      1.7700     78.3900
    107      6.4130     10.7960     -6.8990      0.0100     78.3900
    108      7.4910      9.0980     -6.2700      1.6800     78.3900
    109      7.6940      9.2870     -4.9250      1.7700     78.3900
    110      8.0600     11.3920     -2.2000      1.6800     78.3900
    111      7.8790     12.2940     -2.5900      0.0100     78.3900
    112      8.2380     11.3130     -1.2150      0.0100     78.3900
    113      7.7030     10.4710     -4.2790      1.6800     78.3900
    114      7.9630     10.3310     -2.9820      1.7700     78.3900
    115      8.1680      9.1170     -2.3810      1.6800     78.3900
    116      8.2770      9.0930     -1.3790      0.0100     78.3900
    117      8.0990      7.8780     -3.0090      1.7700     78.3900
    118      8.2730      6.8280     -2.3810      1.5900     78.3900
    119      7.8810      8.0190     -4.4040      1.7700     78.3900
    120      7.8150      7.0550     -5.4010      1.6800     78.3900
    121      7.5800      7.7410     -6.4910      1.7700     78.3900
    122      7.4410      7.3180     -7.4860      0.0100     78.3900
    123      8.4440     10.9620     -7.6170      1.7700     78.3900
    124      9.1740     11.0030     -6.7820      0.0100     78.3900
    125      8.0560     12.2800     -7.9710      1.5900     78.3900
    126      8.8490     12.7340     -8.2820      0.0100     78.3900
    127      8.9970     10.1910     -8.8110      1.7700     78.3900
    128      9.4570      9.2340     -8.4670      0.0100     78.3900
    129      9.8560     10.9520     -9.6830      1.5900     78.3900
    130     11.4170     10.8380     -9.5470      2.1000     78.3900
    131     11.8300      9.4290     -9.3630      1.5900     78.3900
    132     12.0480     11.5750    -10.6670      1.5900     78.3900
    133     11.7110     11.5910     -8.2000      1.5900     78.3900
    134     11.5830     13.0270     -8.1150      1.7700     78.3900
    135     10.5490     13.3510     -8.3640      0.0100     78.3900
    136     12.2850     13.5290     -8.8200      0.0100     78.3900
    137     11.8920     13.5240     -6.6990      1.7700     78.3900
    138     11.8250     14.6310     -6.6420      0.0100     78.3900
    139     10.9110     12.9820     -5.7650      1.5900     78.3900
    140     11.5560     12.6930     -4.5340      1.7700     78.3900
    141     11.0110     13.2660     -3.7480      0.0100     78.3900
    142     11.4780     11.2590     -4.2240      1.6800     78.3900
    143     11.4480      9.3210     -3.1810      1.7700     78.3900
    144     11.1640      9.0490     -4.5130      1.6800     78.3900
    145     11.1950     10.2270     -5.0870      1.7700     78.3900
    146     11.0280     10.4100     -6.1510      0.0100     78.3900
    147     11.8450      9.0900     -0.8580      1.6800     78.3900
    148     12.0000     10.4180     -0.8290      1.7700     78.3900
    149     12.2420     10.8420      0.1520      0.0100     78.3900
    150     11.9430     11.2950     -1.8380      1.6800     78.3900
    151     11.6430     10.6790     -2.9920      1.7700     78.3900
    152     11.5520      8.4940     -2.0420      1.7700     78.3900
    153     11.3820      7.1600     -2.0690      1.6800     78.3900
    154     11.1100      6.6760     -2.9030      0.0100     78.3900
    155     11.4190      6.6290     -1.2190      0.0100     78.3900
    156     12.9860     13.2020     -4.6290      1.7700     78.3900
    157     13.6970     12.5690     -4.0590      0.0100     78.3900
    158     13.0510     14.5410     -4.1630      1.5900     78.3900
    159     13.9570     14.8890     -4.2780      0.0100     78.3900
    160     13.2490     13.0930     -6.1280      1.7700     78.3900
    161     13.4290     12.0360     -6.4160      0.0100     78.3900
    162     14.3060     13.9420     -6.6090      1.5900     78.3900
    163     15.1560     13.6490     -6.2420      0.0100     78.3900
    164     11.9090      4.0450      7.3000      0.0100     78.3900
    165     11.8150      4.9290      6.9020      1.5900     78.3900
    166     12.5070      5.8470      7.7620      1.7700     78.3900
    167     13.5330      5.4620      7.9530      0.0100     78.3900
    168     11.9690      5.8970      8.7360      0.0100     78.3900
    169     12.5930      7.2720      7.1900      1.7700     78.3900
    170     12.9990      7.9770      7.9470      0.0100     78.3900
    171     13.5000      7.3090      6.0430      1.5900     78.3900
    172     12.9710      8.1820      5.0510      1.7700     78.3900
    173     13.7680      8.9340      4.8420      0.0100     78.3900
    174     12.6020      7.4590      3.8030      1.6800     78.3900
    175     12.3900      6.0960      3.8010      1.7700     78.3900
    176     12.5550      5.5920      4.7540      0.0100     78.3900
    177     12.4510      8.1960      2.6490      1.7700     78.3900
    178     12.5970      9.4130      2.6190      1.5900     78.3900
    179     12.1270      7.4670      1.5340      1.6800     78.3900
    180     12.0480      8.0010      0.6760      0.0100     78.3900
    181     11.9710      6.1000      1.4410      1.7700     78.3900
    182     11.7590      5.5770      0.3480      1.5900     78.3900
    183     12.0880      5.4090      2.6900      1.7700     78.3900
    184     12.0030      4.3270      2.7020      0.0100     78.3900
    185     11.7780      8.8850      5.6690      1.7700     78.3900
    186     11.0040      9.1430      4.9210      0.0100     78.3900
    187     12.1870     10.0610      6.3350      1.5900     78.3900
    188     11.3940     10.4080      6.7630      0.0100     78.3900
    189     11.2700      7.8360      6.6490      1.7700     78.3900
    190     10.7640      7.0120      6.0960      0.0100     78.3900
    191     10.4790      8.3500      7.7400      1.5900     78.3900
    192      8.9160      8.4400      7.6220      2.1000     78.3900
    193      8.3930      7.1470      7.1320      1.5900     78.3900
    194      8.3840      8.9260      8.9170      1.5900     78.3900
    195      8.6770      9.5430      6.5160      1.5900     78.3900
    196      8.9930     10.9310      6.7990      1.7700     78.3900
    197     10.0360     11.0580      7.1730      0.0100     78.3900
    198      8.3210     11.3290      7.5890      0.0100     78.3900
    199      8.7920     11.8340      5.5740      1.7700     78.3900
    200      8.9990     12.8970      5.8310      0.0100     78.3900
    201      9.7120     11.4530      4.5100      1.5900     78.3900
    202      9.0510     11.5900      3.2530      1.7700     78.3900
    203      9.6800     12.2890      2.6550      0.0100     78.3900
    204      8.9200     10.3010      2.5140      1.6800     78.3900
    205      8.9920      9.1090      3.1940      1.7700     78.3900
    206      9.1480      9.1840      4.2700      0.0100     78.3900
    207      8.9050      7.9350      2.5590      1.7700     78.3900
    208      9.0030      6.9850      3.0800      0.0100     78.3900
    209      8.6620     10.2950      1.1450      1.7700     78.3900
    210      8.5380     11.3760      0.5490      1.5900     78.3900
    211      8.5580      9.1180      0.4860      1.6800     78.3900
    212      8.6850      7.9570      1.1520      1.7700     78.3900
    213      8.6110      6.8100      0.4820      1.6800     78.3900
    214      8.4460      6.8280     -0.5080      0.0100     78.3900
    215      8.6800      5.9200      0.9360      0.0100     78.3900
    216      7.7060     12.2400      3.5150      1.7700     78.3900
    217      6.9180     11.9140      2.8040      0.0100     78.3900
    218      7.8370     13.6480      3.4780      1.5900     78.3900
    219      6.9780     14.0000      3.7450      0.0100     78.3900
    220      7.4010     11.7570      4.9250      1.7700     78.3900
    221      7.1230     10.6790      4.9110      0.0100     78.3900
    222      6.4630     12.5780      5.6600      1.5900     78.3900
    223      4.9310     12.2190      5.6400      2.1000     78.3900
    224      4.7840     10.7510      5.6970      1.5900     78.3900
    225      4.2460     12.9980      6.6910      1.5900     78.3900
    226      4.4350     12.7080      4.2340      1.5900     78.3900
    227      4.4060     14.0970      3.8470      1.7700     78.3900
    228      5.3870     14.5930      4.0270      0.0100     78.3900
    229      3.6430     14.6530      4.4410      0.0100     78.3900
    230      4.0720     14.2540      2.3550      1.7700     78.3900
    231      4.0770     15.3270      2.0560      0.0100     78.3900
    232      5.0880     13.5760      1.5610      1.5900     78.3900
    233      4.4760     12.9200      0.4640      1.7700     78.3900
    234      4.9800     13.3120     -0.4460      0.0100     78.3900
    235      4.6700     11.4670      0.5340      1.6800     78.3900
    236      4.9680      9.3540      0.0070      1.7700     78.3900
    237      4.9910      9.4110      1.3950      1.6800     78.3900
    238      4.8150     10.6820      1.6550      1.7700     78.3900
    239      4.7810     11.1070      2.6570      0.0100     78.3900
    240      5.0800      8.5820     -2.2180      1.6800     78.3900
    241      4.8190      9.8300     -2.5940      1.7700     78.3900
    242      4.7720      9.9830     -3.6770      0.0100     78.3900
    243      4.6680     10.9250     -1.8400      1.6800     78.3900
    244      4.7600     10.6130     -0.5350      1.7700     78.3900
    245      5.1440      8.2890     -0.8990      1.7700     78.3900
    246      5.3440      7.0150     -0.5220      1.6800     78.3900
    247      5.3450      6.7270      0.4380      0.0100     78.3900
    248      5.4050      6.3070     -1.2370      0.0100     78.3900
    249      3.0090     13.3100      0.4410      1.7700     78.3900
    250      2.3610     12.4820      0.0930      0.0100     78.3900
    251      2.8120     14.4420     -0.3830      1.5900     78.3900
    252      1.8980     14.7390     -0.2640      0.0100     78.3900
    253      2.7460     13.6200      1.9100      1.7700     78.3900
    254      2.6670     12.6690      2.4810      0.0100     78.3900
    255      1.6470     14.5260      2.1580      1.5900     78.3900
    256      0.2280     13.9770      2.5730      2.1000     78.3900
    257      0.3770     12.6230      3.1490      1.5900     78.3900
    258     -0.4490     14.9920      3.4130      1.5900     78.3900
    259     -0.5440     13.8320      1.2130      1.5900     78.3900
    260     -1.1810     14.9610      0.5720      1.7700     78.3900
    261     -0.4950     15.8410      0.5370      0.0100     78.3900
    262     -2.0930     15.2620      1.1380      0.0100     78.3900
    263     -1.5950     14.6320     -0.8770      1.7700     78.3900
    264     -1.9980     15.5400     -1.3800      0.0100     78.3900
    265     -0.4190     14.2040     -1.6260      1.5900     78.3900
    266     -0.7840     13.1680     -2.5220      1.7700     78.3900
    267     -0.4870     13.5130     -3.5390      0.0100     78.3900
    268     -0.0750     11.9260     -2.2070      1.6800     78.3900
    269      0.9620      9.9980     -2.3870      1.7700     78.3900
    270      0.9380     10.2990     -1.0310      1.6800     78.3900
    271      0.3090     11.4480     -0.9790      1.7700     78.3900
    272      0.1120     12.0120     -0.0650      0.0100     78.3900
    273      1.3320      8.9210     -4.4660      1.6800     78.3900
    274      0.6890      9.9500     -5.0240      1.7700     78.3900
    275      0.5980      9.9160     -6.1130      0.0100     78.3900
    276      0.1720     11.0370     -4.4450      1.6800     78.3900
    277      0.3410     10.9950     -3.1170      1.7700     78.3900
    278      1.4800      8.9060     -3.1150      1.7700     78.3900
    279      2.1110      7.8720     -2.5380      1.6800     78.3900
    280      2.3910      7.9120     -1.5820      0.0100     78.3900
    281      2.6610      7.2770     -3.1410      0.0100     78.3900
    282     -2.2900     12.9980     -2.4690      1.7700     78.3900
    283     -2.6030     11.9380     -2.5960      0.0100     78.3900
    284     -2.9110     13.7950     -3.4630      1.5900     78.3900
    285     -3.8690     13.7230     -3.3310      0.0100     78.3900
    286     -2.6160     13.4870     -1.0590      1.7700     78.3900
    287     -2.3510     12.7080     -0.3120      0.0100     78.3900
    288     -3.9610     13.9770     -0.8640      1.5900     78.3900
    289     -5.1820     12.9960     -0.6990      2.1000     78.3900
    290     -4.9560     12.1660      0.4990      1.5900     78.3900
    291     -6.4150     13.8140     -0.7110      1.5900     78.3900
    292     -5.1610     12.0740     -1.9810      1.5900     78.3900
    293     -5.7620     10.7530     -1.9110      1.7700     78.3900
    294     -6.8570     10.8300     -1.7240      0.0100     78.3900
    295     -5.3160     10.1510     -1.0830      0.0100     78.3900
    296     -5.5540      9.9580     -3.2140      1.7700     78.3900
    297     -6.0870     10.4440     -4.0570      0.0100     78.3900
    298     -4.1370      9.9280     -3.5550      1.5900     78.3900
    299     -3.8020      8.6610     -4.0920      1.7700     78.3900
    300     -3.3240      8.8460     -5.0820      0.0100     78.3900
    301     -2.8580      7.9720     -3.2100      1.6800     78.3900
    302     -1.2590      6.6880     -2.4270      1.7700     78.3900
    303     -1.7570      7.3910     -1.3370      1.6800     78.3900
    304     -2.6980      8.1420     -1.8530      1.7700     78.3900
    305     -3.3220      8.8450     -1.2930      0.0100     78.3900
    306     -0.0320      5.1810     -3.7720      1.6800     78.3900
    307     -0.7550      5.6270     -4.8020      1.7700     78.3900
    308     -0.5190      5.1680     -5.7670      0.0100     78.3900
    309     -1.7420      6.5310     -4.8140      1.6800     78.3900
    310     -1.9320      7.0350     -3.5850      1.7700     78.3900
    311     -0.2560      5.7080     -2.5420      1.7700     78.3900
    312      0.4720      5.2720     -1.4950      1.6800     78.3900
    313      0.3580      5.6620     -0.5750      0.0100     78.3900
    314      1.2470      4.6580     -1.6620      0.0100     78.3900
    315     -5.0920      7.8880     -4.2920      1.7700     78.3900
    316     -4.9650      6.7910     -4.1730      0.0100     78.3900
    317     -5.6270      8.1640     -5.5740      1.5900     78.3900
    318     -6.5240      7.7980     -5.6090      0.0100     78.3900
    319     -5.9550      8.4710     -3.1790      1.7700     78.3900
    320     -5.6040      8.0830     -2.1940      0.0100     78.3900
    321     -7.3770      8.3220     -3.3870      1.5900     78.3900
    322     -8.1890      7.3150     -2.4890      2.1000     78.3900
    323     -7.6670      7.3710     -1.1070      1.5900     78.3900
    324     -9.6360      7.5610     -2.6720      1.5900     78.3900
    325     -7.8140      5.9120     -3.1040      1.5900     78.3900
    326     -8.2910      5.5480     -4.4220      1.7700     78.3900
    327     -7.9940      6.3080     -5.1790      0.0100     78.3900
    328     -9.4040      5.4730     -4.4220      0.0100     78.3900
    329     -7.7330      4.1920     -4.8840      1.7700     78.3900
    330     -8.1870      3.8870     -5.8500      0.0100     78.3900
    331     -6.2930      4.2960     -5.1000      1.5900     78.3900
    332     -5.6680      3.0930     -4.6670      1.7700     78.3900
    333     -5.0890      2.7190     -5.5480      0.0100     78.3900
    334     -4.7510      3.3380     -3.5120      1.6800     78.3900
    335     -4.8710      4.4660     -2.7290      1.7700     78.3900
    336     -5.6730      5.1450     -3.0120      0.0100     78.3900
    337     -3.7680      2.4080     -3.2560      1.7700     78.3900
    338     -3.6320      1.3900     -3.9240      1.5900     78.3900
    339     -2.9510      2.7070     -2.1970      1.6800     78.3900
    340     -2.2220      2.0280     -2.0090      0.0100     78.3900
    341     -3.0110      3.8090     -1.3720      1.7700     78.3900
    342     -2.2200      3.9210     -0.4380      1.5900     78.3900
    343     -4.0490      4.7400     -1.7060      1.7700     78.3900
    344     -4.1640      5.6380     -1.1030      0.0100     78.3900
    345     -6.7720      2.0990     -4.3350      1.7700     78.3900
    346     -6.4770      1.4170     -3.5090      0.0100     78.3900
    347     -7.1120      1.3430     -5.4880      1.5900     78.3900
    348     -7.9200      0.8310     -5.3070      0.0100     78.3900
    349     -7.8950      3.0300     -3.8930      1.7700     78.3900
    350     -7.6950      3.4180     -2.8710      0.0100     78.3900
    351     -9.2120      2.4530     -3.9780      1.5900     78.3900
    352     -9.2830      1.7080     -3.3530      0.0100     78.3900

     ----------------------------
     INPUT FOR TESSERA DEFINITION
     ----------------------------
     NTSALL  =        60     MTHALL  =         4
     MTHAUT  =         0     AUTFRE  =    2.0000
     NTSFRZ  =        60     KEEPSM  =         0
     AREAKP  =   10.0000     BONDRY  =    1.0000
     AREATL  =    0.0100

     SPHERE     INITS       METHOD
          1        60       FIXPVA
          2        60       FIXPVA
          3        60       FIXPVA
          4        60       FIXPVA
          5        60       FIXPVA
          6        60       FIXPVA
          7        60       FIXPVA
          8        60       FIXPVA
          9        60       FIXPVA
         10        60       FIXPVA
         11        60       FIXPVA
         12        60       FIXPVA
         13        60       FIXPVA
         14        60       FIXPVA
         15        60       FIXPVA
         16        60       FIXPVA
         17        60       FIXPVA
         18        60       FIXPVA
         19        60       FIXPVA
         20        60       FIXPVA
         21        60       FIXPVA
         22        60       FIXPVA
         23        60       FIXPVA
         24        60       FIXPVA
         25        60       FIXPVA
         26        60       FIXPVA
         27        60       FIXPVA
         28        60       FIXPVA
         29        60       FIXPVA
         30        60       FIXPVA
         31        60       FIXPVA
         32        60       FIXPVA
         33        60       FIXPVA
         34        60       FIXPVA
         35        60       FIXPVA
         36        60       FIXPVA
         37        60       FIXPVA
         38        60       FIXPVA
         39        60       FIXPVA
         40        60       FIXPVA
         41        60       FIXPVA
         42        60       FIXPVA
         43        60       FIXPVA
         44        60       FIXPVA
         45        60       FIXPVA
         46        60       FIXPVA
         47        60       FIXPVA
         48        60       FIXPVA
         49        60       FIXPVA
         50        60       FIXPVA
         51        60       FIXPVA
         52        60       FIXPVA
         53        60       FIXPVA
         54        60       FIXPVA
         55        60       FIXPVA
         56        60       FIXPVA
         57        60       FIXPVA
         58        60       FIXPVA
         59        60       FIXPVA
         60        60       FIXPVA
         61        60       FIXPVA
         62        60       FIXPVA
         63        60       FIXPVA
         64        60       FIXPVA
         65        60       FIXPVA
         66        60       FIXPVA
         67        60       FIXPVA
         68        60       FIXPVA
         69        60       FIXPVA
         70        60       FIXPVA
         71        60       FIXPVA
         72        60       FIXPVA
         73        60       FIXPVA
         74        60       FIXPVA
         75        60       FIXPVA
         76        60       FIXPVA
         77        60       FIXPVA
         78        60       FIXPVA
         79        60       FIXPVA
         80        60       FIXPVA
         81        60       FIXPVA
         82        60       FIXPVA
         83        60       FIXPVA
         84        60       FIXPVA
         85        60       FIXPVA
         86        60       FIXPVA
         87        60       FIXPVA
         88        60       FIXPVA
         89        60       FIXPVA
         90        60       FIXPVA
         91        60       FIXPVA
         92        60       FIXPVA
         93        60       FIXPVA
         94        60       FIXPVA
         95        60       FIXPVA
         96        60       FIXPVA
         97        60       FIXPVA
         98        60       FIXPVA
         99        60       FIXPVA
        100        60       FIXPVA
        101        60       FIXPVA
        102        60       FIXPVA
        103        60       FIXPVA
        104        60       FIXPVA
        105        60       FIXPVA
        106        60       FIXPVA
        107        60       FIXPVA
        108        60       FIXPVA
        109        60       FIXPVA
        110        60       FIXPVA
        111        60       FIXPVA
        112        60       FIXPVA
        113        60       FIXPVA
        114        60       FIXPVA
        115        60       FIXPVA
        116        60       FIXPVA
        117        60       FIXPVA
        118        60       FIXPVA
        119        60       FIXPVA
        120        60       FIXPVA
        121        60       FIXPVA
        122        60       FIXPVA
        123        60       FIXPVA
        124        60       FIXPVA
        125        60       FIXPVA
        126        60       FIXPVA
        127        60       FIXPVA
        128        60       FIXPVA
        129        60       FIXPVA
        130        60       FIXPVA
        131        60       FIXPVA
        132        60       FIXPVA
        133        60       FIXPVA
        134        60       FIXPVA
        135        60       FIXPVA
        136        60       FIXPVA
        137        60       FIXPVA
        138        60       FIXPVA
        139        60       FIXPVA
        140        60       FIXPVA
        141        60       FIXPVA
        142        60       FIXPVA
        143        60       FIXPVA
        144        60       FIXPVA
        145        60       FIXPVA
        146        60       FIXPVA
        147        60       FIXPVA
        148        60       FIXPVA
        149        60       FIXPVA
        150        60       FIXPVA
        151        60       FIXPVA
        152        60       FIXPVA
        153        60       FIXPVA
        154        60       FIXPVA
        155        60       FIXPVA
        156        60       FIXPVA
        157        60       FIXPVA
        158        60       FIXPVA
        159        60       FIXPVA
        160        60       FIXPVA
        161        60       FIXPVA
        162        60       FIXPVA
        163        60       FIXPVA
        164        60       FIXPVA
        165        60       FIXPVA
        166        60       FIXPVA
        167        60       FIXPVA
        168        60       FIXPVA
        169        60       FIXPVA
        170        60       FIXPVA
        171        60       FIXPVA
        172        60       FIXPVA
        173        60       FIXPVA
        174        60       FIXPVA
        175        60       FIXPVA
        176        60       FIXPVA
        177        60       FIXPVA
        178        60       FIXPVA
        179        60       FIXPVA
        180        60       FIXPVA
        181        60       FIXPVA
        182        60       FIXPVA
        183        60       FIXPVA
        184        60       FIXPVA
        185        60       FIXPVA
        186        60       FIXPVA
        187        60       FIXPVA
        188        60       FIXPVA
        189        60       FIXPVA
        190        60       FIXPVA
        191        60       FIXPVA
        192        60       FIXPVA
        193        60       FIXPVA
        194        60       FIXPVA
        195        60       FIXPVA
        196        60       FIXPVA
        197        60       FIXPVA
        198        60       FIXPVA
        199        60       FIXPVA
        200        60       FIXPVA
        201        60       FIXPVA
        202        60       FIXPVA
        203        60       FIXPVA
        204        60       FIXPVA
        205        60       FIXPVA
        206        60       FIXPVA
        207        60       FIXPVA
        208        60       FIXPVA
        209        60       FIXPVA
        210        60       FIXPVA
        211        60       FIXPVA
        212        60       FIXPVA
        213        60       FIXPVA
        214        60       FIXPVA
        215        60       FIXPVA
        216        60       FIXPVA
        217        60       FIXPVA
        218        60       FIXPVA
        219        60       FIXPVA
        220        60       FIXPVA
        221        60       FIXPVA
        222        60       FIXPVA
        223        60       FIXPVA
        224        60       FIXPVA
        225        60       FIXPVA
        226        60       FIXPVA
        227        60       FIXPVA
        228        60       FIXPVA
        229        60       FIXPVA
        230        60       FIXPVA
        231        60       FIXPVA
        232        60       FIXPVA
        233        60       FIXPVA
        234        60       FIXPVA
        235        60       FIXPVA
        236        60       FIXPVA
        237        60       FIXPVA
        238        60       FIXPVA
        239        60       FIXPVA
        240        60       FIXPVA
        241        60       FIXPVA
        242        60       FIXPVA
        243        60       FIXPVA
        244        60       FIXPVA
        245        60       FIXPVA
        246        60       FIXPVA
        247        60       FIXPVA
        248        60       FIXPVA
        249        60       FIXPVA
        250        60       FIXPVA
        251        60       FIXPVA
        252        60       FIXPVA
        253        60       FIXPVA
        254        60       FIXPVA
        255        60       FIXPVA
        256        60       FIXPVA
        257        60       FIXPVA
        258        60       FIXPVA
        259        60       FIXPVA
        260        60       FIXPVA
        261        60       FIXPVA
        262        60       FIXPVA
        263        60       FIXPVA
        264        60       FIXPVA
        265        60       FIXPVA
        266        60       FIXPVA
        267        60       FIXPVA
        268        60       FIXPVA
        269        60       FIXPVA
        270        60       FIXPVA
        271        60       FIXPVA
        272        60       FIXPVA
        273        60       FIXPVA
        274        60       FIXPVA
        275        60       FIXPVA
        276        60       FIXPVA
        277        60       FIXPVA
        278        60       FIXPVA
        279        60       FIXPVA
        280        60       FIXPVA
        281        60       FIXPVA
        282        60       FIXPVA
        283        60       FIXPVA
        284        60       FIXPVA
        285        60       FIXPVA
        286        60       FIXPVA
        287        60       FIXPVA
        288        60       FIXPVA
        289        60       FIXPVA
        290        60       FIXPVA
        291        60       FIXPVA
        292        60       FIXPVA
        293        60       FIXPVA
        294        60       FIXPVA
        295        60       FIXPVA
        296        60       FIXPVA
        297        60       FIXPVA
        298        60       FIXPVA
        299        60       FIXPVA
        300        60       FIXPVA
        301        60       FIXPVA
        302        60       FIXPVA
        303        60       FIXPVA
        304        60       FIXPVA
        305        60       FIXPVA
        306        60       FIXPVA
        307        60       FIXPVA
        308        60       FIXPVA
        309        60       FIXPVA
        310        60       FIXPVA
        311        60       FIXPVA
        312        60       FIXPVA
        313        60       FIXPVA
        314        60       FIXPVA
        315        60       FIXPVA
        316        60       FIXPVA
        317        60       FIXPVA
        318        60       FIXPVA
        319        60       FIXPVA
        320        60       FIXPVA
        321        60       FIXPVA
        322        60       FIXPVA
        323        60       FIXPVA
        324        60       FIXPVA
        325        60       FIXPVA
        326        60       FIXPVA
        327        60       FIXPVA
        328        60       FIXPVA
        329        60       FIXPVA
        330        60       FIXPVA
        331        60       FIXPVA
        332        60       FIXPVA
        333        60       FIXPVA
        334        60       FIXPVA
        335        60       FIXPVA
        336        60       FIXPVA
        337        60       FIXPVA
        338        60       FIXPVA
        339        60       FIXPVA
        340        60       FIXPVA
        341        60       FIXPVA
        342        60       FIXPVA
        343        60       FIXPVA
        344        60       FIXPVA
        345        60       FIXPVA
        346        60       FIXPVA
        347        60       FIXPVA
        348        60       FIXPVA
        349        60       FIXPVA
        350        60       FIXPVA
        351        60       FIXPVA
        352        60       FIXPVA

     ------------------------------
      FIXPVA TESSELLATION FOR PCM
         PEIFENG SU AND HUI LI
     UNIVERSITY OF NEBRASKA-LINCOLN
     ------------------------------


 PCM DIMENSIONS: MXSP=   352, MXTS=     14080, MEMORY=        144675

     INPUT FOR CAVITY DEFINITION 
     ---------------------------
   ATOM               COORDINATES                RADIUS       EPS
      1      6.2160     -3.1040      1.1390      0.0100     78.3900
      2      5.4950     -3.0400      0.4860      1.5900     78.3900
      3      5.4080     -4.3240     -0.1500      1.7700     78.3900
      4      5.1850     -5.1000      0.6190      0.0100     78.3900
      5      6.3930     -4.5640     -0.5970      0.0100     78.3900
      6      4.3300     -4.3870     -1.2400      1.7700     78.3900
      7      4.2980     -5.3940     -1.7120      0.0100     78.3900
      8      3.0230     -4.1400     -0.6410      1.5900     78.3900
      9      2.2360     -3.3650     -1.5290      1.7700     78.3900
     10      1.2970     -3.9380     -1.7040      0.0100     78.3900
     11      1.8970     -2.0650     -0.9440      1.6800     78.3900
     12      0.9060     -0.1560     -0.4780      1.7700     78.3900
     13      1.9230     -0.3030      0.4580      1.6800     78.3900
     14      2.4730     -1.4540      0.1460      1.7700     78.3900
     15      3.3160     -1.9120      0.6690      0.0100     78.3900
     16     -0.9470      0.6780     -1.6970      1.6800     78.3900
     17     -0.8230     -0.4040     -2.4750      1.7700     78.3900
     18     -1.5490     -0.4800     -3.2930      0.0100     78.3900
     19      0.0470     -1.4150     -2.3810      1.6800     78.3900
     20      0.8870     -1.2310     -1.3510      1.7700     78.3900
     21     -0.0790      0.8380     -0.6640      1.7700     78.3900
     22     -0.2010      1.9200      0.1260      1.6800     78.3900
     23      0.4200      2.0800      0.8950      0.0100     78.3900
     24     -0.8750      2.6320     -0.0910      0.0100     78.3900
     25      3.0010     -3.2480     -2.8280      1.7700     78.3900
     26      2.7990     -2.3010     -3.3700      0.0100     78.3900
     27      2.6750     -4.3540     -3.6470      1.5900     78.3900
     28      3.3330     -4.3830     -4.3550      0.0100     78.3900
     29      4.4480     -3.3280     -2.3490      1.7700     78.3900
     30      4.7450     -2.3790     -1.8460      0.0100     78.3900
     31      5.4010     -3.7570     -3.3540      1.5900     78.3900
     32      6.1440     -2.6630     -4.2140      2.1000     78.3900
     33      6.7350     -1.6580     -3.3040      1.5900     78.3900
     34      7.0800     -3.3480     -5.1320      1.5900     78.3900
     35      4.9820     -1.9910     -5.0310      1.5900     78.3900
     36      4.3130     -2.7010     -6.0970      1.7700     78.3900
     37      3.8160     -3.6180     -5.7210      0.0100     78.3900
     38      5.0450     -3.0100     -6.8800      0.0100     78.3900
     39      3.2440     -1.8290     -6.7730      1.7700     78.3900
     40      2.7410     -2.3880     -7.5910      0.0100     78.3900
     41      2.2120     -1.4390     -5.8250      1.5900     78.3900
     42      1.7710     -0.1190     -6.1260      1.7700     78.3900
     43      0.6780     -0.2030     -6.3360      0.0100     78.3900
     44      1.9980      0.8080     -4.9850      1.6800     78.3900
     45      2.9260      0.5100     -4.0130      1.7700     78.3900
     46      3.4850     -0.4140     -4.1690      0.0100     78.3900
     47      1.2720      1.9770     -4.9310      1.7700     78.3900
     48      0.4630      2.2970     -5.7990      1.5900     78.3900
     49      1.5150      2.7560     -3.8320      1.6800     78.3900
     50      0.9950      3.6280     -3.7920      0.0100     78.3900
     51      2.3780      2.4940     -2.7940      1.7700     78.3900
     52      2.4630      3.2710     -1.8480      1.5900     78.3900
     53      3.1240      1.2820     -2.9370      1.7700     78.3900
     54      3.8370      1.0170     -2.1600      0.0100     78.3900
     55      2.4920      0.3230     -7.3920      1.7700     78.3900
     56      2.7330      1.4100     -7.3960      0.0100     78.3900
     57      1.7070     -0.0050     -8.5250      1.5900     78.3900
     58      2.2660      0.1040     -9.3120      0.0100     78.3900
     59      3.7630     -0.5060     -7.3320      1.7700     78.3900
     60      4.4500     -0.0860     -6.5610      0.0100     78.3900
     61      4.3980     -0.7250     -8.6100      1.5900     78.3900
     62      5.6010      0.1960     -9.0270      2.1000     78.3900
     63      6.5450      0.2730     -7.8860      1.5900     78.3900
     64      6.1330     -0.3100    -10.3160      1.5900     78.3900
     65      4.9450      1.6030     -9.2770      1.5900     78.3900
     66      5.7880      2.7810     -9.1650      1.7700     78.3900
     67      6.5700      2.7790     -9.9630      0.0100     78.3900
     68      6.3280      2.8060     -8.1890      0.0100     78.3900
     69      4.9630      4.0810     -9.2990      1.7700     78.3900
     70      4.5470      4.1360    -10.3260      0.0100     78.3900
     71      3.8070      4.0850     -8.4010      1.5900     78.3900
     72      3.6520      5.3750     -7.8270      1.7700     78.3900
     73      2.5860      5.6510     -7.9940      0.0100     78.3900
     74      3.9320      5.4060     -6.3710      1.6800     78.3900
     75      4.6550      4.5250     -5.5900      1.7700     78.3900
     76      6.4150      1.5650     -5.3030      1.6800     78.3900
     77      6.9430      1.0560     -4.6270      0.0100     78.3900
     78      6.3700      1.2400     -6.2540      0.0100     78.3900
     79      5.2810      3.4100     -6.0060      1.6800     78.3900
     80      5.8150      2.7100     -5.0320      1.7700     78.3900
     81      5.8420      3.1450     -3.7330      1.6800     78.3900
     82      6.3370      2.5940     -3.0490      0.0100     78.3900
     83      5.2740      4.3330     -3.2700      1.7700     78.3900
     84      5.3470      4.6510     -2.0790      1.5900     78.3900
     85      4.6130      5.0400     -4.3130      1.7700     78.3900
     86      3.8780      6.2180     -4.2790      1.6800     78.3900
     87      3.4950      6.3950     -5.5180      1.7700     78.3900
     88      2.8890      7.2370     -5.8680      0.0100     78.3900
     89      4.5500      6.3230     -8.5930      1.7700     78.3900
     90      4.9380      7.1550     -7.9670      0.0100     78.3900
     91      3.8550      6.8570     -9.7080      1.5900     78.3900
     92      4.5180      7.2440    -10.3020      0.0100     78.3900
     93      5.6900      5.4040     -9.0140      1.7700     78.3900
     94      6.3520      5.2190     -8.1310      0.0100     78.3900
     95      6.3860      5.8650    -10.1960      1.5900     78.3900
     96      7.9480      5.9700    -10.2170      2.1000     78.3900
     97      8.5060      5.0350     -9.2190      1.5900     78.3900
     98      8.4350      5.8210    -11.6070      1.5900     78.3900
     99      8.2360      7.4360     -9.7220      1.5900     78.3900
    100      7.7780      8.5890    -10.4620      1.7700     78.3900
    101      6.7660      8.4280    -10.9040      0.0100     78.3900
    102      8.4850      8.8090    -11.2930      0.0100     78.3900
    103      7.7020      9.8220     -9.5530      1.7700     78.3900
    104      7.3500     10.7140    -10.1160      0.0100     78.3900
    105      6.7390      9.5700     -8.4900      1.5900     78.3900
    106      7.2200     10.1330     -7.2810      1.7700     78.3900
    107      6.4130     10.7960     -6.8990      0.0100     78.3900
    108      7.4910      9.0980     -6.2700      1.6800     78.3900
    109      7.6940      9.2870     -4.9250      1.7700     78.3900
    110      8.0600     11.3920     -2.2000      1.6800     78.3900
    111      7.8790     12.2940     -2.5900      0.0100     78.3900
    112      8.2380     11.3130     -1.2150      0.0100     78.3900
    113      7.7030     10.4710     -4.2790      1.6800     78.3900
    114      7.9630     10.3310     -2.9820      1.7700     78.3900
    115      8.1680      9.1170     -2.3810      1.6800     78.3900
    116      8.2770      9.0930     -1.3790      0.0100     78.3900
    117      8.0990      7.8780     -3.0090      1.7700     78.3900
    118      8.2730      6.8280     -2.3810      1.5900     78.3900
    119      7.8810      8.0190     -4.4040      1.7700     78.3900
    120      7.8150      7.0550     -5.4010      1.6800     78.3900
    121      7.5800      7.7410     -6.4910      1.7700     78.3900
    122      7.4410      7.3180     -7.4860      0.0100     78.3900
    123      8.4440     10.9620     -7.6170      1.7700     78.3900
    124      9.1740     11.0030     -6.7820      0.0100     78.3900
    125      8.0560     12.2800     -7.9710      1.5900     78.3900
    126      8.8490     12.7340     -8.2820      0.0100     78.3900
    127      8.9970     10.1910     -8.8110      1.7700     78.3900
    128      9.4570      9.2340     -8.4670      0.0100     78.3900
    129      9.8560     10.9520     -9.6830      1.5900     78.3900
    130     11.4170     10.8380     -9.5470      2.1000     78.3900
    131     11.8300      9.4290     -9.3630      1.5900     78.3900
    132     12.0480     11.5750    -10.6670      1.5900     78.3900
    133     11.7110     11.5910     -8.2000      1.5900     78.3900
    134     11.5830     13.0270     -8.1150      1.7700     78.3900
    135     10.5490     13.3510     -8.3640      0.0100     78.3900
    136     12.2850     13.5290     -8.8200      0.0100     78.3900
    137     11.8920     13.5240     -6.6990      1.7700     78.3900
    138     11.8250     14.6310     -6.6420      0.0100     78.3900
    139     10.9110     12.9820     -5.7650      1.5900     78.3900
    140     11.5560     12.6930     -4.5340      1.7700     78.3900
    141     11.0110     13.2660     -3.7480      0.0100     78.3900
    142     11.4780     11.2590     -4.2240      1.6800     78.3900
    143     11.4480      9.3210     -3.1810      1.7700     78.3900
    144     11.1640      9.0490     -4.5130      1.6800     78.3900
    145     11.1950     10.2270     -5.0870      1.7700     78.3900
    146     11.0280     10.4100     -6.1510      0.0100     78.3900
    147     11.8450      9.0900     -0.8580      1.6800     78.3900
    148     12.0000     10.4180     -0.8290      1.7700     78.3900
    149     12.2420     10.8420      0.1520      0.0100     78.3900
    150     11.9430     11.2950     -1.8380      1.6800     78.3900
    151     11.6430     10.6790     -2.9920      1.7700     78.3900
    152     11.5520      8.4940     -2.0420      1.7700     78.3900
    153     11.3820      7.1600     -2.0690      1.6800     78.3900
    154     11.1100      6.6760     -2.9030      0.0100     78.3900
    155     11.4190      6.6290     -1.2190      0.0100     78.3900
    156     12.9860     13.2020     -4.6290      1.7700     78.3900
    157     13.6970     12.5690     -4.0590      0.0100     78.3900
    158     13.0510     14.5410     -4.1630      1.5900     78.3900
    159     13.9570     14.8890     -4.2780      0.0100     78.3900
    160     13.2490     13.0930     -6.1280      1.7700     78.3900
    161     13.4290     12.0360     -6.4160      0.0100     78.3900
    162     14.3060     13.9420     -6.6090      1.5900     78.3900
    163     15.1560     13.6490     -6.2420      0.0100     78.3900
    164     11.9090      4.0450      7.3000      0.0100     78.3900
    165     11.8150      4.9290      6.9020      1.5900     78.3900
    166     12.5070      5.8470      7.7620      1.7700     78.3900
    167     13.5330      5.4620      7.9530      0.0100     78.3900
    168     11.9690      5.8970      8.7360      0.0100     78.3900
    169     12.5930      7.2720      7.1900      1.7700     78.3900
    170     12.9990      7.9770      7.9470      0.0100     78.3900
    171     13.5000      7.3090      6.0430      1.5900     78.3900
    172     12.9710      8.1820      5.0510      1.7700     78.3900
    173     13.7680      8.9340      4.8420      0.0100     78.3900
    174     12.6020      7.4590      3.8030      1.6800     78.3900
    175     12.3900      6.0960      3.8010      1.7700     78.3900
    176     12.5550      5.5920      4.7540      0.0100     78.3900
    177     12.4510      8.1960      2.6490      1.7700     78.3900
    178     12.5970      9.4130      2.6190      1.5900     78.3900
    179     12.1270      7.4670      1.5340      1.6800     78.3900
    180     12.0480      8.0010      0.6760      0.0100     78.3900
    181     11.9710      6.1000      1.4410      1.7700     78.3900
    182     11.7590      5.5770      0.3480      1.5900     78.3900
    183     12.0880      5.4090      2.6900      1.7700     78.3900
    184     12.0030      4.3270      2.7020      0.0100     78.3900
    185     11.7780      8.8850      5.6690      1.7700     78.3900
    186     11.0040      9.1430      4.9210      0.0100     78.3900
    187     12.1870     10.0610      6.3350      1.5900     78.3900
    188     11.3940     10.4080      6.7630      0.0100     78.3900
    189     11.2700      7.8360      6.6490      1.7700     78.3900
    190     10.7640      7.0120      6.0960      0.0100     78.3900
    191     10.4790      8.3500      7.7400      1.5900     78.3900
    192      8.9160      8.4400      7.6220      2.1000     78.3900
    193      8.3930      7.1470      7.1320      1.5900     78.3900
    194      8.3840      8.9260      8.9170      1.5900     78.3900
    195      8.6770      9.5430      6.5160      1.5900     78.3900
    196      8.9930     10.9310      6.7990      1.7700     78.3900
    197     10.0360     11.0580      7.1730      0.0100     78.3900
    198      8.3210     11.3290      7.5890      0.0100     78.3900
    199      8.7920     11.8340      5.5740      1.7700     78.3900
    200      8.9990     12.8970      5.8310      0.0100     78.3900
    201      9.7120     11.4530      4.5100      1.5900     78.3900
    202      9.0510     11.5900      3.2530      1.7700     78.3900
    203      9.6800     12.2890      2.6550      0.0100     78.3900
    204      8.9200     10.3010      2.5140      1.6800     78.3900
    205      8.9920      9.1090      3.1940      1.7700     78.3900
    206      9.1480      9.1840      4.2700      0.0100     78.3900
    207      8.9050      7.9350      2.5590      1.7700     78.3900
    208      9.0030      6.9850      3.0800      0.0100     78.3900
    209      8.6620     10.2950      1.1450      1.7700     78.3900
    210      8.5380     11.3760      0.5490      1.5900     78.3900
    211      8.5580      9.1180      0.4860      1.6800     78.3900
    212      8.6850      7.9570      1.1520      1.7700     78.3900
    213      8.6110      6.8100      0.4820      1.6800     78.3900
    214      8.4460      6.8280     -0.5080      0.0100     78.3900
    215      8.6800      5.9200      0.9360      0.0100     78.3900
    216      7.7060     12.2400      3.5150      1.7700     78.3900
    217      6.9180     11.9140      2.8040      0.0100     78.3900
    218      7.8370     13.6480      3.4780      1.5900     78.3900
    219      6.9780     14.0000      3.7450      0.0100     78.3900
    220      7.4010     11.7570      4.9250      1.7700     78.3900
    221      7.1230     10.6790      4.9110      0.0100     78.3900
    222      6.4630     12.5780      5.6600      1.5900     78.3900
    223      4.9310     12.2190      5.6400      2.1000     78.3900
    224      4.7840     10.7510      5.6970      1.5900     78.3900
    225      4.2460     12.9980      6.6910      1.5900     78.3900
    226      4.4350     12.7080      4.2340      1.5900     78.3900
    227      4.4060     14.0970      3.8470      1.7700     78.3900
    228      5.3870     14.5930      4.0270      0.0100     78.3900
    229      3.6430     14.6530      4.4410      0.0100     78.3900
    230      4.0720     14.2540      2.3550      1.7700     78.3900
    231      4.0770     15.3270      2.0560      0.0100     78.3900
    232      5.0880     13.5760      1.5610      1.5900     78.3900
    233      4.4760     12.9200      0.4640      1.7700     78.3900
    234      4.9800     13.3120     -0.4460      0.0100     78.3900
    235      4.6700     11.4670      0.5340      1.6800     78.3900
    236      4.9680      9.3540      0.0070      1.7700     78.3900
    237      4.9910      9.4110      1.3950      1.6800     78.3900
    238      4.8150     10.6820      1.6550      1.7700     78.3900
    239      4.7810     11.1070      2.6570      0.0100     78.3900
    240      5.0800      8.5820     -2.2180      1.6800     78.3900
    241      4.8190      9.8300     -2.5940      1.7700     78.3900
    242      4.7720      9.9830     -3.6770      0.0100     78.3900
    243      4.6680     10.9250     -1.8400      1.6800     78.3900
    244      4.7600     10.6130     -0.5350      1.7700     78.3900
    245      5.1440      8.2890     -0.8990      1.7700     78.3900
    246      5.3440      7.0150     -0.5220      1.6800     78.3900
    247      5.3450      6.7270      0.4380      0.0100     78.3900
    248      5.4050      6.3070     -1.2370      0.0100     78.3900
    249      3.0090     13.3100      0.4410      1.7700     78.3900
    250      2.3610     12.4820      0.0930      0.0100     78.3900
    251      2.8120     14.4420     -0.3830      1.5900     78.3900
    252      1.8980     14.7390     -0.2640      0.0100     78.3900
    253      2.7460     13.6200      1.9100      1.7700     78.3900
    254      2.6670     12.6690      2.4810      0.0100     78.3900
    255      1.6470     14.5260      2.1580      1.5900     78.3900
    256      0.2280     13.9770      2.5730      2.1000     78.3900
    257      0.3770     12.6230      3.1490      1.5900     78.3900
    258     -0.4490     14.9920      3.4130      1.5900     78.3900
    259     -0.5440     13.8320      1.2130      1.5900     78.3900
    260     -1.1810     14.9610      0.5720      1.7700     78.3900
    261     -0.4950     15.8410      0.5370      0.0100     78.3900
    262     -2.0930     15.2620      1.1380      0.0100     78.3900
    263     -1.5950     14.6320     -0.8770      1.7700     78.3900
    264     -1.9980     15.5400     -1.3800      0.0100     78.3900
    265     -0.4190     14.2040     -1.6260      1.5900     78.3900
    266     -0.7840     13.1680     -2.5220      1.7700     78.3900
    267     -0.4870     13.5130     -3.5390      0.0100     78.3900
    268     -0.0750     11.9260     -2.2070      1.6800     78.3900
    269      0.9620      9.9980     -2.3870      1.7700     78.3900
    270      0.9380     10.2990     -1.0310      1.6800     78.3900
    271      0.3090     11.4480     -0.9790      1.7700     78.3900
    272      0.1120     12.0120     -0.0650      0.0100     78.3900
    273      1.3320      8.9210     -4.4660      1.6800     78.3900
    274      0.6890      9.9500     -5.0240      1.7700     78.3900
    275      0.5980      9.9160     -6.1130      0.0100     78.3900
    276      0.1720     11.0370     -4.4450      1.6800     78.3900
    277      0.3410     10.9950     -3.1170      1.7700     78.3900
    278      1.4800      8.9060     -3.1150      1.7700     78.3900
    279      2.1110      7.8720     -2.5380      1.6800     78.3900
    280      2.3910      7.9120     -1.5820      0.0100     78.3900
    281      2.6610      7.2770     -3.1410      0.0100     78.3900
    282     -2.2900     12.9980     -2.4690      1.7700     78.3900
    283     -2.6030     11.9380     -2.5960      0.0100     78.3900
    284     -2.9110     13.7950     -3.4630      1.5900     78.3900
    285     -3.8690     13.7230     -3.3310      0.0100     78.3900
    286     -2.6160     13.4870     -1.0590      1.7700     78.3900
    287     -2.3510     12.7080     -0.3120      0.0100     78.3900
    288     -3.9610     13.9770     -0.8640      1.5900     78.3900
    289     -5.1820     12.9960     -0.6990      2.1000     78.3900
    290     -4.9560     12.1660      0.4990      1.5900     78.3900
    291     -6.4150     13.8140     -0.7110      1.5900     78.3900
    292     -5.1610     12.0740     -1.9810      1.5900     78.3900
    293     -5.7620     10.7530     -1.9110      1.7700     78.3900
    294     -6.8570     10.8300     -1.7240      0.0100     78.3900
    295     -5.3160     10.1510     -1.0830      0.0100     78.3900
    296     -5.5540      9.9580     -3.2140      1.7700     78.3900
    297     -6.0870     10.4440     -4.0570      0.0100     78.3900
    298     -4.1370      9.9280     -3.5550      1.5900     78.3900
    299     -3.8020      8.6610     -4.0920      1.7700     78.3900
    300     -3.3240      8.8460     -5.0820      0.0100     78.3900
    301     -2.8580      7.9720     -3.2100      1.6800     78.3900
    302     -1.2590      6.6880     -2.4270      1.7700     78.3900
    303     -1.7570      7.3910     -1.3370      1.6800     78.3900
    304     -2.6980      8.1420     -1.8530      1.7700     78.3900
    305     -3.3220      8.8450     -1.2930      0.0100     78.3900
    306     -0.0320      5.1810     -3.7720      1.6800     78.3900
    307     -0.7550      5.6270     -4.8020      1.7700     78.3900
    308     -0.5190      5.1680     -5.7670      0.0100     78.3900
    309     -1.7420      6.5310     -4.8140      1.6800     78.3900
    310     -1.9320      7.0350     -3.5850      1.7700     78.3900
    311     -0.2560      5.7080     -2.5420      1.7700     78.3900
    312      0.4720      5.2720     -1.4950      1.6800     78.3900
    313      0.3580      5.6620     -0.5750      0.0100     78.3900
    314      1.2470      4.6580     -1.6620      0.0100     78.3900
    315     -5.0920      7.8880     -4.2920      1.7700     78.3900
    316     -4.9650      6.7910     -4.1730      0.0100     78.3900
    317     -5.6270      8.1640     -5.5740      1.5900     78.3900
    318     -6.5240      7.7980     -5.6090      0.0100     78.3900
    319     -5.9550      8.4710     -3.1790      1.7700     78.3900
    320     -5.6040      8.0830     -2.1940      0.0100     78.3900
    321     -7.3770      8.3220     -3.3870      1.5900     78.3900
    322     -8.1890      7.3150     -2.4890      2.1000     78.3900
    323     -7.6670      7.3710     -1.1070      1.5900     78.3900
    324     -9.6360      7.5610     -2.6720      1.5900     78.3900
[...]
   3  2  0    -1378.7187587459    -0.0000535551   0.000258975   0.000076001      637574956   17325829
   4  3  0    -1378.7187395910     0.0000191548   0.000072300   0.000011522      597085602   17696381
   5  4  0    -1378.7187389177     0.0000006733   0.000024191   0.000008382      550189794   18096120
   6  5  0    -1378.7187388719     0.0000000459   0.000006981   0.000001397      515534246   18405794
   7  6  0    -1378.7187390551    -0.0000001832   0.000002113   0.000001274      473245376   18768560
   8  7  0    -1378.7187390928    -0.0000000377   0.000000877   0.000000456      438148680   19072598
   9  8  0    -1378.7187391214    -0.0000000286   0.000000419   0.000000177      406680460   19327860
  10  9  0    -1378.7187391333    -0.0000000118   0.000000210   0.000000083      381660522   19537223
  11 10  0    -1378.7187391268     0.0000000065   0.000000128   0.000000019      341489503   19861244
  12 11  0    -1378.7187391231     0.0000000037   0.000000000   0.000000006      316784328   20041008

          -----------------
          DENSITY CONVERGED
          -----------------
     TIME TO FORM FOCK OPERATORS=      17.7 SECONDS (       1.5 SEC/ITER)
     FOCK TIME ON FIRST ITERATION=       2.2, LAST ITERATION=       1.0
     TIME TO SOLVE SCF EQUATIONS=       0.4 SECONDS (       0.0 SEC/ITER)

 FINAL RHF ENERGY IS    -1378.7187391231 AFTER  12 ITERATIONS
 ...... END OF RHF CALCULATION ......
 CPU     0: STEP CPU TIME=    50.60 TOTAL CPU TIME=       2421.9 (     40.4 MIN)
 TOTAL WALL CLOCK TIME=       5045.6 SECONDS, CPU UTILIZATION IS    48.00%
 DONE PCM POT.
 CPU     0: STEP CPU TIME=     0.42 TOTAL CPU TIME=       2422.3 (     40.4 MIN)
 TOTAL WALL CLOCK TIME=       5046.9 SECONDS, CPU UTILIZATION IS    48.00%

 Iter=  5 iFrag=      8 EFMO= -1432.628818424, DD= 0.004228970, DE= 0.002702009


 RHF      monomer      7 corr= NONE       , L1=   341, L0=   320 ID=      7


 AO spaces for     7     0     0 n-mer: L1=   341, L0=   320

 DIRECT SCF CALCULATION, SCHWRZ=T   FDIFF=T,  DIRTHR=  0.00E+00 NITDIR=10

                                                                                   NONZERO     BLOCKS
 ITER EX DEM     TOTAL ENERGY        E CHANGE  DENSITY CHANGE     ORB. GRAD      INTEGRALS    SKIPPED
   1  0  0    -1318.1257317424 -1318.1257317424   0.004721190   0.000000000      654133711   10577969
          ---------------START SECOND ORDER SCF---------------
   2  1  0    -1318.1256136118     0.0001181306   0.001120046   0.000312311      545156242   12226815
   3  2  0    -1318.1256426536    -0.0000290418   0.000243445   0.000062662      524317515   12441761
   4  3  0    -1318.1256304876     0.0000121660   0.000065500   0.000008215      487824649   12778673
   5  4  0    -1318.1256297802     0.0000007074   0.000020232   0.000005396      449168310   13115405
   6  5  0    -1318.1256293502     0.0000004300   0.000005333   0.000001230      422979090   13362575
   7  6  0    -1318.1256295415    -0.0000001913   0.000002027   0.000000746      382713545   13719072
   8  7  0    -1318.1256295770    -0.0000000355   0.000000718   0.000000236      353037904   13987838
   9  8  0    -1318.1256295955    -0.0000000185   0.000000218   0.000000093      324552137   14233016
  10  9  0    -1318.1256295993    -0.0000000038   0.000000125   0.000000037      295257941   14482953
  11 10  0    -1318.1256295952     0.0000000042   0.000000059   0.000000010      258963632   14772798

          -----------------
          DENSITY CONVERGED
          -----------------
     TIME TO FORM FOCK OPERATORS=      15.2 SECONDS (       1.4 SEC/ITER)
     FOCK TIME ON FIRST ITERATION=       2.4, LAST ITERATION=       0.8
     TIME TO SOLVE SCF EQUATIONS=       0.3 SECONDS (       0.0 SEC/ITER)

 FINAL RHF ENERGY IS    -1318.1256295952 AFTER  11 ITERATIONS
 ...... END OF RHF CALCULATION ......
 CPU     0: STEP CPU TIME=    35.51 TOTAL CPU TIME=       2457.8 (     41.0 MIN)
 TOTAL WALL CLOCK TIME=       5126.1 SECONDS, CPU UTILIZATION IS    47.95%
 DONE PCM POT.
 CPU     0: STEP CPU TIME=     0.39 TOTAL CPU TIME=       2458.2 (     41.0 MIN)
 TOTAL WALL CLOCK TIME=       5127.3 SECONDS, CPU UTILIZATION IS    47.94%

 Iter=  5 iFrag=      7 EFMO= -1360.697867130, DD= 0.003889830, DE= 0.002505612


 RHF      monomer      6 corr= NONE       , L1=   339, L0=   318 ID=      8


 AO spaces for     6     0     0 n-mer: L1=   339, L0=   318

 DIRECT SCF CALCULATION, SCHWRZ=T   FDIFF=T,  DIRTHR=  0.00E+00 NITDIR=10

                                                                                   NONZERO     BLOCKS
 ITER EX DEM     TOTAL ENERGY        E CHANGE  DENSITY CHANGE     ORB. GRAD      INTEGRALS    SKIPPED
   1  0  0    -1346.9016496193 -1346.9016496193   0.003472092   0.000000000      648592684    9547763
          ---------------START SECOND ORDER SCF---------------
   2  1  0    -1346.9016003015     0.0000493177   0.000821873   0.000201841      539260243   11170168
   3  2  0    -1346.9016057199    -0.0000054184   0.000173306   0.000046092      518543136   11372973
   4  3  0    -1346.9016006018     0.0000051181   0.000039789   0.000008194      481392158   11708407
   5  4  0    -1346.9015998171     0.0000007847   0.000013618   0.000003734      442751744   12037837
   6  5  0    -1346.9015996819     0.0000001352   0.000003793   0.000001720      416524426   12277864
   7  6  0    -1346.9015996719     0.0000000100   0.000001157   0.000000490      377899086   12622813
   8  7  0    -1346.9015997560    -0.0000000841   0.000000602   0.000000360      346301192   12884398
   9  8  0    -1346.9015997723    -0.0000000163   0.000000271   0.000000138      321310642   13101610
  10  9  0    -1346.9015997804    -0.0000000080   0.000000105   0.000000042      294962304   13321715
  11 10  0    -1346.9015997734     0.0000000070   0.000000055   0.000000014      259865308   13594447

          -----------------
          DENSITY CONVERGED
          -----------------
     TIME TO FORM FOCK OPERATORS=      15.0 SECONDS (       1.4 SEC/ITER)
     FOCK TIME ON FIRST ITERATION=       2.0, LAST ITERATION=       0.8
     TIME TO SOLVE SCF EQUATIONS=       0.3 SECONDS (       0.0 SEC/ITER)

 FINAL RHF ENERGY IS    -1346.9015997734 AFTER  11 ITERATIONS
 ...... END OF RHF CALCULATION ......
 CPU     0: STEP CPU TIME=    28.67 TOTAL CPU TIME=       2486.9 (     41.4 MIN)
 TOTAL WALL CLOCK TIME=       5187.2 SECONDS, CPU UTILIZATION IS    47.94%
 DONE PCM POT.
 CPU     0: STEP CPU TIME=     0.37 TOTAL CPU TIME=       2487.3 (     41.5 MIN)
 TOTAL WALL CLOCK TIME=       5188.3 SECONDS, CPU UTILIZATION IS    47.94%

 Iter=  5 iFrag=      6 EFMO= -1380.544420401, DD= 0.002846894, DE= 0.001729695


 RHF      monomer      2 corr= NONE       , L1=   339, L0=   318 ID=      9


 AO spaces for     2     0     0 n-mer: L1=   339, L0=   318

 DIRECT SCF CALCULATION, SCHWRZ=T   FDIFF=T,  DIRTHR=  0.00E+00 NITDIR=10

                                                                                   NONZERO     BLOCKS
 ITER EX DEM     TOTAL ENERGY        E CHANGE  DENSITY CHANGE     ORB. GRAD      INTEGRALS    SKIPPED
   1  0  0    -1337.2024852300 -1337.2024852300   0.003834481   0.000000000      647196864    9672407
          ---------------START SECOND ORDER SCF---------------
   2  1  0    -1337.2024701955     0.0000150344   0.000939848   0.000291955      524504764   11264585
   3  2  0    -1337.2024874897    -0.0000172942   0.000199855   0.000060786      500010320   11489675
   4  3  0    -1337.2024836693     0.0000038204   0.000056937   0.000008063      462577111   11824473
   5  4  0    -1337.2024836088     0.0000000605   0.000015908   0.000004377      426307242   12132981
   6  5  0    -1337.2024838583    -0.0000002495   0.000005409   0.000000982      398646170   12387818
   7  6  0    -1337.2024839419    -0.0000000836   0.000002289   0.000000671      357201475   12746205
   8  7  0    -1337.2024839809    -0.0000000390   0.000000438   0.000000236      331598120   12972287
   9  8  0    -1337.2024839971    -0.0000000162   0.000000188   0.000000095      300413287   13244946
  10  9  0    -1337.2024840023    -0.0000000051   0.000000095   0.000000029      274048200   13462585

          -----------------
          DENSITY CONVERGED
          -----------------
     TIME TO FORM FOCK OPERATORS=      14.1 SECONDS (       1.4 SEC/ITER)
     FOCK TIME ON FIRST ITERATION=       2.3, LAST ITERATION=       0.9
     TIME TO SOLVE SCF EQUATIONS=       0.3 SECONDS (       0.0 SEC/ITER)

 FINAL RHF ENERGY IS    -1337.2024840023 AFTER  10 ITERATIONS
 ...... END OF RHF CALCULATION ......
 CPU     0: STEP CPU TIME=    46.53 TOTAL CPU TIME=       2533.8 (     42.2 MIN)
 TOTAL WALL CLOCK TIME=       5280.5 SECONDS, CPU UTILIZATION IS    47.98%
 DONE PCM POT.
 CPU     0: STEP CPU TIME=     0.41 TOTAL CPU TIME=       2534.2 (     42.2 MIN)
 TOTAL WALL CLOCK TIME=       5281.6 SECONDS, CPU UTILIZATION IS    47.98%

 Iter=  5 iFrag=      2 EFMO= -1380.575755776, DD= 0.003359137, DE= 0.002593856


 RHF      monomer      5 corr= NONE       , L1=   326, L0=   306 ID=     10


 AO spaces for     5     0     0 n-mer: L1=   326, L0=   306

 DIRECT SCF CALCULATION, SCHWRZ=T   FDIFF=T,  DIRTHR=  0.00E+00 NITDIR=10

                                                                                   NONZERO     BLOCKS
 ITER EX DEM     TOTAL ENERGY        E CHANGE  DENSITY CHANGE     ORB. GRAD      INTEGRALS    SKIPPED
   1  0  0     -901.0304985968  -901.0304985968   0.005257051   0.000000000      456418618   11335029
          ---------------START SECOND ORDER SCF---------------
   2  1  0     -901.0303681451     0.0001304517   0.001286246   0.000329475      392610106   12477960
   3  2  0     -901.0304142352    -0.0000460901   0.000257119   0.000065039      380761054   12628366
   4  3  0     -901.0304021170     0.0000121182   0.000063434   0.000023551      360626594   12862765
   5  4  0     -901.0304016846     0.0000004324   0.000024301   0.000007542      338161315   13094547
   6  5  0     -901.0304016144     0.0000000702   0.000006744   0.000001964      320630198   13290290
   7  6  0     -901.0304019552    -0.0000003408   0.000001857   0.000001180      294955670   13562607
   8  7  0     -901.0304019240     0.0000000312   0.000000740   0.000000248      273726080   13776201
   9  8  0     -901.0304019261    -0.0000000021   0.000000269   0.000000089      253592135   13981941
  10  9  0     -901.0304019297    -0.0000000037   0.000000112   0.000000049      236704284   14157834

          -----------------
          DENSITY CONVERGED
          -----------------
     TIME TO FORM FOCK OPERATORS=      11.3 SECONDS (       1.1 SEC/ITER)
     FOCK TIME ON FIRST ITERATION=       1.7, LAST ITERATION=       0.8
     TIME TO SOLVE SCF EQUATIONS=       0.3 SECONDS (       0.0 SEC/ITER)

 FINAL RHF ENERGY IS     -901.0304019297 AFTER  10 ITERATIONS
 ...... END OF RHF CALCULATION ......
 CPU     0: STEP CPU TIME=    24.01 TOTAL CPU TIME=       2558.2 (     42.6 MIN)
 TOTAL WALL CLOCK TIME=       5330.1 SECONDS, CPU UTILIZATION IS    47.99%
 DONE PCM POT.
 CPU     0: STEP CPU TIME=     0.28 TOTAL CPU TIME=       2558.5 (     42.6 MIN)
 TOTAL WALL CLOCK TIME=       5331.0 SECONDS, CPU UTILIZATION IS    47.99%

 Iter=  5 iFrag=      5 EFMO=  -942.880913194, DD= 0.004301498, DE= 0.003040141


 RHF      monomer     11 corr= NONE       , L1=   262, L0=   246 ID=     11


 AO spaces for    11     0     0 n-mer: L1=   262, L0=   246

 DIRECT SCF CALCULATION, SCHWRZ=T   FDIFF=T,  DIRTHR=  0.00E+00 NITDIR=10

                                                                                   NONZERO     BLOCKS
 ITER EX DEM     TOTAL ENERGY        E CHANGE  DENSITY CHANGE     ORB. GRAD      INTEGRALS    SKIPPED
   1  0  0     -781.1260215899  -781.1260215899   0.004976350   0.000000000      324647873    3475405
          ---------------START SECOND ORDER SCF---------------
   2  1  0     -781.1259161185     0.0001054714   0.001196519   0.000265747      275793006    4281738
   3  2  0     -781.1259454445    -0.0000293260   0.000251159   0.000049238      266998698    4398105
   4  3  0     -781.1259382655     0.0000071790   0.000057142   0.000008933      251068466    4587368
   5  4  0     -781.1259361456     0.0000021200   0.000024600   0.000003225      232702460    4784127
   6  5  0     -781.1259363547    -0.0000002091   0.000004523   0.000001146      222068369    4910192
   7  6  0     -781.1259363779    -0.0000000233   0.000001867   0.000000621      202805872    5138369
   8  7  0     -781.1259364192    -0.0000000413   0.000000564   0.000000115      187998043    5293154
   9  8  0     -781.1259364335    -0.0000000144   0.000000232   0.000000055      169940833    5480670
  10  9  0     -781.1259364365    -0.0000000029   0.000000078   0.000000019      155254531    5637510
  11 10  0     -781.1259364370    -0.0000000006   0.000000000   0.000000006      138852478    5797846

          -----------------
          DENSITY CONVERGED
          -----------------
     TIME TO FORM FOCK OPERATORS=       7.5 SECONDS (       0.7 SEC/ITER)
     FOCK TIME ON FIRST ITERATION=       1.0, LAST ITERATION=       0.5
     TIME TO SOLVE SCF EQUATIONS=       0.2 SECONDS (       0.0 SEC/ITER)

 FINAL RHF ENERGY IS     -781.1259364370 AFTER  11 ITERATIONS
 ...... END OF RHF CALCULATION ......
 CPU     0: STEP CPU TIME=    17.94 TOTAL CPU TIME=       2576.4 (     42.9 MIN)
 TOTAL WALL CLOCK TIME=       5370.1 SECONDS, CPU UTILIZATION IS    47.98%
 DONE PCM POT.
 CPU     0: STEP CPU TIME=     0.27 TOTAL CPU TIME=       2576.7 (     42.9 MIN)
 TOTAL WALL CLOCK TIME=       5370.8 SECONDS, CPU UTILIZATION IS    47.98%

 Iter=  5 iFrag=     11 EFMO=  -815.657824882, DD= 0.004048576, DE= 0.005680134

 CPU     0: STEP CPU TIME=     0.00 TOTAL CPU TIME=       2576.7 (     42.9 MIN)
 TOTAL WALL CLOCK TIME=       5370.8 SECONDS, CPU UTILIZATION IS    47.98%

  Monomer SCF synchronisation on iteration   5.1 took     0.0 s.
 CPU     0: STEP CPU TIME=     0.00 TOTAL CPU TIME=       2576.7 (     42.9 MIN)
 TOTAL WALL CLOCK TIME=       5370.8 SECONDS, CPU UTILIZATION IS    47.98%
 dmexch needs              4174666  words of memory.
 CPU     0: STEP CPU TIME=     0.01 TOTAL CPU TIME=       2576.7 (     42.9 MIN)
 TOTAL WALL CLOCK TIME=       5370.9 SECONDS, CPU UTILIZATION IS    47.98%

 Data exchange of   1382864 words took     0.0 s.

 Calculating apparent surface charges...
     Using       55326 words of memory.
 ASC ITERATION=   1 CONVERGED TO  0.130402E-03
 ASC ITERATION=   2 CONVERGED TO  0.105207E-02
 ASC ITERATION=   3 CONVERGED TO  0.198716E-02
 ASC ITERATION=   4 CONVERGED TO  0.305134E-03
 ASC ITERATION=   5 CONVERGED TO  0.117104E-03
 ASC ITERATION=   6 CONVERGED TO  0.842073E-04
 ASC ITERATION=   7 CONVERGED TO  0.547475E-04
 ASC ITERATION=   8 CONVERGED TO  0.280789E-04
 ASC ITERATION=   9 CONVERGED TO  0.106361E-04
 ASC ITERATION=  10 CONVERGED TO  0.115466E-04
 ASC ITERATION=  11 CONVERGED TO  0.710530E-05
 ASC ITERATION=  12 CONVERGED TO  0.299062E-05
 ASC ITERATION=  13 CONVERGED TO  0.116379E-05
 ASC ITERATION=  14 CONVERGED TO  0.664894E-06
 ASC ITERATION=  15 CONVERGED TO  0.446254E-06
 ASC ITERATION=  16 CONVERGED TO  0.317286E-06
 ASC ITERATION=  17 CONVERGED TO  0.152254E-06
 ASC ITERATION=  18 CONVERGED TO  0.808026E-07
 ASC ITERATION=  19 CONVERGED TO  0.583430E-07
 ASC ITERATION=  20 CONVERGED TO  0.328113E-07
 ASC ITERATION=  21 CONVERGED TO  0.226227E-07
 ASC ITERATION=  22 CONVERGED TO  0.103168E-07
 ASC ITERATION=  23 CONVERGED TO  0.672485E-08
 ASC ITERATION=  24 CONVERGED TO  0.491370E-08
 ASC ITERATION=  25 CONVERGED TO  0.239972E-08
 ASC ITERATION=  26 CONVERGED TO  0.121686E-08
 ASC ITERATION=  27 CONVERGED TO  0.729369E-09
 ASC ITERATION=  28 CONVERGED TO  0.394380E-09
 ASC ITERATION=  29 CONVERGED TO  0.218716E-09
 ASC ITERATION=  30 CONVERGED TO  0.131648E-09
 ASC ITERATION=  31 CONVERGED TO  0.670060E-10

 THE ASC EQUATIONS FOR PHASE=1 CONVERGED IN  31 ITERATIONS.

 PCM ASC=      8.8225009562 normalised to=      8.8851894374
 Nuclear factor=   1.0027960781, electronic factor=   1.0028177990

 CPU     0: STEP CPU TIME=     0.19 TOTAL CPU TIME=       2576.9 (     42.9 MIN)
 TOTAL WALL CLOCK TIME=       5371.3 SECONDS, CPU UTILIZATION IS    47.97%


 ------------------------------------------------------------------------------
 FMO iter  5.1,      0 fragment(s) converged, maxD 0.004301498 maxE 0.005680134
 ------------------------------------------------------------------------------

 RHF      monomer      1 corr= NONE       , L1=   388, L0=   364 ID=      1


 AO spaces for     1     0     0 n-mer: L1=   388, L0=   364

 DIRECT SCF CALCULATION, SCHWRZ=T   FDIFF=T,  DIRTHR=  0.00E+00 NITDIR=10

                                                                                   NONZERO     BLOCKS
 ITER EX DEM     TOTAL ENERGY        E CHANGE  DENSITY CHANGE     ORB. GRAD      INTEGRALS    SKIPPED
   1  0  0    -1471.3101096200 -1471.3101096200   0.000661633   0.000000000      955941405   18750348
          ---------------START SECOND ORDER SCF---------------
   2  1  0    -1471.3100800617     0.0000295583   0.000126068   0.000049190      712231604   21749712
   3  2  0    -1471.3100847340    -0.0000046724   0.000094749   0.000014004      677137968   22039288
   4  3  0    -1471.3100807214     0.0000040126   0.000017671   0.000008046      635926914   22409331
   5  4  0    -1471.3100815473    -0.0000008259   0.000004695   0.000002919      589297510   22814209
   6  5  0    -1471.3100817961    -0.0000002489   0.000003155   0.000000852      542576155   23200508
   7  6  0    -1471.3100817681     0.0000000280   0.000000978   0.000000225      489315448   23625877
   8  7  0    -1471.3100817542     0.0000000139   0.000000203   0.000000072      438416318   24055202
   9  8  0    -1471.3100817713    -0.0000000172   0.000000090   0.000000031      396590335   24405205
  10  9  0    -1471.3100817730    -0.0000000016   0.000000026   0.000000020      348297570   24768724

          -----------------
          DENSITY CONVERGED
          -----------------
     TIME TO FORM FOCK OPERATORS=      18.8 SECONDS (       1.9 SEC/ITER)
     FOCK TIME ON FIRST ITERATION=       3.4, LAST ITERATION=       1.1
     TIME TO SOLVE SCF EQUATIONS=       0.4 SECONDS (       0.0 SEC/ITER)

 FINAL RHF ENERGY IS    -1471.3100817730 AFTER  10 ITERATIONS
 ...... END OF RHF CALCULATION ......
 CPU     0: STEP CPU TIME=    39.43 TOTAL CPU TIME=       2616.3 (     43.6 MIN)
 TOTAL WALL CLOCK TIME=       5453.7 SECONDS, CPU UTILIZATION IS    47.97%
 DONE PCM POT.
 CPU     0: STEP CPU TIME=     0.45 TOTAL CPU TIME=       2616.8 (     43.6 MIN)
 TOTAL WALL CLOCK TIME=       5455.1 SECONDS, CPU UTILIZATION IS    47.97%

 Iter=  6 iFrag=      1 EFMO= -1522.810743648, DD= 0.000804620, DE=-0.003031702


 RHF      monomer      4 corr= NONE       , L1=   386, L0=   362 ID=      2


 AO spaces for     4     0     0 n-mer: L1=   386, L0=   362

 DIRECT SCF CALCULATION, SCHWRZ=T   FDIFF=T,  DIRTHR=  0.00E+00 NITDIR=10

                                                                                   NONZERO     BLOCKS
 ITER EX DEM     TOTAL ENERGY        E CHANGE  DENSITY CHANGE     ORB. GRAD      INTEGRALS    SKIPPED
   1  0  0    -1454.7690417709 -1454.7690417709   0.001357812   0.000000000      895410640   17600377
          ---------------START SECOND ORDER SCF---------------
   2  1  0    -1454.7689360135     0.0001057574   0.000246454   0.000048523      710887385   20172576
   3  2  0    -1454.7689437552    -0.0000077417   0.000146404   0.000016304      673900375   20496518
   4  3  0    -1454.7689344910     0.0000092642   0.000029202   0.000007544      626760516   20893279
   5  4  0    -1454.7689342403     0.0000002507   0.000007879   0.000002230      577111999   21317115
   6  5  0    -1454.7689345943    -0.0000003540   0.000002051   0.000000457      528403655   21703386
