‘2LHP_6_fmo_input.inp’ -> ‘/scratch/hazwong/820697/./2LHP_6_fmo_input.inp’
‘rungms’ -> ‘/scratch/hazwong/820697/./rungms’
‘gms-files.csh’ -> ‘/scratch/hazwong/820697/./gms-files.csh’
----- GAMESS execution script 'rungms' -----
This job is running on host gollum083.lsa.umich.edu
under operating system Linux at Thu Dec 5 23:24:41 EST 2019
Available scratch disk space (Kbyte units) at beginning of the job is
Filesystem     1K-blocks  Used Available Use% Mounted on
/dev/sda4      426933580 33436 426900144   1% /scratch
GAMESS temporary binary files will be written to /scratch/hazwong/820697/2LHP_6/usrc
GAMESS supplementary output files will be written to /scratch/hazwong/820697/2LHP_6/src
Copying input file 2LHP_6_fmo_input.inp to your run's scratch directory...
cp 2LHP_6_fmo_input.inp /scratch/hazwong/820697/2LHP_6/usrc/2LHP_6_fmo_input.F05
unset echo
This is a GDDI run, keeping various output files on local disks
setenv OUTPUT /scratch/hazwong/820697/2LHP_6/usrc/2LHP_6_fmo_input.F06
setenv PUNCH /scratch/hazwong/820697/2LHP_6/usrc/2LHP_6_fmo_input.F07
unset echo
 
Assuming a single but multicore node.
 
/export/apps/CentOS7/gamess/src/build//ddikick.x /export/apps/CentOS7/gamess/src/build//gamess.R3.x 2LHP_6_fmo_input -ddi 1 16 gollum083.lsa.umich.edu:cpus=16 -scr /scratch/hazwong/820697/2LHP_6/usrc

 Distributed Data Interface kickoff program.
 Initiating 16 compute processes on 1 nodes to run the following command:
 /export/apps/CentOS7/gamess/src/build//gamess.R3.x 2LHP_6_fmo_input 

          ******************************************************
          *         GAMESS VERSION = 30 SEP 2018 (R3)         *
          *             FROM IOWA STATE UNIVERSITY             *
          * M.W.SCHMIDT, K.K.BALDRIDGE, J.A.BOATZ, S.T.ELBERT, *
          *   M.S.GORDON, J.H.JENSEN, S.KOSEKI, N.MATSUNAGA,   *
          *          K.A.NGUYEN, S.J.SU, T.L.WINDUS,           *
          *       TOGETHER WITH M.DUPUIS, J.A.MONTGOMERY       *
          *         J.COMPUT.CHEM.  14, 1347-1363(1993)        *
          **************** 64 BIT LINUX VERSION ****************

  SINCE 1993, STUDENTS AND POSTDOCS WORKING AT IOWA STATE UNIVERSITY
  AND ALSO IN THEIR VARIOUS JOBS AFTER LEAVING ISU HAVE MADE IMPORTANT
  CONTRIBUTIONS TO THE CODE:
     IVANA ADAMOVIC, CHRISTINE AIKENS, YURI ALEXEEV, POOJA ARORA,
     ANDREY ASADCHEV, ROB BELL, PRADIPTA BANDYOPADHYAY, JONATHAN BENTZ,
     BRETT BODE, KURT BRORSEN, CALEB CARLIN, GALINA CHABAN, WEI CHEN,
     CHEOL HO CHOI, PAUL DAY, ALBERT DEFUSCO, NUWAN DESILVA, TIM DUDLEY,
     DMITRI FEDOROV, ALEX FINDLATER, GRAHAM FLETCHER, MARK FREITAG,
     KURT GLAESEMANN, ANASTASIA GUNINA,
     DAN KEMP, GRANT MERRILL, NORIYUKI MINEZAWA, JONATHAN MULLIN,
     TAKESHI NAGATA, SEAN NEDD, HEATHER NETZLOFF, BOSILJKA NJEGIC, RYAN OLSON,
     MIKE PAK, BUU PHAM,
     SPENCER PRUITT, LUKE ROSKOP, JIM SHOEMAKER, LYUDMILA SLIPCHENKO,
     TONY SMITH, SAROM SOK LEANG, JIE SONG, TETSUYA TAKETSUGU, SIMON WEBB,
     PENG XU, SOOHAENG YOO, FEDERICO ZAHARIEV

  ADDITIONAL CODE HAS BEEN PROVIDED BY COLLABORATORS IN OTHER GROUPS:
     IOWA STATE UNIVERSITY:
          JOE IVANIC, AARON WEST, LAIMUTIS BYTAUTAS, KLAUS RUEDENBERG
     UNIVERSITY OF TOKYO: KIMIHIKO HIRAO, TAKAHITO NAKAJIMA,
          TAKAO TSUNEDA, MUNEAKI KAMIYA, SUSUMU YANAGISAWA,
          KIYOSHI YAGI, MAHITO CHIBA, SEIKEN TOKURA, NAOAKI KAWAKAMI
     UNIVERSITY OF AARHUS: FRANK JENSEN
     UNIVERSITY OF IOWA: VISVALDAS KAIRYS, HUI LI
     NATIONAL INST. OF STANDARDS AND TECHNOLOGY: WALT STEVENS, DAVID GARMER
     UNIVERSITY OF PISA: BENEDETTA MENNUCCI, JACOPO TOMASI
     UNIVERSITY OF MEMPHIS: HENRY KURTZ, PRAKASHAN KORAMBATH
     UNIVERSITY OF ALBERTA: TOBY ZENG, MARIUSZ KLOBUKOWSKI
     UNIVERSITY OF NEW ENGLAND: MARK SPACKMAN
     MIE UNIVERSITY: HIROAKI UMEDA
     NAT. INST. OF ADVANCED INDUSTRIAL SCIENCE AND TECHNOLOGY: KAZUO KITAURA
     MICHIGAN STATE UNIVERSITY:
          KAROL KOWALSKI, MARTA WLOCH, JEFFREY GOUR, JESSE LUTZ,
          WEI LI, JUN SHEN, J. EMILIANO DEUSTUA, PIOTR PIECUCH
     UNIVERSITY OF MINNESOTA:
          YINAN SHU
     UNIVERSITY OF SILESIA: MONIKA MUSIAL, STANISLAW KUCHARSKI
     FACULTES UNIVERSITAIRES NOTRE-DAME DE LA PAIX:
          OLIVIER QUINET, BENOIT CHAMPAGNE
     UNIVERSITY OF CALIFORNIA - SANTA BARBARA: BERNARD KIRTMAN
     INSTITUTE FOR MOLECULAR SCIENCE:
          KAZUYA ISHIMURA, MICHIO KATOUDA, AND SHIGERU NAGASE
     UNIVERSITY OF NOTRE DAME: ANNA POMOGAEVA, DAN CHIPMAN
     KYUSHU UNIVERSITY:
          HARUYUKI NAKANO,
          FENG LONG GU, JACEK KORCHOWIEC, MARCIN MAKOWSKI, AND YURIKO AOKI,
          HIROTOSHI MORI AND EISAKU MIYOSHI
     PENNSYLVANIA STATE UNIVERSITY:
          TZVETELIN IORDANOV, CHET SWALINA, JONATHAN SKONE,
          SHARON HAMMES-SCHIFFER
     WASEDA UNIVERSITY:
          MASATO KOBAYASHI, TOMOKO AKAMA, TSUGUKI TOUMA,
          TAKESHI YOSHIKAWA, YASUHIRO IKABATA, JUNJI SEINO,
          YUYA NAKAJIMA, HIROMI NAKAI
     NANJING UNIVERSITY: SHUHUA LI
     UNIVERSITY OF NEBRASKA:
          PEIFENG SU, DEJUN SI, NANDUN THELLAMUREGE, YALI WANG, HUI LI
     UNIVERSITY OF ZURICH: ROBERTO PEVERATI, KIM BALDRIDGE
     N. COPERNICUS UNIVERSITY AND JACKSON STATE UNIVERSITY:
          MARIA BARYSZ
     UNIVERSITY OF COPENHAGEN: Jimmy Kromann, CASPER STEINMANN
     TOKYO INSTITUTE OF TECHNOLOGY: HIROYA NAKATA
     NAGOYA UNIVERSITY: YOSHIO NISHIMOTO, STEPHAN IRLE
     MOSCOW STATE UNIVERSITY: VLADIMIR MIRONOV


 PARALLEL VERSION RUNNING ON       16 PROCESSORS IN        1 NODES.

 EXECUTION OF GAMESS BEGUN Thu Dec  5 23:24:42 2019

            ECHO OF THE FIRST FEW INPUT CARDS -
 INPUT CARD>!*** FMO 5.3 (Gamess) INPUT generated by Facio 22.1.1.32 ***                    
 INPUT CARD> $CONTRL RUNTYP=ENERGY NPRINT=-5 ISPHER=1 MAXIT=200 $END                        
 INPUT CARD> $SYSTEM MWORDS=63 MEMDDI=63 $END                                               
 INPUT CARD> $GDDI NGROUP=1 $END                                                            
 INPUT CARD> $SCF DIRSCF=.TRUE. NPUNCH=0 $END                                               
 INPUT CARD>!*** NumCPU : 2  MemPerNode : 512MB                                             
 INPUT CARD> $PCM SOLVNT=WATER IEF=-10 ICOMP=2 ICAV=1 IDISP=1 IFMO=-1 $END                  
 INPUT CARD> $PCMCAV RADII=SUAHF $END                                                       
 INPUT CARD> $TESCAV NTSALL=60 $END                                                         
 INPUT CARD> $FMOPRP                                                                        
 INPUT CARD>    NAODIR=200                                                                  
 INPUT CARD>    NGRFMO(1)=1, 1, 0, 0, 0,   0, 0, 0, 0, 0                                    
 INPUT CARD>    IPIEDA=1                                                                    
 INPUT CARD>    NPRINT=9                                                                    
 INPUT CARD> $END                                                                           
 INPUT CARD> $FMO                                                                           
 INPUT CARD>      SCFTYP(1)=RHF                                                             
 INPUT CARD>      MODGRD=10                                                                 
 INPUT CARD>      MODMUL=0                                                                  
 INPUT CARD>      MAXCAO=5                                                                  
 INPUT CARD>      MAXBND=13                                                                 
 INPUT CARD>      NLAYER=1                                                                  
 INPUT CARD>      MPLEVL(1)=2                                                               
 INPUT CARD>      NFRAG=11                                                                  
 INPUT CARD>      ICHARG(1)=-1, -1, -1, -1, 0, -1, -1, -1, -1, -1, 0                        
 INPUT CARD>      FRGNAM(1)=F1, F2, F3, F4, F5, F6, F7, F8, F9, F10, F11                    
 INPUT CARD>      indat(1)=0                                                                
 INPUT CARD>               1   -35   0                                                      
 INPUT CARD>               36   -65   0                                                     
 INPUT CARD>               66   -99   0                                                     
 INPUT CARD>               100   -133   0                                                   
 INPUT CARD>               134   -165   0                                                   
 INPUT CARD>               166   -195   0                                                   
 INPUT CARD>               196   -226   0                                                   
 INPUT CARD>               227   -259   0                                                   
 INPUT CARD>               260   -292   0                                                   
 INPUT CARD>               293   -325   0                                                   
 INPUT CARD>               326   -352   0                                                   
 INPUT CARD> $END                                                                           
 INPUT CARD>                                                                                
 INPUT CARD> $FMOBND                                                                        
 INPUT CARD>   -36   35       6-31G*    MINI                                                
 INPUT CARD>   -66   65       6-31G*    MINI                                                
 INPUT CARD>   -100   99       6-31G*    MINI                                               
 INPUT CARD>   -134   133       6-31G*    MINI                                              
 INPUT CARD>   -166   165       6-31G*    MINI                                              
 INPUT CARD>   -196   195       6-31G*    MINI                                              
 INPUT CARD>   -227   226       6-31G*    MINI                                              
 INPUT CARD>   -260   259       6-31G*    MINI                                              
 INPUT CARD>   -293   292       6-31G*    MINI                                              


 -------------------------------------------------------------
 GROUP DDI, PROGRAMMED BY: RYAN M. OLSON AND DMITRI G. FEDOROV
        FEDOROV ET AL., J. COMPUT. CHEM., 25 (2004) 872.
 -------------------------------------------------------------

 -------------------------------------------------------
 GDDI: INITIALIZATION COMPLETED FOR GROUP     1 OF     1
 WITH    16 PROCESSES BALTYP=DLB   global rank=        0
 -------------------------------------------------------

   63000000 WORDS OF MEMORY AVAILABLE


     RUN TITLE
     ---------
  FMO calculation                                                                

 THE POINT GROUP OF THE MOLECULE IS C1      
 THE ORDER OF THE PRINCIPAL AXIS IS     0

 ATOM   ATOMIC CHARGE
 H.1-1       1.0
 O.1-1       8.0
 C.1-1       6.0
 N.1-1       7.0
 P.1-1      15.0

     ATOMIC BASIS SET LIBRARY
     ----------------
 THE CONTRACTED PRIMITIVE FUNCTIONS HAVE BEEN UNNORMALIZED
 THE CONTRACTED BASIS FUNCTIONS ARE NOW NORMALIZED TO UNITY

  SHELL TYPE  PRIMITIVE        EXPONENT          CONTRACTION COEFFICIENT(S)

 H.1-1     

      1   S       1            18.7311370    0.033494604338
      1   S       2             2.8253944    0.234726953484
      1   S       3             0.6401217    0.813757326146

      2   S       4             0.1612778    1.000000000000

 O.1-1     

      3   S       5          5484.6716600    0.001831074430
      3   S       6           825.2349460    0.013950172200
      3   S       7           188.0469580    0.068445078098
      3   S       8            52.9645000    0.232714335992
      3   S       9            16.8975704    0.470192897984
      3   S      10             5.7996353    0.358520852987

      4   L      11            15.5396162   -0.110777549525    0.070874268231
      4   L      12             3.5999336   -0.148026262701    0.339752839147
      4   L      13             1.0137618    1.130767015354    0.727158577316

      5   L      14             0.2700058    1.000000000000    1.000000000000

      6   D      15             0.8000000    1.000000000000

 C.1-1     

      7   S      16          3047.5248800    0.001834737132
      7   S      17           457.3695180    0.014037322813
      7   S      18           103.9486850    0.068842622264
      7   S      19            29.2101553    0.232184443216
      7   S      20             9.2866630    0.467941348435
      7   S      21             3.1639270    0.362311985337

      8   L      22             7.8682723   -0.119332419775    0.068999066591
      8   L      23             1.8812885   -0.160854151696    0.316423960957
      8   L      24             0.5442493    1.143456437840    0.744308290898

      9   L      25             0.1687145    1.000000000000    1.000000000000

     10   D      26             0.8000000    1.000000000000

 N.1-1     

     11   S      27          4173.5114600    0.001834772160
     11   S      28           627.4579110    0.013994627002
     11   S      29           142.9020930    0.068586551812
     11   S      30            40.2343293    0.232240873040
     11   S      31            12.8202129    0.469069948082
     11   S      32             4.3904370    0.360455199063

     12   L      33            11.6263619   -0.114961181702    0.067579743878
     12   L      34             2.7162798   -0.169117478561    0.323907295893
     12   L      35             0.7722184    1.145851947027    0.740895139755

     13   L      36             0.2120315    1.000000000000    1.000000000000

     14   D      37             0.8000000    1.000000000000

 P.1-1     

     15   S      38         19413.3000000    0.001851598923
     15   S      39          2909.4200000    0.014206191735
     15   S      40           661.3640000    0.069999459277
     15   S      41           185.7590000    0.240078860331
     15   S      42            59.1943000    0.484761717984
     15   S      43            20.0310000    0.335199804993

     16   L      44           339.4780000   -0.002782170105    0.004564616191
     16   L      45            81.0101000   -0.036049901354    0.033693571881
     16   L      46            25.8780000   -0.116631004382    0.139754883368
     16   L      47             9.4522100    0.096832803638    0.339361716786
     16   L      48             3.6656600    0.614418023082    0.450920623685
     16   L      49             1.4674600    0.403798015170    0.238585800889

     17   L      50             2.1562300   -0.252924113863   -0.017765312733
     17   L      51             0.7489970    0.032851844678    0.274058196433
     17   L      52             0.2831450    1.081254761783    0.785421562957

     18   L      53             0.0998317    1.000000000000    1.000000000000

     19   D      54             0.5500000    1.000000000000

 TOTAL NUMBER OF BASIS SET SHELLS             =   19
 NUMBER OF CARTESIAN GAUSSIAN BASIS FUNCTIONS =   66

     $CONTRL OPTIONS
     ---------------
 SCFTYP=RHF          RUNTYP=ENERGY       EXETYP=RUN     
 MPLEVL=       0     CITYP =NONE         CCTYP =NONE         VBTYP =NONE    
 DFTTYP=NONE         TDDFT =NONE    
 MULT  =       1     ICHARG=       0     NZVAR =       0     COORD =UNIQUE  
 PP    =NONE         RELWFN=NONE         LOCAL =NONE         NUMGRD=       F
 ISPHER=       1     NOSYM =       0     MAXIT =     200     UNITS =ANGS    
 PLTORB=       F     MOLPLT=       F     AIMPAC=       F     FRIEND=        
 NPRINT=      -5     IREST =       0     GEOM  =INPUT   
 NORMF =       0     NORMP =       0     ITOL  =      24     ICUT  =      12
 INTTYP=BEST         GRDTYP=BEST         QMTTOL= 1.0E-06

     $SYSTEM OPTIONS
     ---------------
  REPLICATED MEMORY=    63000000 WORDS (ON EVERY NODE).
 DISTRIBUTED MEMDDI=          63 MILLION WORDS IN AGGREGATE,
 MEMDDI DISTRIBUTED OVER  16 PROCESSORS IS     3937500 WORDS/PROCESSOR.
 TOTAL MEMORY REQUESTED ON EACH PROCESSOR=    66937500 WORDS.
 TIMLIM=      525600.00 MINUTES, OR     365.0 DAYS.
 PARALL= T  BALTYP=  DLB     KDIAG=    0  COREFL= F
 MXSEQ2=     300 MXSEQ3=     150  mem10=         0

 ** LOOKING UP INTERNALLY STORED DATA FOR SOLVENT=WATER    **
 OPTICAL AND PHYSICAL CONSTANTS:
 EPS= 78.390; EPSINF=  1.776; RSOLV=  1.385 A; VMOL=  18.070 ML/MOL;
 TCE= .25700E-03 1/K; STEN= 71.810 DYN/CM;  DSTEN=  0.6500; CMF=  1.2770


     -----------------------------------
     INPUT FOR PCM SOLVATION CALCULATION 
     -----------------------------------
     IEF   =     -10
     ICOMP =       2     IFIELD=       0     ICAV  =       1
     IDISP =       1     IREP  =       0     IDP   =       0

     SOLVNT=WATER        EPS   = 78.3900     EPSINF=  1.7760
     VMOL  = 18.0700     TCE   =  0.00025700 STEN  = 71.8100
     DSTEN =  0.6500     CMF   =  1.2770     RSOLV =  1.3850

     NESFP =       0
     OMEGA = 40.0000     RET   =100.0000     FRO   =  0.7000

     TABS  =298.0000     IPRINT=       0

     --------------------------------
     INPUT FOR ITERATIVE C-PCM METHOD 
     --------------------------------
     IPCMIT  =         1     MXDIIS  =        50
     MXITR1  =       200     MXITR2  =       200
     THRES   = 0.100E-09     IMUL    =         3
     RCUT(1) =   20.0000     RCUT(2) =   50.0000

     IDIRCT  =         1
     IMGABI  =         0     RABI    =    4.0000
     IMGASC  =         0     RASC    =   20.0000
     THRSLS  = 0.500E-03     DENSLS  =    0.0100
     IEFPOL  =         1     REFPOL  =    0.0000

     INPUT FOR ISOTROPIC DIELECTRICS
     -------------------------------
     EPS=    78.39

          ----------------
          PROPERTIES INPUT
          ----------------

     MOMENTS            FIELD           POTENTIAL          DENSITY
 IEMOM =       1   IEFLD =       0   IEPOT =       0   IEDEN =       0
 WHERE =COMASS     WHERE =NUCLEI     WHERE =NUCLEI     WHERE =NUCLEI  
 OUTPUT=BOTH       OUTPUT=BOTH       OUTPUT=NONE       OUTPUT=BOTH    
 IEMINT=       0   IEFINT=       0                     IEDINT=       0
                                                       MORB  =       0
          EXTRAPOLATION IN EFFECT
          SOSCF IN EFFECT
 ORBITAL PRINTING OPTION: NPREO=     1 32767     2     1

     -------------------------------
     INTEGRAL TRANSFORMATION OPTIONS
     -------------------------------
     NWORD  =            0
     CUTOFF = 1.0E-10     MPTRAN =       0
     DIRTRF =       T     AOINTS =DUP     

          ----------------------
          INTEGRAL INPUT OPTIONS
          ----------------------
 NOPK  =       1 NORDER=       0 SCHWRZ=       T

 ..... DONE SETTING UP THE RUN .....
 CPU     0: STEP CPU TIME=     0.04 TOTAL CPU TIME=          0.0 (      0.0 MIN)
 TOTAL WALL CLOCK TIME=          0.1 SECONDS, CPU UTILIZATION IS    50.00%
 CPU     0: STEP CPU TIME=     0.00 TOTAL CPU TIME=          0.0 (      0.0 MIN)
 TOTAL WALL CLOCK TIME=          0.1 SECONDS, CPU UTILIZATION IS    50.00%

                    ----------------------
                    AO INTEGRAL TECHNOLOGY
                    ----------------------
     S,P,L SHELL ROTATED AXIS INTEGRALS, REPROGRAMMED BY
        KAZUYA ISHIMURA (IMS) AND JOSE SIERRA (SYNSTAR).
     S,P,D,L SHELL ROTATED AXIS INTEGRALS PROGRAMMED BY
        KAZUYA ISHIMURA (INSTITUTE FOR MOLECULAR SCIENCE).
     S,P,D,F,G SHELL TO TOTAL QUARTET ANGULAR MOMENTUM SUM 5,
        ERIC PROGRAM BY GRAHAM FLETCHER (ELORET AND NASA ADVANCED
        SUPERCOMPUTING DIVISION, AMES RESEARCH CENTER).
     S,P,D,F,G,L SHELL GENERAL RYS QUADRATURE PROGRAMMED BY
        MICHEL DUPUIS (PACIFIC NORTHWEST NATIONAL LABORATORY).
 Setting modorb=1 flag...
 Setting modorb=1 flag...

          -----------------------
          MP2 CONTROL INFORMATION
          -----------------------
          NACORE =        8  NBCORE =        8
          LMOMP2 =        F  AOINTS = DUP     
          METHOD =        2  NWORD  =               0
          MP2PRP =        F  OSPT   = NONE    
          CUTOFF = 1.00E-12  CPHFBS = BASISAO 
          CODE   = IMS     

          NUMBER OF CORE -A-  ORBITALS =     8
          NUMBER OF CORE -B-  ORBITALS =     8
          NUMBER OF OCC. -A-  ORBITALS =    18
          NUMBER OF OCC. -B-  ORBITALS =    18
          NUMBER OF MOLECULAR ORBITALS =    66
          NUMBER OF   BASIS  FUNCTIONS =    66

 CPU     0: STEP CPU TIME=     0.02 TOTAL CPU TIME=          0.1 (      0.0 MIN)
 TOTAL WALL CLOCK TIME=          0.1 SECONDS, CPU UTILIZATION IS    54.55%
 CPU     0: STEP CPU TIME=     0.00 TOTAL CPU TIME=          0.1 (      0.0 MIN)
 TOTAL WALL CLOCK TIME=          0.1 SECONDS, CPU UTILIZATION IS    54.55%

     INPUT FOR CAVITY DEFINITION 
     ---------------------------
   ATOM               COORDINATES                RADIUS       EPS
      1      0.3420     -6.6360     -1.4980      0.0100     78.3900
      2     -0.1090     -6.1210     -2.1930      1.5900     78.3900
      3      0.4440     -6.5510     -3.4500      1.7700     78.3900
      4      0.5020     -7.6610     -3.4490      0.0100     78.3900
      5      1.4890     -6.1710     -3.5130      0.0100     78.3900
      6     -0.3200     -6.1030     -4.7220      1.7700     78.3900
      7     -0.5210     -6.9700     -5.3860      0.0100     78.3900
      8     -1.6220     -5.5270     -4.3820      1.5900     78.3900
      9     -1.8280     -4.3270     -5.1020      1.7700     78.3900
     10     -2.8230     -4.4340     -5.5940      0.0100     78.3900
     11     -1.8960     -3.1630     -4.2100      1.6800     78.3900
     12     -2.2450     -1.1380     -3.4210      1.7700     78.3900
     13     -1.9570     -1.9360     -2.3190      1.6800     78.3900
     14     -1.7650     -3.1290     -2.8390      1.7700     78.3900
     15     -1.5040     -4.0310     -2.2790      0.0100     78.3900
     16     -2.8120      0.6970     -4.8030      1.6800     78.3900
     17     -2.7250     -0.1440     -5.8350      1.7700     78.3900
     18     -2.9090      0.3010     -6.8190      0.0100     78.3900
     19     -2.4460     -1.4460     -5.8350      1.6800     78.3900
     20     -2.2120     -1.8860     -4.5880      1.7700     78.3900
     21     -2.5750      0.2290     -3.5530      1.7700     78.3900
     22     -2.6770      1.0950     -2.5290      1.6800     78.3900
     23     -2.5400      0.8110     -1.5730      0.0100     78.3900
     24     -2.9480      2.0410     -2.7230      0.0100     78.3900
     25     -0.7560     -4.2240     -6.1660      1.7700     78.3900
     26     -0.4410     -3.1770     -6.3640      0.0100     78.3900
     27     -1.2180     -4.8090     -7.3680      1.5900     78.3900
     28     -0.4680     -4.8030     -7.9820      0.0100     78.3900
     29      0.3910     -5.0200     -5.5550      1.7700     78.3900
     30      0.9340     -4.3780     -4.8250      0.0100     78.3900
     31      1.2570     -5.6380     -6.5360      1.5900     78.3900
     32      2.7540     -5.2210     -6.7300      2.1000     78.3900
     33      3.4370     -6.2480     -7.5490      1.5900     78.3900
     34      3.3430     -4.9470     -5.4030      1.5900     78.3900
     35      2.6790     -3.8810     -7.5470      1.5900     78.3900
     36      2.5390     -3.8850     -8.9920      1.7700     78.3900
     37      2.0090     -4.7970     -9.3600      0.0100     78.3900
     38      3.5470     -3.8830     -9.4640      0.0100     78.3900
     39      1.7660     -2.6600     -9.5250      1.7700     78.3900
     40      1.3110     -2.8960    -10.5130      0.0100     78.3900
     41      0.6780     -2.3060     -8.6270      1.5900     78.3900
     42      0.5250     -0.8980     -8.5890      1.7700     78.3900
     43     -0.5280     -0.7280     -8.9190      0.0100     78.3900
     44      0.7320     -0.3400     -7.2200      1.6800     78.3900
     45      1.3350     -1.0740     -6.2190      1.7700     78.3900
     46      1.7010     -2.0570     -6.5170      0.0100     78.3900
     47      0.2590      0.9290     -6.9720      1.7700     78.3900
     48     -0.2930      1.6110     -7.8330      1.5900     78.3900
     49      0.4170      1.3690     -5.6870      1.6800     78.3900
     50      0.0500      2.2950     -5.5100      0.0100     78.3900
     51      0.9360      0.6660     -4.6200      1.7700     78.3900
     52      0.9350      1.1680     -3.4980      1.5900     78.3900
     53      1.4350     -0.6370     -4.9550      1.7700     78.3900
     54      1.8730     -1.2500     -4.1700      0.0100     78.3900
     55      1.4770     -0.3000     -9.6090      1.7700     78.3900
     56      1.9000      0.6710     -9.2680      0.0100     78.3900
     57      0.8230     -0.1260    -10.8540      1.5900     78.3900
     58      1.5140      0.1200    -11.5050      0.0100     78.3900
     59      2.5720     -1.3640     -9.6910      1.7700     78.3900
     60      3.2460     -1.2960     -8.8090      0.0100     78.3900
     61      3.3290     -1.4130    -10.9210      1.5900     78.3900
     62      3.9720     -0.1290    -11.5580      2.1000     78.3900
     63      2.9420      0.5120    -12.4020      1.5900     78.3900
     64      5.2300     -0.5420    -12.2270      1.5900     78.3900
     65      4.3190      0.7890    -10.3260      1.5900     78.3900
     66      5.0660      2.0180    -10.4830      1.7700     78.3900
     67      5.3230      2.2430    -11.5470      0.0100     78.3900
     68      6.0340      1.8980     -9.9490      0.0100     78.3900
     69      4.3270      3.2510     -9.9080      1.7700     78.3900
     70      3.6210      3.6560    -10.6680      0.0100     78.3900
     71      3.5690      2.9320     -8.7010      1.5900     78.3900
     72      4.2670      3.3920     -7.5470      1.7700     78.3900
     73      3.6430      4.2080     -7.1250      0.0100     78.3900
     74      4.4440      2.3260     -6.5560      1.6800     78.3900
     75      4.6580      2.4830     -5.2090      1.7700     78.3900
     76      5.2150      4.5390     -2.4900      1.6800     78.3900
     77      5.6500      4.4360     -1.5930      0.0100     78.3900
     78      5.1820      5.4290     -2.9370      0.0100     78.3900
     79      4.7320      3.6510     -4.5480      1.6800     78.3900
     80      5.0460      3.4910     -3.2710      1.7700     78.3900
     81      5.2160      2.2660     -2.6820      1.6800     78.3900
     82      5.4210      2.2330     -1.6980      0.0100     78.3900
     83      5.1110      1.0410     -3.3310      1.7700     78.3900
     84      5.2800     -0.0270     -2.7310      1.5900     78.3900
     85      4.8030      1.2030     -4.7100      1.7700     78.3900
     86      4.6730      0.2560     -5.7240      1.6800     78.3900
     87      4.4710      0.9730     -6.8040      1.7700     78.3900
     88      4.3180      0.5840     -7.8140      0.0100     78.3900
     89      5.6010      3.9460     -7.9980      1.7700     78.3900
     90      6.3900      3.1630     -7.9690      0.0100     78.3900
     91      5.9990      5.0620     -7.2340      1.5900     78.3900
     92      5.4600      5.8090     -7.5320      0.0100     78.3900
     93      5.3170      4.3330     -9.4460      1.7700     78.3900
     94      6.2560      4.1550    -10.0250      0.0100     78.3900
     95      4.7860      5.6760     -9.6320      1.5900     78.3900
     96      5.6970      6.7380    -10.3720      2.1000     78.3900
     97      4.8530      7.8730    -10.8070      1.5900     78.3900
     98      6.4810      6.0670    -11.4260      1.5900     78.3900
     99      6.6410      7.2060     -9.2090      1.5900     78.3900
    100      7.9650      7.7440     -9.4230      1.7700     78.3900
    101      8.2910      7.6980    -10.4880      0.0100     78.3900
    102      8.6730      7.1010     -8.8580      0.0100     78.3900
    103      8.1650      9.1940     -8.9110      1.7700     78.3900
    104      8.1270      9.9070     -9.7630      0.0100     78.3900
    105      7.0950      9.5920     -7.9950      1.5900     78.3900
    106      7.6540     10.2300     -6.8610      1.7700     78.3900
    107      7.0680     11.1620     -6.6880      0.0100     78.3900
    108      7.5650      9.3670     -5.6760      1.6800     78.3900
    109      7.8230      9.7490     -4.3900      1.7700     78.3900
    110      8.7660     12.1790     -2.1190      1.6800     78.3900
    111      8.8010     13.0060     -2.6860      0.0100     78.3900
    112      8.8090     12.2760     -1.1210      0.0100     78.3900
    113      8.2000     10.9780     -3.9940      1.6800     78.3900
    114      8.4090     11.0410     -2.6850      1.7700     78.3900
    115      8.2820      9.9640     -1.8480      1.6800     78.3900
    116      8.3980     10.1130     -0.8580      0.0100     78.3900
    117      7.8880      8.6860     -2.2310      1.7700     78.3900
    118      7.7790      7.7700     -1.4100      1.5900     78.3900
    119      7.6430      8.6160     -3.6240      1.7700     78.3900
    120      7.2520      7.5410     -4.4120      1.6800     78.3900
    121      7.2150      8.0320     -5.6270      1.7700     78.3900
    122      6.9440      7.4770     -6.5300      0.0100     78.3900
    123      9.0880     10.5780     -7.2010      1.7700     78.3900
    124      9.7490     10.6200     -6.3070      0.0100     78.3900
    125      9.1410     11.8130     -7.8900      1.5900     78.3900
    126     10.0390     11.9110     -8.2400      0.0100     78.3900
    127      9.4650      9.4170     -8.1070      1.7700     78.3900
    128      9.6250      8.4950     -7.4960      0.0100     78.3900
    129     10.5580      9.7060     -9.0040      1.5900     78.3900
    130     12.0140      9.2090     -8.6680      2.1000     78.3900
    131     12.9030      9.5730     -9.8000      1.5900     78.3900
    132     11.9650      7.7810     -8.3080      1.5900     78.3900
    133     12.4290     10.0250     -7.3870      1.5900     78.3900
    134     13.2450     11.2130     -7.5090      1.7700     78.3900
    135     12.7450     11.9600     -8.1680      0.0100     78.3900
    136     14.2370     10.9690     -7.9590      0.0100     78.3900
    137     13.5050     11.8920     -6.1520      1.7700     78.3900
    138     13.8210     12.9450     -6.2990      0.0100     78.3900
    139     12.2980     11.9050     -5.3310      1.5900     78.3900
    140     12.6600     11.7140     -3.9740      1.7700     78.3900
    141     12.2260     12.5660     -3.4000      0.0100     78.3900
    142     12.1250     10.4520     -3.4570      1.6800     78.3900
    143     11.4760      8.8410     -2.1100      1.7700     78.3900
    144     11.2530      8.3790     -3.4010      1.6800     78.3900
    145     11.6520      9.3690     -4.1630      1.7700     78.3900
    146     11.6260      9.3760     -5.2550      0.0100     78.3900
    147     11.6240      8.9910      0.2490      1.6800     78.3900
    148     12.1030     10.2250      0.0630      1.7700     78.3900
    149     12.3590     10.7740      0.9760      0.0100     78.3900
    150     12.3460     10.8730     -1.0790      1.6800     78.3900
    151     12.0080     10.1180     -2.1350      1.7700     78.3900
    152     11.2820      8.2560     -0.8410      1.7700     78.3900
    153     10.7850      7.0200     -0.6580      1.6800     78.3900
    154     10.5000      6.4400     -1.4250      0.0100     78.3900
    155     10.6280      6.6980      0.2770      0.0100     78.3900
    156     14.1760     11.7620     -3.8920      1.7700     78.3900
    157     14.5750     11.1130     -3.0820      0.0100     78.3900
    158     14.6090     13.1000     -3.6900      1.5900     78.3900
    159     15.5710     13.1460     -3.8370      0.0100     78.3900
    160     14.5680     11.2240     -5.2650      1.7700     78.3900
    161     14.4250     10.1200     -5.3200      0.0100     78.3900
    162     15.8950     11.5970     -5.6800      1.5900     78.3900
    163     16.5660     11.1520     -5.1250      0.0100     78.3900
    164      9.0930      8.6600      9.7590      0.0100     78.3900
    165      9.6330      9.0360      9.0370      1.5900     78.3900
    166     10.6530      9.8430      9.6540      1.7700     78.3900
    167     11.1860      9.2370     10.4180      0.0100     78.3900
    168     10.1730     10.6870     10.1860      0.0100     78.3900
    169     11.6930     10.4310      8.6830      1.7700     78.3900
    170     12.5810     10.8010      9.2360      0.0100     78.3900
    171     12.1400      9.4150      7.7480      1.5900     78.3900
    172     12.3370      9.9640      6.4570      1.7700     78.3900
    173     13.4440      9.9570      6.3320      0.0100     78.3900
    174     11.7370      9.1170      5.3720      1.6800     78.3900
    175     11.1070      7.9220      5.6760      1.7700     78.3900
    176     10.9660      7.7100      6.7390      0.0100     78.3900
    177     11.9860      9.4520      4.0540      1.7700     78.3900
    178     12.6420     10.4340      3.7230      1.5900     78.3900
    179     11.4720      8.5820      3.1250      1.6800     78.3900
    180     11.6370      8.8020      2.1510      0.0100     78.3900
    181     10.9100      7.3500      3.3570      1.7700     78.3900
    182     10.6320      6.6110      2.4130      1.5900     78.3900
    183     10.6970      7.0530      4.7380      1.7700     78.3900
    184     10.2430      6.1000      4.9970      0.0100     78.3900
    185     11.8590     11.4190      6.4670      1.7700     78.3900
    186     11.1360     11.6250      5.6480      0.0100     78.3900
    187     12.9660     12.2930      6.3530      1.5900     78.3900
    188     12.6510     13.1760      6.5960      0.0100     78.3900
    189     11.1500     11.5690      7.8210      1.7700     78.3900
    190     10.0690     11.3300      7.6760      0.0100     78.3900
    191     11.3590     12.8410      8.4840      1.5900     78.3900
    192     10.1950     13.8750      8.6820      2.1000     78.3900
    193     10.8050     15.1900      8.9870      1.5900     78.3900
    194      9.2240     13.3480      9.6660      1.5900     78.3900
    195      9.5390     13.9430      7.2560      1.5900     78.3900
    196     10.1020     14.8350      6.2630      1.7700     78.3900
    197     11.1810     14.6210      6.0750      0.0100     78.3900
    198     10.0230     15.8950      6.6020      0.0100     78.3900
    199      9.3450     14.7270      4.9350      1.7700     78.3900
    200      9.6260     15.5560      4.2500      0.0100     78.3900
    201      9.6930     13.4950      4.2650      1.5900     78.3900
    202      8.7310     13.3060      3.2580      1.7700     78.3900
    203      9.0480     13.9950      2.4410      0.0100     78.3900
    204      8.6610     11.9100      2.7890      1.6800     78.3900
    205      8.5440     10.8970      3.7070      1.7700     78.3900
    206      8.5960     11.1920      4.7600      0.0100     78.3900
    207      8.4130      9.6210      3.3120      1.7700     78.3900
    208      8.3230      8.7990      4.0170      0.0100     78.3900
    209      8.6180     11.6340      1.4260      1.7700     78.3900
    210      8.6850     12.5630      0.6140      1.5900     78.3900
    211      8.5040     10.3530      1.0140      1.6800     78.3900
    212      8.3720      9.3640      1.9070      1.7700     78.3900
    213      8.1650      8.1280      1.4530      1.6800     78.3900
    214      8.1720      7.9770      0.4620      0.0100     78.3900
    215      8.0710      7.3390      2.0630      0.0100     78.3900
    216      7.4010     13.7890      3.8100      1.7700     78.3900
    217      6.7830     12.9400      4.1820      0.0100     78.3900
    218      6.6740     14.5160      2.8370      1.5900     78.3900
    219      5.8570     14.8250      3.2670      0.0100     78.3900
    220      7.8160     14.6560      5.0200      1.7700     78.3900
    221      7.5910     14.0640      5.9360      0.0100     78.3900
    222      7.2430     15.9740      5.1110      1.5900     78.3900
    223      5.8100     16.2130      5.7130      2.1000     78.3900
    224      5.2160     17.3820      5.0240      1.5900     78.3900
    225      5.9190     16.3090      7.1860      1.5900     78.3900
    226      5.0000     14.8930      5.3760      1.5900     78.3900
    227      3.5510     14.8730      5.4730      1.7700     78.3900
    228      3.1680     15.5480      6.2790      0.0100     78.3900
    229      3.2470     13.8470      5.7810      0.0100     78.3900
    230      2.8150     15.1820      4.1420      1.7700     78.3900
    231      2.3960     16.2080      4.1700      0.0100     78.3900
    232      3.7590     15.1730      3.0170      1.5900     78.3900
    233      3.1860     14.5300      1.9030      1.7700     78.3900
    234      3.3370     15.2020      1.0250      0.0100     78.3900
    235      3.8370     13.2360      1.6670      1.6800     78.3900
    236      4.6800     11.4360      0.7350      1.7700     78.3900
    237      4.8640     11.2810      2.1020      1.6800     78.3900
    238      4.3490     12.3720      2.6090      1.7700     78.3900
    239      4.3230     12.6120      3.6760      0.0100     78.3900
    240      4.6780     11.0580     -1.5990      1.6800     78.3900
    241      4.0440     12.2290     -1.7110      1.7700     78.3900
    242      3.8020     12.5330     -2.7360      0.0100     78.3900
    243      3.6940     13.0980     -0.7520      1.6800     78.3900
    244      4.0540     12.6380      0.4550      1.7700     78.3900
    245      4.9960     10.6120     -0.3610      1.7700     78.3900
    246      5.5650      9.4070     -0.2180      1.6800     78.3900
    247      5.8510      9.0670      0.6770      0.0100     78.3900
    248      5.7390      8.8480     -1.0260      0.0100     78.3900
    249      1.7140     14.3770      2.1860      1.7700     78.3900
    250      1.3050     13.4960      1.6710      0.0100     78.3900
    251      0.9990     15.5290      1.7790      1.5900     78.3900
    252      0.1290     15.4940      2.2070      0.0100     78.3900
    253      1.7000     14.2010      3.7010      1.7700     78.3900
    254      2.0420     13.1740      3.9700      0.0100     78.3900
    255      0.4370     14.5510      4.3050      1.5900     78.3900
    256     -0.5190     13.4720      4.9390      2.1000     78.3900
    257     -1.7820     14.1430      5.3090      1.5900     78.3900
    258      0.2010     12.7820      6.0330      1.5900     78.3900
    259     -0.8140     12.4380      3.7950      1.5900     78.3900
    260     -1.7420     12.6650      2.7040      1.7700     78.3900
    261     -2.1520     13.7060      2.7020      0.0100     78.3900
    262     -2.6130     11.9870      2.8570      0.0100     78.3900
    263     -1.1520     12.3610      1.2950      1.7700     78.3900
    264     -0.8750     13.3130      0.7920      0.0100     78.3900
    265      0.0650     11.5890      1.4080      1.5900     78.3900
    266      0.4090     11.1040      0.1490      1.7700     78.3900
    267      0.9540     11.9320     -0.3600      0.0100     78.3900
    268      1.2730      9.9350      0.2670      1.6800     78.3900
    269      2.5160      8.1780     -0.1320      1.7700     78.3900
    270      2.4480      8.2900      1.2540      1.6800     78.3900
    271      1.7040      9.3480      1.4360      1.7700     78.3900
    272      1.4330      9.7630      2.4130      0.0100     78.3900
    273      3.0040      7.3790     -2.3060      1.6800     78.3900
    274      2.3170      8.4300     -2.7560      1.7700     78.3900
    275      2.2360      8.4890     -3.8460      0.0100     78.3900
    276      1.6900      9.3950     -2.0770      1.6800     78.3900
    277      1.8160      9.1950     -0.7530      1.7700     78.3900
    278      3.1290      7.2280     -0.9660      1.7700     78.3900
    279      3.7940      6.1720     -0.4800      1.6800     78.3900
    280      3.8510      5.9920      0.5040      0.0100     78.3900
    281      4.0650      5.4640     -1.1270      0.0100     78.3900
    282     -0.8950     10.8060     -0.5630      1.7700     78.3900
    283     -1.1070      9.7170     -0.6010      0.0100     78.3900
    284     -0.8010     11.3370     -1.8670      1.5900     78.3900
    285     -1.6660     11.2800     -2.3170      0.0100     78.3900
    286     -1.9700     11.5000      0.3180      1.7700     78.3900
    287     -2.4480     10.7220      0.9620      0.0100     78.3900
    288     -2.9730     12.2820     -0.3690      1.5900     78.3900
    289     -4.0780     11.5960     -1.2610      2.1000     78.3900
    290     -5.2650     12.4770     -1.2760      1.5900     78.3900
    291     -4.2860     10.2100     -0.7930      1.5900     78.3900
    292     -3.4200     11.5830     -2.7020      1.5900     78.3900
    293     -3.9210     10.6900     -3.7300      1.7700     78.3900
    294     -4.9810     10.9320     -3.9750      0.0100     78.3900
    295     -3.8830      9.6290     -3.3830      0.0100     78.3900
    296     -3.0920     10.7920     -5.0300      1.7700     78.3900
    297     -3.0920     11.8320     -5.4250      0.0100     78.3900
    298     -1.7130     10.4360     -4.7260      1.5900     78.3900
    299     -1.2650      9.3530     -5.5230      1.7700     78.3900
    300     -0.2660      9.6630     -5.9090      0.0100     78.3900
    301     -1.0860      8.1330     -4.7050      1.6800     78.3900
    302     -0.6960      6.1010     -3.9330      1.7700     78.3900
    303     -0.8710      6.9120     -2.8180      1.6800     78.3900
    304     -1.0700      8.1040     -3.3270      1.7700     78.3900
    305     -1.1970      9.0230     -2.7520      0.0100     78.3900
    306     -0.3520      4.2160     -5.3290      1.6800     78.3900
    307     -0.4890      5.0540     -6.3600      1.7700     78.3900
    308     -0.4050      4.5920     -7.3500      0.0100     78.3900
    309     -0.6830      6.3770     -6.3570      1.6800     78.3900
    310     -0.8070      6.8420     -5.1020      1.7700     78.3900
    311     -0.4410      4.7180     -4.0710      1.7700     78.3900
    312     -0.2630      3.8750     -3.0370      1.6800     78.3900
    313     -0.2680      4.2050     -2.0880      0.0100     78.3900
    314      0.0330      2.9370     -3.2170      0.0100     78.3900
    315     -2.2310      9.2120     -6.6870      1.7700     78.3900
    316     -2.3980      8.1600     -6.9980      0.0100     78.3900
    317     -1.7430      9.9450     -7.7950      1.5900     78.3900
    318     -2.4620      9.9980     -8.4470      0.0100     78.3900
    319     -3.5320      9.8020     -6.1300      1.7700     78.3900
    320     -4.0920      8.9940     -5.6040      0.0100     78.3900
    321     -4.3380     10.4750     -7.1150      1.5900     78.3900
    322     -5.7500     10.0070     -7.5990      2.1000     78.3900
    323     -5.9920     10.5920     -8.9420      1.5900     78.3900
    324     -6.7420     10.3190     -6.5510      1.5900     78.3900
    325     -5.6040      8.4390     -7.7070      1.5900     78.3900
    326     -6.1320      7.7040     -8.8420      1.7700     78.3900
    327     -6.6460      8.3520     -9.5890      0.0100     78.3900
    328     -6.9280      7.0250     -8.4580      0.0100     78.3900
    329     -5.1100      6.8490     -9.6360      1.7700     78.3900
    330     -4.8900      7.3290    -10.6160      0.0100     78.3900
    331     -3.8240      6.7120     -8.9500      1.5900     78.3900
    332     -3.5100      5.3400     -8.7760      1.7700     78.3900
    333     -2.4250      5.2500     -9.0100      0.0100     78.3900
    334     -3.7370      4.8810     -7.3590      1.6800     78.3900
    335     -4.0250      5.7990     -6.3620      1.7700     78.3900
    336     -4.2000      6.8220     -6.6980      0.0100     78.3900
    337     -3.4450      3.5730     -7.0200      1.7700     78.3900
    338     -3.0690      2.7370     -7.8330      1.5900     78.3900
    339     -3.5810      3.2710     -5.6920      1.6800     78.3900
    340     -3.2710      2.3450     -5.4230      0.0100     78.3900
    341     -3.7720      4.1440     -4.6490      1.7700     78.3900
    342     -3.7010      3.7430     -3.4870      1.5900     78.3900
    343     -4.0460      5.4860     -5.0560      1.7700     78.3900
    344     -4.2160      6.2340     -4.2850      0.0100     78.3900
    345     -4.3120      4.5870     -9.8280      1.7700     78.3900
    346     -4.5380      3.5420     -9.5320      0.0100     78.3900
    347     -3.6270      4.5890    -11.0720      1.5900     78.3900
    348     -3.4700      5.5120    -11.3340      0.0100     78.3900
    349     -5.5940      5.4070     -9.8690      1.7700     78.3900
    350     -6.2410      5.1170     -9.0130      0.0100     78.3900
    351     -6.3300      5.3260    -11.1040      1.5900     78.3900
    352     -6.4840      4.3920    -11.3290      0.0100     78.3900

     ----------------------------
     INPUT FOR TESSERA DEFINITION
     ----------------------------
     NTSALL  =        60     MTHALL  =         4
     MTHAUT  =         0     AUTFRE  =    2.0000
     NTSFRZ  =        60     KEEPSM  =         0
     AREAKP  =   10.0000     BONDRY  =    1.0000
     AREATL  =    0.0100

     SPHERE     INITS       METHOD
          1        60       FIXPVA
          2        60       FIXPVA
          3        60       FIXPVA
          4        60       FIXPVA
          5        60       FIXPVA
          6        60       FIXPVA
          7        60       FIXPVA
          8        60       FIXPVA
          9        60       FIXPVA
         10        60       FIXPVA
         11        60       FIXPVA
         12        60       FIXPVA
         13        60       FIXPVA
         14        60       FIXPVA
         15        60       FIXPVA
         16        60       FIXPVA
         17        60       FIXPVA
         18        60       FIXPVA
         19        60       FIXPVA
         20        60       FIXPVA
         21        60       FIXPVA
         22        60       FIXPVA
         23        60       FIXPVA
         24        60       FIXPVA
         25        60       FIXPVA
         26        60       FIXPVA
         27        60       FIXPVA
         28        60       FIXPVA
         29        60       FIXPVA
         30        60       FIXPVA
         31        60       FIXPVA
         32        60       FIXPVA
         33        60       FIXPVA
         34        60       FIXPVA
         35        60       FIXPVA
         36        60       FIXPVA
         37        60       FIXPVA
         38        60       FIXPVA
         39        60       FIXPVA
         40        60       FIXPVA
         41        60       FIXPVA
         42        60       FIXPVA
         43        60       FIXPVA
         44        60       FIXPVA
         45        60       FIXPVA
         46        60       FIXPVA
         47        60       FIXPVA
         48        60       FIXPVA
         49        60       FIXPVA
         50        60       FIXPVA
         51        60       FIXPVA
         52        60       FIXPVA
         53        60       FIXPVA
         54        60       FIXPVA
         55        60       FIXPVA
         56        60       FIXPVA
         57        60       FIXPVA
         58        60       FIXPVA
         59        60       FIXPVA
         60        60       FIXPVA
         61        60       FIXPVA
         62        60       FIXPVA
         63        60       FIXPVA
         64        60       FIXPVA
         65        60       FIXPVA
         66        60       FIXPVA
         67        60       FIXPVA
         68        60       FIXPVA
         69        60       FIXPVA
         70        60       FIXPVA
         71        60       FIXPVA
         72        60       FIXPVA
         73        60       FIXPVA
         74        60       FIXPVA
         75        60       FIXPVA
         76        60       FIXPVA
         77        60       FIXPVA
         78        60       FIXPVA
         79        60       FIXPVA
         80        60       FIXPVA
         81        60       FIXPVA
         82        60       FIXPVA
         83        60       FIXPVA
         84        60       FIXPVA
         85        60       FIXPVA
         86        60       FIXPVA
         87        60       FIXPVA
         88        60       FIXPVA
         89        60       FIXPVA
         90        60       FIXPVA
         91        60       FIXPVA
         92        60       FIXPVA
         93        60       FIXPVA
         94        60       FIXPVA
         95        60       FIXPVA
         96        60       FIXPVA
         97        60       FIXPVA
         98        60       FIXPVA
         99        60       FIXPVA
        100        60       FIXPVA
        101        60       FIXPVA
        102        60       FIXPVA
        103        60       FIXPVA
        104        60       FIXPVA
        105        60       FIXPVA
        106        60       FIXPVA
        107        60       FIXPVA
        108        60       FIXPVA
        109        60       FIXPVA
        110        60       FIXPVA
        111        60       FIXPVA
        112        60       FIXPVA
        113        60       FIXPVA
        114        60       FIXPVA
        115        60       FIXPVA
        116        60       FIXPVA
        117        60       FIXPVA
        118        60       FIXPVA
        119        60       FIXPVA
        120        60       FIXPVA
        121        60       FIXPVA
        122        60       FIXPVA
        123        60       FIXPVA
        124        60       FIXPVA
        125        60       FIXPVA
        126        60       FIXPVA
        127        60       FIXPVA
        128        60       FIXPVA
        129        60       FIXPVA
        130        60       FIXPVA
        131        60       FIXPVA
        132        60       FIXPVA
        133        60       FIXPVA
        134        60       FIXPVA
        135        60       FIXPVA
        136        60       FIXPVA
        137        60       FIXPVA
        138        60       FIXPVA
        139        60       FIXPVA
        140        60       FIXPVA
        141        60       FIXPVA
        142        60       FIXPVA
        143        60       FIXPVA
        144        60       FIXPVA
        145        60       FIXPVA
        146        60       FIXPVA
        147        60       FIXPVA
        148        60       FIXPVA
        149        60       FIXPVA
        150        60       FIXPVA
        151        60       FIXPVA
        152        60       FIXPVA
        153        60       FIXPVA
        154        60       FIXPVA
        155        60       FIXPVA
        156        60       FIXPVA
        157        60       FIXPVA
        158        60       FIXPVA
        159        60       FIXPVA
        160        60       FIXPVA
        161        60       FIXPVA
        162        60       FIXPVA
        163        60       FIXPVA
        164        60       FIXPVA
        165        60       FIXPVA
        166        60       FIXPVA
        167        60       FIXPVA
        168        60       FIXPVA
        169        60       FIXPVA
        170        60       FIXPVA
        171        60       FIXPVA
        172        60       FIXPVA
        173        60       FIXPVA
        174        60       FIXPVA
        175        60       FIXPVA
        176        60       FIXPVA
        177        60       FIXPVA
        178        60       FIXPVA
        179        60       FIXPVA
        180        60       FIXPVA
        181        60       FIXPVA
        182        60       FIXPVA
        183        60       FIXPVA
        184        60       FIXPVA
        185        60       FIXPVA
        186        60       FIXPVA
        187        60       FIXPVA
        188        60       FIXPVA
        189        60       FIXPVA
        190        60       FIXPVA
        191        60       FIXPVA
        192        60       FIXPVA
        193        60       FIXPVA
        194        60       FIXPVA
        195        60       FIXPVA
        196        60       FIXPVA
        197        60       FIXPVA
        198        60       FIXPVA
        199        60       FIXPVA
        200        60       FIXPVA
        201        60       FIXPVA
        202        60       FIXPVA
        203        60       FIXPVA
        204        60       FIXPVA
        205        60       FIXPVA
        206        60       FIXPVA
        207        60       FIXPVA
        208        60       FIXPVA
        209        60       FIXPVA
        210        60       FIXPVA
        211        60       FIXPVA
        212        60       FIXPVA
        213        60       FIXPVA
        214        60       FIXPVA
        215        60       FIXPVA
        216        60       FIXPVA
        217        60       FIXPVA
        218        60       FIXPVA
        219        60       FIXPVA
        220        60       FIXPVA
        221        60       FIXPVA
        222        60       FIXPVA
        223        60       FIXPVA
        224        60       FIXPVA
        225        60       FIXPVA
        226        60       FIXPVA
        227        60       FIXPVA
        228        60       FIXPVA
        229        60       FIXPVA
        230        60       FIXPVA
        231        60       FIXPVA
        232        60       FIXPVA
        233        60       FIXPVA
        234        60       FIXPVA
        235        60       FIXPVA
        236        60       FIXPVA
        237        60       FIXPVA
        238        60       FIXPVA
        239        60       FIXPVA
        240        60       FIXPVA
        241        60       FIXPVA
        242        60       FIXPVA
        243        60       FIXPVA
        244        60       FIXPVA
        245        60       FIXPVA
        246        60       FIXPVA
        247        60       FIXPVA
        248        60       FIXPVA
        249        60       FIXPVA
        250        60       FIXPVA
        251        60       FIXPVA
        252        60       FIXPVA
        253        60       FIXPVA
        254        60       FIXPVA
        255        60       FIXPVA
        256        60       FIXPVA
        257        60       FIXPVA
        258        60       FIXPVA
        259        60       FIXPVA
        260        60       FIXPVA
        261        60       FIXPVA
        262        60       FIXPVA
        263        60       FIXPVA
        264        60       FIXPVA
        265        60       FIXPVA
        266        60       FIXPVA
        267        60       FIXPVA
        268        60       FIXPVA
        269        60       FIXPVA
        270        60       FIXPVA
        271        60       FIXPVA
        272        60       FIXPVA
        273        60       FIXPVA
        274        60       FIXPVA
        275        60       FIXPVA
        276        60       FIXPVA
        277        60       FIXPVA
        278        60       FIXPVA
        279        60       FIXPVA
        280        60       FIXPVA
        281        60       FIXPVA
        282        60       FIXPVA
        283        60       FIXPVA
        284        60       FIXPVA
        285        60       FIXPVA
        286        60       FIXPVA
        287        60       FIXPVA
        288        60       FIXPVA
        289        60       FIXPVA
        290        60       FIXPVA
        291        60       FIXPVA
        292        60       FIXPVA
        293        60       FIXPVA
        294        60       FIXPVA
        295        60       FIXPVA
        296        60       FIXPVA
        297        60       FIXPVA
        298        60       FIXPVA
        299        60       FIXPVA
        300        60       FIXPVA
        301        60       FIXPVA
        302        60       FIXPVA
        303        60       FIXPVA
        304        60       FIXPVA
        305        60       FIXPVA
        306        60       FIXPVA
        307        60       FIXPVA
        308        60       FIXPVA
        309        60       FIXPVA
        310        60       FIXPVA
        311        60       FIXPVA
        312        60       FIXPVA
        313        60       FIXPVA
        314        60       FIXPVA
        315        60       FIXPVA
        316        60       FIXPVA
        317        60       FIXPVA
        318        60       FIXPVA
        319        60       FIXPVA
        320        60       FIXPVA
        321        60       FIXPVA
        322        60       FIXPVA
        323        60       FIXPVA
        324        60       FIXPVA
        325        60       FIXPVA
        326        60       FIXPVA
        327        60       FIXPVA
        328        60       FIXPVA
        329        60       FIXPVA
        330        60       FIXPVA
        331        60       FIXPVA
        332        60       FIXPVA
        333        60       FIXPVA
        334        60       FIXPVA
        335        60       FIXPVA
        336        60       FIXPVA
        337        60       FIXPVA
        338        60       FIXPVA
        339        60       FIXPVA
        340        60       FIXPVA
        341        60       FIXPVA
        342        60       FIXPVA
        343        60       FIXPVA
        344        60       FIXPVA
        345        60       FIXPVA
        346        60       FIXPVA
        347        60       FIXPVA
        348        60       FIXPVA
        349        60       FIXPVA
        350        60       FIXPVA
        351        60       FIXPVA
        352        60       FIXPVA

     ------------------------------
      FIXPVA TESSELLATION FOR PCM
         PEIFENG SU AND HUI LI
     UNIVERSITY OF NEBRASKA-LINCOLN
     ------------------------------


 PCM DIMENSIONS: MXSP=   352, MXTS=     14080, MEMORY=        144675

     INPUT FOR CAVITY DEFINITION 
     ---------------------------
   ATOM               COORDINATES                RADIUS       EPS
      1      0.3420     -6.6360     -1.4980      0.0100     78.3900
      2     -0.1090     -6.1210     -2.1930      1.5900     78.3900
      3      0.4440     -6.5510     -3.4500      1.7700     78.3900
      4      0.5020     -7.6610     -3.4490      0.0100     78.3900
      5      1.4890     -6.1710     -3.5130      0.0100     78.3900
      6     -0.3200     -6.1030     -4.7220      1.7700     78.3900
      7     -0.5210     -6.9700     -5.3860      0.0100     78.3900
      8     -1.6220     -5.5270     -4.3820      1.5900     78.3900
      9     -1.8280     -4.3270     -5.1020      1.7700     78.3900
     10     -2.8230     -4.4340     -5.5940      0.0100     78.3900
     11     -1.8960     -3.1630     -4.2100      1.6800     78.3900
     12     -2.2450     -1.1380     -3.4210      1.7700     78.3900
     13     -1.9570     -1.9360     -2.3190      1.6800     78.3900
     14     -1.7650     -3.1290     -2.8390      1.7700     78.3900
     15     -1.5040     -4.0310     -2.2790      0.0100     78.3900
     16     -2.8120      0.6970     -4.8030      1.6800     78.3900
     17     -2.7250     -0.1440     -5.8350      1.7700     78.3900
     18     -2.9090      0.3010     -6.8190      0.0100     78.3900
     19     -2.4460     -1.4460     -5.8350      1.6800     78.3900
     20     -2.2120     -1.8860     -4.5880      1.7700     78.3900
     21     -2.5750      0.2290     -3.5530      1.7700     78.3900
     22     -2.6770      1.0950     -2.5290      1.6800     78.3900
     23     -2.5400      0.8110     -1.5730      0.0100     78.3900
     24     -2.9480      2.0410     -2.7230      0.0100     78.3900
     25     -0.7560     -4.2240     -6.1660      1.7700     78.3900
     26     -0.4410     -3.1770     -6.3640      0.0100     78.3900
     27     -1.2180     -4.8090     -7.3680      1.5900     78.3900
     28     -0.4680     -4.8030     -7.9820      0.0100     78.3900
     29      0.3910     -5.0200     -5.5550      1.7700     78.3900
     30      0.9340     -4.3780     -4.8250      0.0100     78.3900
     31      1.2570     -5.6380     -6.5360      1.5900     78.3900
     32      2.7540     -5.2210     -6.7300      2.1000     78.3900
     33      3.4370     -6.2480     -7.5490      1.5900     78.3900
     34      3.3430     -4.9470     -5.4030      1.5900     78.3900
     35      2.6790     -3.8810     -7.5470      1.5900     78.3900
     36      2.5390     -3.8850     -8.9920      1.7700     78.3900
     37      2.0090     -4.7970     -9.3600      0.0100     78.3900
     38      3.5470     -3.8830     -9.4640      0.0100     78.3900
     39      1.7660     -2.6600     -9.5250      1.7700     78.3900
     40      1.3110     -2.8960    -10.5130      0.0100     78.3900
     41      0.6780     -2.3060     -8.6270      1.5900     78.3900
     42      0.5250     -0.8980     -8.5890      1.7700     78.3900
     43     -0.5280     -0.7280     -8.9190      0.0100     78.3900
     44      0.7320     -0.3400     -7.2200      1.6800     78.3900
     45      1.3350     -1.0740     -6.2190      1.7700     78.3900
     46      1.7010     -2.0570     -6.5170      0.0100     78.3900
     47      0.2590      0.9290     -6.9720      1.7700     78.3900
     48     -0.2930      1.6110     -7.8330      1.5900     78.3900
     49      0.4170      1.3690     -5.6870      1.6800     78.3900
     50      0.0500      2.2950     -5.5100      0.0100     78.3900
     51      0.9360      0.6660     -4.6200      1.7700     78.3900
     52      0.9350      1.1680     -3.4980      1.5900     78.3900
     53      1.4350     -0.6370     -4.9550      1.7700     78.3900
     54      1.8730     -1.2500     -4.1700      0.0100     78.3900
     55      1.4770     -0.3000     -9.6090      1.7700     78.3900
     56      1.9000      0.6710     -9.2680      0.0100     78.3900
     57      0.8230     -0.1260    -10.8540      1.5900     78.3900
     58      1.5140      0.1200    -11.5050      0.0100     78.3900
     59      2.5720     -1.3640     -9.6910      1.7700     78.3900
     60      3.2460     -1.2960     -8.8090      0.0100     78.3900
     61      3.3290     -1.4130    -10.9210      1.5900     78.3900
     62      3.9720     -0.1290    -11.5580      2.1000     78.3900
     63      2.9420      0.5120    -12.4020      1.5900     78.3900
     64      5.2300     -0.5420    -12.2270      1.5900     78.3900
     65      4.3190      0.7890    -10.3260      1.5900     78.3900
     66      5.0660      2.0180    -10.4830      1.7700     78.3900
     67      5.3230      2.2430    -11.5470      0.0100     78.3900
     68      6.0340      1.8980     -9.9490      0.0100     78.3900
     69      4.3270      3.2510     -9.9080      1.7700     78.3900
     70      3.6210      3.6560    -10.6680      0.0100     78.3900
     71      3.5690      2.9320     -8.7010      1.5900     78.3900
     72      4.2670      3.3920     -7.5470      1.7700     78.3900
     73      3.6430      4.2080     -7.1250      0.0100     78.3900
     74      4.4440      2.3260     -6.5560      1.6800     78.3900
     75      4.6580      2.4830     -5.2090      1.7700     78.3900
     76      5.2150      4.5390     -2.4900      1.6800     78.3900
     77      5.6500      4.4360     -1.5930      0.0100     78.3900
     78      5.1820      5.4290     -2.9370      0.0100     78.3900
     79      4.7320      3.6510     -4.5480      1.6800     78.3900
     80      5.0460      3.4910     -3.2710      1.7700     78.3900
     81      5.2160      2.2660     -2.6820      1.6800     78.3900
     82      5.4210      2.2330     -1.6980      0.0100     78.3900
     83      5.1110      1.0410     -3.3310      1.7700     78.3900
     84      5.2800     -0.0270     -2.7310      1.5900     78.3900
     85      4.8030      1.2030     -4.7100      1.7700     78.3900
     86      4.6730      0.2560     -5.7240      1.6800     78.3900
     87      4.4710      0.9730     -6.8040      1.7700     78.3900
     88      4.3180      0.5840     -7.8140      0.0100     78.3900
     89      5.6010      3.9460     -7.9980      1.7700     78.3900
     90      6.3900      3.1630     -7.9690      0.0100     78.3900
     91      5.9990      5.0620     -7.2340      1.5900     78.3900
     92      5.4600      5.8090     -7.5320      0.0100     78.3900
     93      5.3170      4.3330     -9.4460      1.7700     78.3900
     94      6.2560      4.1550    -10.0250      0.0100     78.3900
     95      4.7860      5.6760     -9.6320      1.5900     78.3900
     96      5.6970      6.7380    -10.3720      2.1000     78.3900
     97      4.8530      7.8730    -10.8070      1.5900     78.3900
     98      6.4810      6.0670    -11.4260      1.5900     78.3900
     99      6.6410      7.2060     -9.2090      1.5900     78.3900
    100      7.9650      7.7440     -9.4230      1.7700     78.3900
    101      8.2910      7.6980    -10.4880      0.0100     78.3900
    102      8.6730      7.1010     -8.8580      0.0100     78.3900
    103      8.1650      9.1940     -8.9110      1.7700     78.3900
    104      8.1270      9.9070     -9.7630      0.0100     78.3900
    105      7.0950      9.5920     -7.9950      1.5900     78.3900
    106      7.6540     10.2300     -6.8610      1.7700     78.3900
    107      7.0680     11.1620     -6.6880      0.0100     78.3900
    108      7.5650      9.3670     -5.6760      1.6800     78.3900
    109      7.8230      9.7490     -4.3900      1.7700     78.3900
    110      8.7660     12.1790     -2.1190      1.6800     78.3900
    111      8.8010     13.0060     -2.6860      0.0100     78.3900
    112      8.8090     12.2760     -1.1210      0.0100     78.3900
    113      8.2000     10.9780     -3.9940      1.6800     78.3900
    114      8.4090     11.0410     -2.6850      1.7700     78.3900
    115      8.2820      9.9640     -1.8480      1.6800     78.3900
    116      8.3980     10.1130     -0.8580      0.0100     78.3900
    117      7.8880      8.6860     -2.2310      1.7700     78.3900
    118      7.7790      7.7700     -1.4100      1.5900     78.3900
    119      7.6430      8.6160     -3.6240      1.7700     78.3900
    120      7.2520      7.5410     -4.4120      1.6800     78.3900
    121      7.2150      8.0320     -5.6270      1.7700     78.3900
    122      6.9440      7.4770     -6.5300      0.0100     78.3900
    123      9.0880     10.5780     -7.2010      1.7700     78.3900
    124      9.7490     10.6200     -6.3070      0.0100     78.3900
    125      9.1410     11.8130     -7.8900      1.5900     78.3900
    126     10.0390     11.9110     -8.2400      0.0100     78.3900
    127      9.4650      9.4170     -8.1070      1.7700     78.3900
    128      9.6250      8.4950     -7.4960      0.0100     78.3900
    129     10.5580      9.7060     -9.0040      1.5900     78.3900
    130     12.0140      9.2090     -8.6680      2.1000     78.3900
    131     12.9030      9.5730     -9.8000      1.5900     78.3900
    132     11.9650      7.7810     -8.3080      1.5900     78.3900
    133     12.4290     10.0250     -7.3870      1.5900     78.3900
    134     13.2450     11.2130     -7.5090      1.7700     78.3900
    135     12.7450     11.9600     -8.1680      0.0100     78.3900
    136     14.2370     10.9690     -7.9590      0.0100     78.3900
    137     13.5050     11.8920     -6.1520      1.7700     78.3900
    138     13.8210     12.9450     -6.2990      0.0100     78.3900
    139     12.2980     11.9050     -5.3310      1.5900     78.3900
    140     12.6600     11.7140     -3.9740      1.7700     78.3900
    141     12.2260     12.5660     -3.4000      0.0100     78.3900
    142     12.1250     10.4520     -3.4570      1.6800     78.3900
    143     11.4760      8.8410     -2.1100      1.7700     78.3900
    144     11.2530      8.3790     -3.4010      1.6800     78.3900
    145     11.6520      9.3690     -4.1630      1.7700     78.3900
    146     11.6260      9.3760     -5.2550      0.0100     78.3900
    147     11.6240      8.9910      0.2490      1.6800     78.3900
    148     12.1030     10.2250      0.0630      1.7700     78.3900
    149     12.3590     10.7740      0.9760      0.0100     78.3900
    150     12.3460     10.8730     -1.0790      1.6800     78.3900
    151     12.0080     10.1180     -2.1350      1.7700     78.3900
    152     11.2820      8.2560     -0.8410      1.7700     78.3900
    153     10.7850      7.0200     -0.6580      1.6800     78.3900
    154     10.5000      6.4400     -1.4250      0.0100     78.3900
    155     10.6280      6.6980      0.2770      0.0100     78.3900
    156     14.1760     11.7620     -3.8920      1.7700     78.3900
    157     14.5750     11.1130     -3.0820      0.0100     78.3900
    158     14.6090     13.1000     -3.6900      1.5900     78.3900
    159     15.5710     13.1460     -3.8370      0.0100     78.3900
    160     14.5680     11.2240     -5.2650      1.7700     78.3900
    161     14.4250     10.1200     -5.3200      0.0100     78.3900
    162     15.8950     11.5970     -5.6800      1.5900     78.3900
    163     16.5660     11.1520     -5.1250      0.0100     78.3900
    164      9.0930      8.6600      9.7590      0.0100     78.3900
    165      9.6330      9.0360      9.0370      1.5900     78.3900
    166     10.6530      9.8430      9.6540      1.7700     78.3900
    167     11.1860      9.2370     10.4180      0.0100     78.3900
    168     10.1730     10.6870     10.1860      0.0100     78.3900
    169     11.6930     10.4310      8.6830      1.7700     78.3900
    170     12.5810     10.8010      9.2360      0.0100     78.3900
    171     12.1400      9.4150      7.7480      1.5900     78.3900
    172     12.3370      9.9640      6.4570      1.7700     78.3900
    173     13.4440      9.9570      6.3320      0.0100     78.3900
    174     11.7370      9.1170      5.3720      1.6800     78.3900
    175     11.1070      7.9220      5.6760      1.7700     78.3900
    176     10.9660      7.7100      6.7390      0.0100     78.3900
    177     11.9860      9.4520      4.0540      1.7700     78.3900
    178     12.6420     10.4340      3.7230      1.5900     78.3900
    179     11.4720      8.5820      3.1250      1.6800     78.3900
    180     11.6370      8.8020      2.1510      0.0100     78.3900
    181     10.9100      7.3500      3.3570      1.7700     78.3900
    182     10.6320      6.6110      2.4130      1.5900     78.3900
    183     10.6970      7.0530      4.7380      1.7700     78.3900
    184     10.2430      6.1000      4.9970      0.0100     78.3900
    185     11.8590     11.4190      6.4670      1.7700     78.3900
    186     11.1360     11.6250      5.6480      0.0100     78.3900
    187     12.9660     12.2930      6.3530      1.5900     78.3900
    188     12.6510     13.1760      6.5960      0.0100     78.3900
    189     11.1500     11.5690      7.8210      1.7700     78.3900
    190     10.0690     11.3300      7.6760      0.0100     78.3900
    191     11.3590     12.8410      8.4840      1.5900     78.3900
    192     10.1950     13.8750      8.6820      2.1000     78.3900
    193     10.8050     15.1900      8.9870      1.5900     78.3900
    194      9.2240     13.3480      9.6660      1.5900     78.3900
    195      9.5390     13.9430      7.2560      1.5900     78.3900
    196     10.1020     14.8350      6.2630      1.7700     78.3900
    197     11.1810     14.6210      6.0750      0.0100     78.3900
    198     10.0230     15.8950      6.6020      0.0100     78.3900
    199      9.3450     14.7270      4.9350      1.7700     78.3900
    200      9.6260     15.5560      4.2500      0.0100     78.3900
    201      9.6930     13.4950      4.2650      1.5900     78.3900
    202      8.7310     13.3060      3.2580      1.7700     78.3900
    203      9.0480     13.9950      2.4410      0.0100     78.3900
    204      8.6610     11.9100      2.7890      1.6800     78.3900
    205      8.5440     10.8970      3.7070      1.7700     78.3900
    206      8.5960     11.1920      4.7600      0.0100     78.3900
    207      8.4130      9.6210      3.3120      1.7700     78.3900
    208      8.3230      8.7990      4.0170      0.0100     78.3900
    209      8.6180     11.6340      1.4260      1.7700     78.3900
    210      8.6850     12.5630      0.6140      1.5900     78.3900
    211      8.5040     10.3530      1.0140      1.6800     78.3900
    212      8.3720      9.3640      1.9070      1.7700     78.3900
    213      8.1650      8.1280      1.4530      1.6800     78.3900
    214      8.1720      7.9770      0.4620      0.0100     78.3900
    215      8.0710      7.3390      2.0630      0.0100     78.3900
    216      7.4010     13.7890      3.8100      1.7700     78.3900
    217      6.7830     12.9400      4.1820      0.0100     78.3900
    218      6.6740     14.5160      2.8370      1.5900     78.3900
    219      5.8570     14.8250      3.2670      0.0100     78.3900
    220      7.8160     14.6560      5.0200      1.7700     78.3900
    221      7.5910     14.0640      5.9360      0.0100     78.3900
    222      7.2430     15.9740      5.1110      1.5900     78.3900
    223      5.8100     16.2130      5.7130      2.1000     78.3900
    224      5.2160     17.3820      5.0240      1.5900     78.3900
    225      5.9190     16.3090      7.1860      1.5900     78.3900
    226      5.0000     14.8930      5.3760      1.5900     78.3900
    227      3.5510     14.8730      5.4730      1.7700     78.3900
    228      3.1680     15.5480      6.2790      0.0100     78.3900
    229      3.2470     13.8470      5.7810      0.0100     78.3900
    230      2.8150     15.1820      4.1420      1.7700     78.3900
    231      2.3960     16.2080      4.1700      0.0100     78.3900
    232      3.7590     15.1730      3.0170      1.5900     78.3900
    233      3.1860     14.5300      1.9030      1.7700     78.3900
    234      3.3370     15.2020      1.0250      0.0100     78.3900
    235      3.8370     13.2360      1.6670      1.6800     78.3900
    236      4.6800     11.4360      0.7350      1.7700     78.3900
    237      4.8640     11.2810      2.1020      1.6800     78.3900
    238      4.3490     12.3720      2.6090      1.7700     78.3900
    239      4.3230     12.6120      3.6760      0.0100     78.3900
    240      4.6780     11.0580     -1.5990      1.6800     78.3900
    241      4.0440     12.2290     -1.7110      1.7700     78.3900
    242      3.8020     12.5330     -2.7360      0.0100     78.3900
    243      3.6940     13.0980     -0.7520      1.6800     78.3900
    244      4.0540     12.6380      0.4550      1.7700     78.3900
    245      4.9960     10.6120     -0.3610      1.7700     78.3900
    246      5.5650      9.4070     -0.2180      1.6800     78.3900
    247      5.8510      9.0670      0.6770      0.0100     78.3900
    248      5.7390      8.8480     -1.0260      0.0100     78.3900
    249      1.7140     14.3770      2.1860      1.7700     78.3900
    250      1.3050     13.4960      1.6710      0.0100     78.3900
    251      0.9990     15.5290      1.7790      1.5900     78.3900
    252      0.1290     15.4940      2.2070      0.0100     78.3900
    253      1.7000     14.2010      3.7010      1.7700     78.3900
    254      2.0420     13.1740      3.9700      0.0100     78.3900
    255      0.4370     14.5510      4.3050      1.5900     78.3900
    256     -0.5190     13.4720      4.9390      2.1000     78.3900
    257     -1.7820     14.1430      5.3090      1.5900     78.3900
    258      0.2010     12.7820      6.0330      1.5900     78.3900
    259     -0.8140     12.4380      3.7950      1.5900     78.3900
    260     -1.7420     12.6650      2.7040      1.7700     78.3900
    261     -2.1520     13.7060      2.7020      0.0100     78.3900
    262     -2.6130     11.9870      2.8570      0.0100     78.3900
    263     -1.1520     12.3610      1.2950      1.7700     78.3900
    264     -0.8750     13.3130      0.7920      0.0100     78.3900
    265      0.0650     11.5890      1.4080      1.5900     78.3900
    266      0.4090     11.1040      0.1490      1.7700     78.3900
    267      0.9540     11.9320     -0.3600      0.0100     78.3900
    268      1.2730      9.9350      0.2670      1.6800     78.3900
    269      2.5160      8.1780     -0.1320      1.7700     78.3900
    270      2.4480      8.2900      1.2540      1.6800     78.3900
    271      1.7040      9.3480      1.4360      1.7700     78.3900
    272      1.4330      9.7630      2.4130      0.0100     78.3900
    273      3.0040      7.3790     -2.3060      1.6800     78.3900
    274      2.3170      8.4300     -2.7560      1.7700     78.3900
    275      2.2360      8.4890     -3.8460      0.0100     78.3900
    276      1.6900      9.3950     -2.0770      1.6800     78.3900
    277      1.8160      9.1950     -0.7530      1.7700     78.3900
    278      3.1290      7.2280     -0.9660      1.7700     78.3900
    279      3.7940      6.1720     -0.4800      1.6800     78.3900
    280      3.8510      5.9920      0.5040      0.0100     78.3900
    281      4.0650      5.4640     -1.1270      0.0100     78.3900
    282     -0.8950     10.8060     -0.5630      1.7700     78.3900
    283     -1.1070      9.7170     -0.6010      0.0100     78.3900
    284     -0.8010     11.3370     -1.8670      1.5900     78.3900
    285     -1.6660     11.2800     -2.3170      0.0100     78.3900
    286     -1.9700     11.5000      0.3180      1.7700     78.3900
    287     -2.4480     10.7220      0.9620      0.0100     78.3900
    288     -2.9730     12.2820     -0.3690      1.5900     78.3900
    289     -4.0780     11.5960     -1.2610      2.1000     78.3900
    290     -5.2650     12.4770     -1.2760      1.5900     78.3900
    291     -4.2860     10.2100     -0.7930      1.5900     78.3900
    292     -3.4200     11.5830     -2.7020      1.5900     78.3900
    293     -3.9210     10.6900     -3.7300      1.7700     78.3900
    294     -4.9810     10.9320     -3.9750      0.0100     78.3900
    295     -3.8830      9.6290     -3.3830      0.0100     78.3900
    296     -3.0920     10.7920     -5.0300      1.7700     78.3900
    297     -3.0920     11.8320     -5.4250      0.0100     78.3900
    298     -1.7130     10.4360     -4.7260      1.5900     78.3900
    299     -1.2650      9.3530     -5.5230      1.7700     78.3900
    300     -0.2660      9.6630     -5.9090      0.0100     78.3900
    301     -1.0860      8.1330     -4.7050      1.6800     78.3900
    302     -0.6960      6.1010     -3.9330      1.7700     78.3900
    303     -0.8710      6.9120     -2.8180      1.6800     78.3900
    304     -1.0700      8.1040     -3.3270      1.7700     78.3900
    305     -1.1970      9.0230     -2.7520      0.0100     78.3900
    306     -0.3520      4.2160     -5.3290      1.6800     78.3900
    307     -0.4890      5.0540     -6.3600      1.7700     78.3900
    308     -0.4050      4.5920     -7.3500      0.0100     78.3900
    309     -0.6830      6.3770     -6.3570      1.6800     78.3900
    310     -0.8070      6.8420     -5.1020      1.7700     78.3900
    311     -0.4410      4.7180     -4.0710      1.7700     78.3900
    312     -0.2630      3.8750     -3.0370      1.6800     78.3900
    313     -0.2680      4.2050     -2.0880      0.0100     78.3900
    314      0.0330      2.9370     -3.2170      0.0100     78.3900
    315     -2.2310      9.2120     -6.6870      1.7700     78.3900
    316     -2.3980      8.1600     -6.9980      0.0100     78.3900
    317     -1.7430      9.9450     -7.7950      1.5900     78.3900
    318     -2.4620      9.9980     -8.4470      0.0100     78.3900
    319     -3.5320      9.8020     -6.1300      1.7700     78.3900
    320     -4.0920      8.9940     -5.6040      0.0100     78.3900
    321     -4.3380     10.4750     -7.1150      1.5900     78.3900
    322     -5.7500     10.0070     -7.5990      2.1000     78.3900
    323     -5.9920     10.5920     -8.9420      1.5900     78.3900
    324     -6.7420     10.3190     -6.5510      1.5900     78.3900
[...]

 SYMMETRIES FOR INITIAL GUESS ORBITALS FOLLOW.   BOTH SET(S).
    85 ORBITALS ARE OCCUPIED (   26 CORE ORBITALS).
    27=A       28=A       29=A       30=A       31=A       32=A       33=A   
    34=A       35=A       36=A       37=A       38=A       39=A       40=A   
    41=A       42=A       43=A       44=A       45=A       46=A       47=A   
    48=A       49=A       50=A       51=A       52=A       53=A       54=A   
    55=A       56=A       57=A       58=A       59=A       60=A       61=A   
    62=A       63=A       64=A       65=A       66=A       67=A       68=A   
    69=A       70=A       71=A       72=A       73=A       74=A       75=A   
    76=A       77=A       78=A       79=A       80=A       81=A       82=A   
    83=A       84=A       85=A       86=A       87=A       88=A       89=A   
    90=A       91=A       92=A       93=A       94=A       95=A   
 ...... END OF INITIAL ORBITAL SELECTION ......
 CPU     0: STEP CPU TIME=     0.21 TOTAL CPU TIME=          0.5 (      0.0 MIN)
 TOTAL WALL CLOCK TIME=          1.2 SECONDS, CPU UTILIZATION IS    42.74%

 Running initial guess for monomer       9


          -------------
          GUESS OPTIONS
          -------------
          GUESS =HUCKEL            NORB  =       0          NORDER=       0
          MIX   =       F          PRTMO =       F          PUNMO =       F
          TOLZ  = 1.0E-08          TOLE  = 1.0E-05
          SYMDEN=       F          PURIFY=       F

 INITIAL GUESS ORBITALS GENERATED BY HUCKEL   ROUTINE.
 HUCKEL GUESS REQUIRES   1086374 WORDS.

 SYMMETRIES FOR INITIAL GUESS ORBITALS FOLLOW.   BOTH SET(S).
    85 ORBITALS ARE OCCUPIED (   26 CORE ORBITALS).
    27=A       28=A       29=A       30=A       31=A       32=A       33=A   
    34=A       35=A       36=A       37=A       38=A       39=A       40=A   
    41=A       42=A       43=A       44=A       45=A       46=A       47=A   
    48=A       49=A       50=A       51=A       52=A       53=A       54=A   
    55=A       56=A       57=A       58=A       59=A       60=A       61=A   
    62=A       63=A       64=A       65=A       66=A       67=A       68=A   
    69=A       70=A       71=A       72=A       73=A       74=A       75=A   
    76=A       77=A       78=A       79=A       80=A       81=A       82=A   
    83=A       84=A       85=A       86=A       87=A       88=A       89=A   
    90=A       91=A       92=A       93=A       94=A       95=A   
 ...... END OF INITIAL ORBITAL SELECTION ......
 CPU     0: STEP CPU TIME=     0.21 TOTAL CPU TIME=          0.7 (      0.0 MIN)
 TOTAL WALL CLOCK TIME=          1.8 SECONDS, CPU UTILIZATION IS    42.05%

 Running initial guess for monomer       8


          -------------
          GUESS OPTIONS
          -------------
          GUESS =HUCKEL            NORB  =       0          NORDER=       0
          MIX   =       F          PRTMO =       F          PUNMO =       F
          TOLZ  = 1.0E-08          TOLE  = 1.0E-05
          SYMDEN=       F          PURIFY=       F

 INITIAL GUESS ORBITALS GENERATED BY HUCKEL   ROUTINE.
 HUCKEL GUESS REQUIRES   1086374 WORDS.

 SYMMETRIES FOR INITIAL GUESS ORBITALS FOLLOW.   BOTH SET(S).
    85 ORBITALS ARE OCCUPIED (   26 CORE ORBITALS).
    27=A       28=A       29=A       30=A       31=A       32=A       33=A   
    34=A       35=A       36=A       37=A       38=A       39=A       40=A   
    41=A       42=A       43=A       44=A       45=A       46=A       47=A   
    48=A       49=A       50=A       51=A       52=A       53=A       54=A   
    55=A       56=A       57=A       58=A       59=A       60=A       61=A   
    62=A       63=A       64=A       65=A       66=A       67=A       68=A   
    69=A       70=A       71=A       72=A       73=A       74=A       75=A   
    76=A       77=A       78=A       79=A       80=A       81=A       82=A   
    83=A       84=A       85=A       86=A       87=A       88=A       89=A   
    90=A       91=A       92=A       93=A       94=A       95=A   
 ...... END OF INITIAL ORBITAL SELECTION ......
 CPU     0: STEP CPU TIME=     0.20 TOTAL CPU TIME=          0.9 (      0.0 MIN)
 TOTAL WALL CLOCK TIME=          2.3 SECONDS, CPU UTILIZATION IS    41.23%

 Running initial guess for monomer       7


          -------------
          GUESS OPTIONS
          -------------
          GUESS =HUCKEL            NORB  =       0          NORDER=       0
          MIX   =       F          PRTMO =       F          PUNMO =       F
          TOLZ  = 1.0E-08          TOLE  = 1.0E-05
          SYMDEN=       F          PURIFY=       F

 INITIAL GUESS ORBITALS GENERATED BY HUCKEL   ROUTINE.
 HUCKEL GUESS REQUIRES    920598 WORDS.

 SYMMETRIES FOR INITIAL GUESS ORBITALS FOLLOW.   BOTH SET(S).
    79 ORBITALS ARE OCCUPIED (   24 CORE ORBITALS).
    25=A       26=A       27=A       28=A       29=A       30=A       31=A   
    32=A       33=A       34=A       35=A       36=A       37=A       38=A   
    39=A       40=A       41=A       42=A       43=A       44=A       45=A   
    46=A       47=A       48=A       49=A       50=A       51=A       52=A   
    53=A       54=A       55=A       56=A       57=A       58=A       59=A   
    60=A       61=A       62=A       63=A       64=A       65=A       66=A   
    67=A       68=A       69=A       70=A       71=A       72=A       73=A   
    74=A       75=A       76=A       77=A       78=A       79=A       80=A   
    81=A       82=A       83=A       84=A       85=A       86=A       87=A   
    88=A       89=A   
 ...... END OF INITIAL ORBITAL SELECTION ......
 CPU     0: STEP CPU TIME=     0.17 TOTAL CPU TIME=          1.1 (      0.0 MIN)
 TOTAL WALL CLOCK TIME=          2.7 SECONDS, CPU UTILIZATION IS    41.42%

 Running initial guess for monomer       6


          -------------
          GUESS OPTIONS
          -------------
          GUESS =HUCKEL            NORB  =       0          NORDER=       0
          MIX   =       F          PRTMO =       F          PUNMO =       F
          TOLZ  = 1.0E-08          TOLE  = 1.0E-05
          SYMDEN=       F          PURIFY=       F

 INITIAL GUESS ORBITALS GENERATED BY HUCKEL   ROUTINE.
 HUCKEL GUESS REQUIRES    909141 WORDS.

 SYMMETRIES FOR INITIAL GUESS ORBITALS FOLLOW.   BOTH SET(S).
    79 ORBITALS ARE OCCUPIED (   24 CORE ORBITALS).
    25=A       26=A       27=A       28=A       29=A       30=A       31=A   
    32=A       33=A       34=A       35=A       36=A       37=A       38=A   
    39=A       40=A       41=A       42=A       43=A       44=A       45=A   
    46=A       47=A       48=A       49=A       50=A       51=A       52=A   
    53=A       54=A       55=A       56=A       57=A       58=A       59=A   
    60=A       61=A       62=A       63=A       64=A       65=A       66=A   
    67=A       68=A       69=A       70=A       71=A       72=A       73=A   
    74=A       75=A       76=A       77=A       78=A       79=A       80=A   
    81=A       82=A       83=A       84=A       85=A       86=A       87=A   
    88=A       89=A   
 ...... END OF INITIAL ORBITAL SELECTION ......
 CPU     0: STEP CPU TIME=     0.16 TOTAL CPU TIME=          1.3 (      0.0 MIN)
 TOTAL WALL CLOCK TIME=          3.1 SECONDS, CPU UTILIZATION IS    41.37%

 Running initial guess for monomer       5


          -------------
          GUESS OPTIONS
          -------------
          GUESS =HUCKEL            NORB  =       0          NORDER=       0
          MIX   =       F          PRTMO =       F          PUNMO =       F
          TOLZ  = 1.0E-08          TOLE  = 1.0E-05
          SYMDEN=       F          PURIFY=       F

 INITIAL GUESS ORBITALS GENERATED BY HUCKEL   ROUTINE.
 HUCKEL GUESS REQUIRES    842155 WORDS.

 SYMMETRIES FOR INITIAL GUESS ORBITALS FOLLOW.   BOTH SET(S).
    70 ORBITALS ARE OCCUPIED (   19 CORE ORBITALS).
    20=A       21=A       22=A       23=A       24=A       25=A       26=A   
    27=A       28=A       29=A       30=A       31=A       32=A       33=A   
    34=A       35=A       36=A       37=A       38=A       39=A       40=A   
    41=A       42=A       43=A       44=A       45=A       46=A       47=A   
    48=A       49=A       50=A       51=A       52=A       53=A       54=A   
    55=A       56=A       57=A       58=A       59=A       60=A       61=A   
    62=A       63=A       64=A       65=A       66=A       67=A       68=A   
    69=A       70=A       71=A       72=A       73=A       74=A       75=A   
    76=A       77=A       78=A       79=A       80=A   
 ...... END OF INITIAL ORBITAL SELECTION ......
 CPU     0: STEP CPU TIME=     0.15 TOTAL CPU TIME=          1.4 (      0.0 MIN)
 TOTAL WALL CLOCK TIME=          3.4 SECONDS, CPU UTILIZATION IS    41.64%

 Running initial guess for monomer       4


          -------------
          GUESS OPTIONS
          -------------
          GUESS =HUCKEL            NORB  =       0          NORDER=       0
          MIX   =       F          PRTMO =       F          PUNMO =       F
          TOLZ  = 1.0E-08          TOLE  = 1.0E-05
          SYMDEN=       F          PURIFY=       F

 INITIAL GUESS ORBITALS GENERATED BY HUCKEL   ROUTINE.
 HUCKEL GUESS REQUIRES   1174437 WORDS.

 SYMMETRIES FOR INITIAL GUESS ORBITALS FOLLOW.   BOTH SET(S).
    89 ORBITALS ARE OCCUPIED (   27 CORE ORBITALS).
    28=A       29=A       30=A       31=A       32=A       33=A       34=A   
    35=A       36=A       37=A       38=A       39=A       40=A       41=A   
    42=A       43=A       44=A       45=A       46=A       47=A       48=A   
    49=A       50=A       51=A       52=A       53=A       54=A       55=A   
    56=A       57=A       58=A       59=A       60=A       61=A       62=A   
    63=A       64=A       65=A       66=A       67=A       68=A       69=A   
    70=A       71=A       72=A       73=A       74=A       75=A       76=A   
    77=A       78=A       79=A       80=A       81=A       82=A       83=A   
    84=A       85=A       86=A       87=A       88=A       89=A       90=A   
    91=A       92=A       93=A       94=A       95=A       96=A       97=A   
    98=A       99=A   
 ...... END OF INITIAL ORBITAL SELECTION ......
 CPU     0: STEP CPU TIME=     0.23 TOTAL CPU TIME=          1.7 (      0.0 MIN)
 TOTAL WALL CLOCK TIME=          4.0 SECONDS, CPU UTILIZATION IS    41.35%

 Running initial guess for monomer       3


          -------------
          GUESS OPTIONS
          -------------
          GUESS =HUCKEL            NORB  =       0          NORDER=       0
          MIX   =       F          PRTMO =       F          PUNMO =       F
          TOLZ  = 1.0E-08          TOLE  = 1.0E-05
          SYMDEN=       F          PURIFY=       F

 INITIAL GUESS ORBITALS GENERATED BY HUCKEL   ROUTINE.
 HUCKEL GUESS REQUIRES   1174437 WORDS.

 SYMMETRIES FOR INITIAL GUESS ORBITALS FOLLOW.   BOTH SET(S).
    89 ORBITALS ARE OCCUPIED (   27 CORE ORBITALS).
    28=A       29=A       30=A       31=A       32=A       33=A       34=A   
    35=A       36=A       37=A       38=A       39=A       40=A       41=A   
    42=A       43=A       44=A       45=A       46=A       47=A       48=A   
    49=A       50=A       51=A       52=A       53=A       54=A       55=A   
    56=A       57=A       58=A       59=A       60=A       61=A       62=A   
    63=A       64=A       65=A       66=A       67=A       68=A       69=A   
    70=A       71=A       72=A       73=A       74=A       75=A       76=A   
    77=A       78=A       79=A       80=A       81=A       82=A       83=A   
    84=A       85=A       86=A       87=A       88=A       89=A       90=A   
    91=A       92=A       93=A       94=A       95=A       96=A       97=A   
    98=A       99=A   
 ...... END OF INITIAL ORBITAL SELECTION ......
 CPU     0: STEP CPU TIME=     0.22 TOTAL CPU TIME=          1.9 (      0.0 MIN)
 TOTAL WALL CLOCK TIME=          4.5 SECONDS, CPU UTILIZATION IS    41.10%

 Running initial guess for monomer       2


          -------------
          GUESS OPTIONS
          -------------
          GUESS =HUCKEL            NORB  =       0          NORDER=       0
          MIX   =       F          PRTMO =       F          PUNMO =       F
          TOLZ  = 1.0E-08          TOLE  = 1.0E-05
          SYMDEN=       F          PURIFY=       F

 INITIAL GUESS ORBITALS GENERATED BY HUCKEL   ROUTINE.
 HUCKEL GUESS REQUIRES    909141 WORDS.

 SYMMETRIES FOR INITIAL GUESS ORBITALS FOLLOW.   BOTH SET(S).
    79 ORBITALS ARE OCCUPIED (   24 CORE ORBITALS).
    25=A       26=A       27=A       28=A       29=A       30=A       31=A   
    32=A       33=A       34=A       35=A       36=A       37=A       38=A   
    39=A       40=A       41=A       42=A       43=A       44=A       45=A   
    46=A       47=A       48=A       49=A       50=A       51=A       52=A   
    53=A       54=A       55=A       56=A       57=A       58=A       59=A   
    60=A       61=A       62=A       63=A       64=A       65=A       66=A   
    67=A       68=A       69=A       70=A       71=A       72=A       73=A   
    74=A       75=A       76=A       77=A       78=A       79=A       80=A   
    81=A       82=A       83=A       84=A       85=A       86=A       87=A   
    88=A       89=A   
 ...... END OF INITIAL ORBITAL SELECTION ......
 CPU     0: STEP CPU TIME=     0.17 TOTAL CPU TIME=          2.0 (      0.0 MIN)
 TOTAL WALL CLOCK TIME=          5.0 SECONDS, CPU UTILIZATION IS    41.21%

 Running initial guess for monomer       1


          -------------
          GUESS OPTIONS
          -------------
          GUESS =HUCKEL            NORB  =       0          NORDER=       0
          MIX   =       F          PRTMO =       F          PUNMO =       F
          TOLZ  = 1.0E-08          TOLE  = 1.0E-05
          SYMDEN=       F          PURIFY=       F

 INITIAL GUESS ORBITALS GENERATED BY HUCKEL   ROUTINE.
 HUCKEL GUESS REQUIRES   1187385 WORDS.

 SYMMETRIES FOR INITIAL GUESS ORBITALS FOLLOW.   BOTH SET(S).
    90 ORBITALS ARE OCCUPIED (   27 CORE ORBITALS).
    28=A       29=A       30=A       31=A       32=A       33=A       34=A   
    35=A       36=A       37=A       38=A       39=A       40=A       41=A   
    42=A       43=A       44=A       45=A       46=A       47=A       48=A   
    49=A       50=A       51=A       52=A       53=A       54=A       55=A   
    56=A       57=A       58=A       59=A       60=A       61=A       62=A   
    63=A       64=A       65=A       66=A       67=A       68=A       69=A   
    70=A       71=A       72=A       73=A       74=A       75=A       76=A   
    77=A       78=A       79=A       80=A       81=A       82=A       83=A   
    84=A       85=A       86=A       87=A       88=A       89=A       90=A   
    91=A       92=A       93=A       94=A       95=A       96=A       97=A   
    98=A       99=A      100=A   
 ...... END OF INITIAL ORBITAL SELECTION ......
 CPU     0: STEP CPU TIME=     0.22 TOTAL CPU TIME=          2.3 (      0.0 MIN)
 TOTAL WALL CLOCK TIME=          5.5 SECONDS, CPU UTILIZATION IS    40.94%

 There are          29 separated and      26 SCF (      26 of them correlated) dimers.
 Estimate of max dimer size:  774 AOs,  178 occ. MOs

 Fragment statistics

      I  NAME     Q NAT0 NATB NA  NAO LAY MUL SCFTYP        NOP     MOL    CONV
 ==============================================================================
      1 F1       -1   35   1   90  388 1  1 G RHF             0      -1      -1
      2 F2       -1   30   1   79  339 1  1 G RHF             0      -1      -1
      3 F3       -1   34   1   89  386 1  1 G RHF             0      -1      -1
      4 F4       -1   34   1   89  386 1  1 G RHF             0      -1      -1
      5 F5        0   32   1   70  326 1  1 G RHF             0      -1      -1
      6 F6       -1   30   1   79  339 1  1 G RHF             0      -1      -1
      7 F7       -1   31   1   79  341 1  1 G RHF             0      -1      -1
      8 F8       -1   33   1   85  371 1  1 G RHF             0      -1      -1
      9 F9       -1   33   1   85  371 1  1 G RHF             0      -1      -1
     10 F10      -1   33   1   85  371 1  1 G RHF             0      -1      -1
     11 F11       0   27   0   59  262 1  1 G RHF             0      -1      -1

 Close fragment pairs, distance relative to vdW radii

 CPU     0: STEP CPU TIME=     0.01 TOTAL CPU TIME=          2.3 (      0.0 MIN)
 TOTAL WALL CLOCK TIME=          5.5 SECONDS, CPU UTILIZATION IS    40.97%
 dmexch needs              4174666  words of memory.
 CPU     0: STEP CPU TIME=     0.02 TOTAL CPU TIME=          2.3 (      0.0 MIN)
 TOTAL WALL CLOCK TIME=          5.6 SECONDS, CPU UTILIZATION IS    41.04%

 Data exchange of   1382864 words took     0.0 s.

 RHF      monomer      1 corr= NONE       , L1=   388, L0=   364 ID=      1


 AO spaces for     1     0     0 n-mer: L1=   388, L0=   364

 DIRECT SCF CALCULATION, SCHWRZ=T   FDIFF=T,  DIRTHR=  0.00E+00 NITDIR=10

                                                                                   NONZERO     BLOCKS
 ITER EX DEM     TOTAL ENERGY        E CHANGE  DENSITY CHANGE     ORB. GRAD      INTEGRALS    SKIPPED
   1  0  0   837361.3852113354837361.3852113354   0.518786719   0.000000000      906700402   19019886
          ---------------START SECOND ORDER SCF---------------
   2  1  0    -1475.3760672929*****************   0.404428990   0.092028520      911529310   19029245
   3  2  0    -1475.6402151090    -0.2641478160   0.169424437   0.077023653      903439903   19352863
   4  3  0    -1475.9735109114    -0.3332958024   0.054331060   0.009496911      889459747   19693236
   5  4  0    -1475.9812954738    -0.0077845624   0.014160045   0.005494968      866013671   20061570
   6  5  0    -1475.9826506631    -0.0013551893   0.003520865   0.002313945      839100981   20406909
   7  6  0    -1475.9828407634    -0.0001901003   0.001125045   0.000611066      804415908   20790554
   8  7  0    -1475.9828729678    -0.0000322044   0.000992424   0.000298277      769926953   21124302
   9  8  0    -1475.9828795438    -0.0000065761   0.000423197   0.000135162      742000735   21399483
  10  9  0    -1475.9828808670    -0.0000013232   0.000118646   0.000065287      707043474   21729286
  11 10  0    -1475.9828810612    -0.0000001942   0.000075020   0.000055259      682261451   21918598
  12 11  0    -1475.9828811025    -0.0000000413   0.000020835   0.000019494      646118422   22231024
  13 12  0    -1475.9828811110    -0.0000000085   0.000006918   0.000003402      600564350   22639841
  14 13  0    -1475.9828811111    -0.0000000001   0.000003733   0.000001629      560704482   22991264
  15 14  0    -1475.9828811116    -0.0000000005   0.000001535   0.000000511      521982752   23339153
  16 15  0    -1475.9828811116     0.0000000001   0.000000933   0.000000265      482027092   23689150
  17 16  0    -1475.9828811115     0.0000000000   0.000000453   0.000000137      442361281   24004924
  18 17  0    -1475.9828811112     0.0000000003   0.000000076   0.000000021      400210250   24341716
  19 18  0    -1475.9828811116    -0.0000000003   0.000000031   0.000000016      356417217   24698520

          -----------------
          DENSITY CONVERGED
          -----------------
     TIME TO FORM FOCK OPERATORS=      42.9 SECONDS (       2.3 SEC/ITER)
     FOCK TIME ON FIRST ITERATION=       3.2, LAST ITERATION=       1.2
     TIME TO SOLVE SCF EQUATIONS=       0.8 SECONDS (       0.0 SEC/ITER)

 FINAL RHF ENERGY IS    -1475.9828811116 AFTER  19 ITERATIONS
 ...... END OF RHF CALCULATION ......
 CPU     0: STEP CPU TIME=    63.38 TOTAL CPU TIME=         65.7 (      1.1 MIN)
 TOTAL WALL CLOCK TIME=        135.8 SECONDS, CPU UTILIZATION IS    48.35%
 DONE PCM POT.
 CPU     0: STEP CPU TIME=     0.48 TOTAL CPU TIME=         66.1 (      1.1 MIN)
 TOTAL WALL CLOCK TIME=        137.1 SECONDS, CPU UTILIZATION IS    48.26%

 Iter=  1 iFrag=      1 EFMO= -1522.293644217, DD= 0.432390779, DE=************


 RHF      monomer      4 corr= NONE       , L1=   386, L0=   362 ID=      2

