‘2LU0_2_fmo_input.inp’ -> ‘/scratch/hazwong/829269/./2LU0_2_fmo_input.inp’
‘rungms’ -> ‘/scratch/hazwong/829269/./rungms’
‘gms-files.csh’ -> ‘/scratch/hazwong/829269/./gms-files.csh’
----- GAMESS execution script 'rungms' -----
This job is running on host gollum058.lsa.umich.edu
under operating system Linux at Mon Dec 9 01:30:37 EST 2019
Available scratch disk space (Kbyte units) at beginning of the job is
Filesystem     1K-blocks  Used Available Use% Mounted on
/dev/sda4      426933580 33500 426900080   1% /scratch
GAMESS temporary binary files will be written to /scratch/hazwong/829269/2LU0_2/usrc
GAMESS supplementary output files will be written to /scratch/hazwong/829269/2LU0_2/src
Copying input file 2LU0_2_fmo_input.inp to your run's scratch directory...
cp 2LU0_2_fmo_input.inp /scratch/hazwong/829269/2LU0_2/usrc/2LU0_2_fmo_input.F05
unset echo
This is a GDDI run, keeping various output files on local disks
setenv OUTPUT /scratch/hazwong/829269/2LU0_2/usrc/2LU0_2_fmo_input.F06
setenv PUNCH /scratch/hazwong/829269/2LU0_2/usrc/2LU0_2_fmo_input.F07
unset echo
 
Assuming a single but multicore node.
 
/export/apps/CentOS7/gamess/src/build//ddikick.x /export/apps/CentOS7/gamess/src/build//gamess.R3.x 2LU0_2_fmo_input -ddi 1 16 gollum058.lsa.umich.edu:cpus=16 -scr /scratch/hazwong/829269/2LU0_2/usrc

 Distributed Data Interface kickoff program.
 Initiating 16 compute processes on 1 nodes to run the following command:
 /export/apps/CentOS7/gamess/src/build//gamess.R3.x 2LU0_2_fmo_input 

          ******************************************************
          *         GAMESS VERSION = 30 SEP 2018 (R3)         *
          *             FROM IOWA STATE UNIVERSITY             *
          * M.W.SCHMIDT, K.K.BALDRIDGE, J.A.BOATZ, S.T.ELBERT, *
          *   M.S.GORDON, J.H.JENSEN, S.KOSEKI, N.MATSUNAGA,   *
          *          K.A.NGUYEN, S.J.SU, T.L.WINDUS,           *
          *       TOGETHER WITH M.DUPUIS, J.A.MONTGOMERY       *
          *         J.COMPUT.CHEM.  14, 1347-1363(1993)        *
          **************** 64 BIT LINUX VERSION ****************

  SINCE 1993, STUDENTS AND POSTDOCS WORKING AT IOWA STATE UNIVERSITY
  AND ALSO IN THEIR VARIOUS JOBS AFTER LEAVING ISU HAVE MADE IMPORTANT
  CONTRIBUTIONS TO THE CODE:
     IVANA ADAMOVIC, CHRISTINE AIKENS, YURI ALEXEEV, POOJA ARORA,
     ANDREY ASADCHEV, ROB BELL, PRADIPTA BANDYOPADHYAY, JONATHAN BENTZ,
     BRETT BODE, KURT BRORSEN, CALEB CARLIN, GALINA CHABAN, WEI CHEN,
     CHEOL HO CHOI, PAUL DAY, ALBERT DEFUSCO, NUWAN DESILVA, TIM DUDLEY,
     DMITRI FEDOROV, ALEX FINDLATER, GRAHAM FLETCHER, MARK FREITAG,
     KURT GLAESEMANN, ANASTASIA GUNINA,
     DAN KEMP, GRANT MERRILL, NORIYUKI MINEZAWA, JONATHAN MULLIN,
     TAKESHI NAGATA, SEAN NEDD, HEATHER NETZLOFF, BOSILJKA NJEGIC, RYAN OLSON,
     MIKE PAK, BUU PHAM,
     SPENCER PRUITT, LUKE ROSKOP, JIM SHOEMAKER, LYUDMILA SLIPCHENKO,
     TONY SMITH, SAROM SOK LEANG, JIE SONG, TETSUYA TAKETSUGU, SIMON WEBB,
     PENG XU, SOOHAENG YOO, FEDERICO ZAHARIEV

  ADDITIONAL CODE HAS BEEN PROVIDED BY COLLABORATORS IN OTHER GROUPS:
     IOWA STATE UNIVERSITY:
          JOE IVANIC, AARON WEST, LAIMUTIS BYTAUTAS, KLAUS RUEDENBERG
     UNIVERSITY OF TOKYO: KIMIHIKO HIRAO, TAKAHITO NAKAJIMA,
          TAKAO TSUNEDA, MUNEAKI KAMIYA, SUSUMU YANAGISAWA,
          KIYOSHI YAGI, MAHITO CHIBA, SEIKEN TOKURA, NAOAKI KAWAKAMI
     UNIVERSITY OF AARHUS: FRANK JENSEN
     UNIVERSITY OF IOWA: VISVALDAS KAIRYS, HUI LI
     NATIONAL INST. OF STANDARDS AND TECHNOLOGY: WALT STEVENS, DAVID GARMER
     UNIVERSITY OF PISA: BENEDETTA MENNUCCI, JACOPO TOMASI
     UNIVERSITY OF MEMPHIS: HENRY KURTZ, PRAKASHAN KORAMBATH
     UNIVERSITY OF ALBERTA: TOBY ZENG, MARIUSZ KLOBUKOWSKI
     UNIVERSITY OF NEW ENGLAND: MARK SPACKMAN
     MIE UNIVERSITY: HIROAKI UMEDA
     NAT. INST. OF ADVANCED INDUSTRIAL SCIENCE AND TECHNOLOGY: KAZUO KITAURA
     MICHIGAN STATE UNIVERSITY:
          KAROL KOWALSKI, MARTA WLOCH, JEFFREY GOUR, JESSE LUTZ,
          WEI LI, JUN SHEN, J. EMILIANO DEUSTUA, PIOTR PIECUCH
     UNIVERSITY OF MINNESOTA:
          YINAN SHU
     UNIVERSITY OF SILESIA: MONIKA MUSIAL, STANISLAW KUCHARSKI
     FACULTES UNIVERSITAIRES NOTRE-DAME DE LA PAIX:
          OLIVIER QUINET, BENOIT CHAMPAGNE
     UNIVERSITY OF CALIFORNIA - SANTA BARBARA: BERNARD KIRTMAN
     INSTITUTE FOR MOLECULAR SCIENCE:
          KAZUYA ISHIMURA, MICHIO KATOUDA, AND SHIGERU NAGASE
     UNIVERSITY OF NOTRE DAME: ANNA POMOGAEVA, DAN CHIPMAN
     KYUSHU UNIVERSITY:
          HARUYUKI NAKANO,
          FENG LONG GU, JACEK KORCHOWIEC, MARCIN MAKOWSKI, AND YURIKO AOKI,
          HIROTOSHI MORI AND EISAKU MIYOSHI
     PENNSYLVANIA STATE UNIVERSITY:
          TZVETELIN IORDANOV, CHET SWALINA, JONATHAN SKONE,
          SHARON HAMMES-SCHIFFER
     WASEDA UNIVERSITY:
          MASATO KOBAYASHI, TOMOKO AKAMA, TSUGUKI TOUMA,
          TAKESHI YOSHIKAWA, YASUHIRO IKABATA, JUNJI SEINO,
          YUYA NAKAJIMA, HIROMI NAKAI
     NANJING UNIVERSITY: SHUHUA LI
     UNIVERSITY OF NEBRASKA:
          PEIFENG SU, DEJUN SI, NANDUN THELLAMUREGE, YALI WANG, HUI LI
     UNIVERSITY OF ZURICH: ROBERTO PEVERATI, KIM BALDRIDGE
     N. COPERNICUS UNIVERSITY AND JACKSON STATE UNIVERSITY:
          MARIA BARYSZ
     UNIVERSITY OF COPENHAGEN: Jimmy Kromann, CASPER STEINMANN
     TOKYO INSTITUTE OF TECHNOLOGY: HIROYA NAKATA
     NAGOYA UNIVERSITY: YOSHIO NISHIMOTO, STEPHAN IRLE
     MOSCOW STATE UNIVERSITY: VLADIMIR MIRONOV


 PARALLEL VERSION RUNNING ON       16 PROCESSORS IN        1 NODES.

 EXECUTION OF GAMESS BEGUN Mon Dec  9 01:30:37 2019

            ECHO OF THE FIRST FEW INPUT CARDS -
 INPUT CARD>!*** FMO 5.3 (Gamess) INPUT generated by Facio 22.1.1.32 ***                    
 INPUT CARD> $CONTRL RUNTYP=ENERGY NPRINT=-5 ISPHER=1 MAXIT=200 $END                        
 INPUT CARD> $SYSTEM MWORDS=63 MEMDDI=63 $END                                               
 INPUT CARD> $GDDI NGROUP=1 $END                                                            
 INPUT CARD> $SCF DIRSCF=.TRUE. NPUNCH=0 $END                                               
 INPUT CARD>!*** NumCPU : 2  MemPerNode : 512MB                                             
 INPUT CARD> $PCM SOLVNT=WATER IEF=-10 ICOMP=2 ICAV=1 IDISP=1 IFMO=-1 $END                  
 INPUT CARD> $PCMCAV RADII=SUAHF $END                                                       
 INPUT CARD> $TESCAV NTSALL=60 $END                                                         
 INPUT CARD> $FMOPRP                                                                        
 INPUT CARD>    NAODIR=200                                                                  
 INPUT CARD>    NGRFMO(1)=1, 1, 0, 0, 0,   0, 0, 0, 0, 0                                    
 INPUT CARD>    IPIEDA=1                                                                    
 INPUT CARD>    NPRINT=9                                                                    
 INPUT CARD> $END                                                                           
 INPUT CARD> $FMO                                                                           
 INPUT CARD>      SCFTYP(1)=RHF                                                             
 INPUT CARD>      MODGRD=10                                                                 
 INPUT CARD>      MODMUL=0                                                                  
 INPUT CARD>      MAXCAO=5                                                                  
 INPUT CARD>      MAXBND=24                                                                 
 INPUT CARD>      NLAYER=1                                                                  
 INPUT CARD>      MPLEVL(1)=2                                                               
 INPUT CARD>      NFRAG=22                                                                  
 INPUT CARD>      ICHARG(1)=-1, -1, -1, -1, -1, -1, 0, -1, -1, -1, -1, -1, -1, -1, 0,       
 INPUT CARD>-1, -1, -1, -1, -1, -1, 0                                                       
 INPUT CARD>      FRGNAM(1)=F1, F2, F3, F4, F5, F6, F7, F8, F9, F10, F11, F12, F13,         
 INPUT CARD>F14, F15, F16, F17, F18, F19, F20, F21, F22                                     
 INPUT CARD>      indat(1)=0                                                                
 INPUT CARD>               1   -36   0                                                      
 INPUT CARD>               37   -67   0                                                     
 INPUT CARD>               68   -97   0                                                     
 INPUT CARD>               98   -128   0                                                    
 INPUT CARD>               129   -161   0                                                   
 INPUT CARD>               162   -194   0                                                   
 INPUT CARD>               195   -224   0                                                   
 INPUT CARD>               225   -258   0                                                   
 INPUT CARD>               259   -288   0                                                   
 INPUT CARD>               289   -322   0                                                   
 INPUT CARD>               323   -355   0                                                   
 INPUT CARD>               356   -388   0                                                   
 INPUT CARD>               389   -418   0                                                   
 INPUT CARD>               419   -449   0                                                   
 INPUT CARD>               450   -481   0                                                   
 INPUT CARD>               482   -511   0                                                   
 INPUT CARD>               512   -545   0                                                   
 INPUT CARD>               546   -578   0                                                   
 INPUT CARD>               579   -612   0                                                   
 INPUT CARD>               613   -645   0                                                   
 INPUT CARD>               646   -679   0                                                   


 -------------------------------------------------------------
 GROUP DDI, PROGRAMMED BY: RYAN M. OLSON AND DMITRI G. FEDOROV
        FEDOROV ET AL., J. COMPUT. CHEM., 25 (2004) 872.
 -------------------------------------------------------------

 -------------------------------------------------------
 GDDI: INITIALIZATION COMPLETED FOR GROUP     1 OF     1
 WITH    16 PROCESSES BALTYP=DLB   global rank=        0
 -------------------------------------------------------

   63000000 WORDS OF MEMORY AVAILABLE


     RUN TITLE
     ---------
  FMO calculation                                                                

 THE POINT GROUP OF THE MOLECULE IS C1      
 THE ORDER OF THE PRINCIPAL AXIS IS     0

 ATOM   ATOMIC CHARGE
 H.1-1       1.0
 O.1-1       8.0
 C.1-1       6.0
 N.1-1       7.0
 P.1-1      15.0

     ATOMIC BASIS SET LIBRARY
     ----------------
 THE CONTRACTED PRIMITIVE FUNCTIONS HAVE BEEN UNNORMALIZED
 THE CONTRACTED BASIS FUNCTIONS ARE NOW NORMALIZED TO UNITY

  SHELL TYPE  PRIMITIVE        EXPONENT          CONTRACTION COEFFICIENT(S)

 H.1-1     

      1   S       1            18.7311370    0.033494604338
      1   S       2             2.8253944    0.234726953484
      1   S       3             0.6401217    0.813757326146

      2   S       4             0.1612778    1.000000000000

 O.1-1     

      3   S       5          5484.6716600    0.001831074430
      3   S       6           825.2349460    0.013950172200
      3   S       7           188.0469580    0.068445078098
      3   S       8            52.9645000    0.232714335992
      3   S       9            16.8975704    0.470192897984
      3   S      10             5.7996353    0.358520852987

      4   L      11            15.5396162   -0.110777549525    0.070874268231
      4   L      12             3.5999336   -0.148026262701    0.339752839147
      4   L      13             1.0137618    1.130767015354    0.727158577316

      5   L      14             0.2700058    1.000000000000    1.000000000000

      6   D      15             0.8000000    1.000000000000

 C.1-1     

      7   S      16          3047.5248800    0.001834737132
      7   S      17           457.3695180    0.014037322813
      7   S      18           103.9486850    0.068842622264
      7   S      19            29.2101553    0.232184443216
      7   S      20             9.2866630    0.467941348435
      7   S      21             3.1639270    0.362311985337

      8   L      22             7.8682723   -0.119332419775    0.068999066591
      8   L      23             1.8812885   -0.160854151696    0.316423960957
      8   L      24             0.5442493    1.143456437840    0.744308290898

      9   L      25             0.1687145    1.000000000000    1.000000000000

     10   D      26             0.8000000    1.000000000000

 N.1-1     

     11   S      27          4173.5114600    0.001834772160
     11   S      28           627.4579110    0.013994627002
     11   S      29           142.9020930    0.068586551812
     11   S      30            40.2343293    0.232240873040
     11   S      31            12.8202129    0.469069948082
     11   S      32             4.3904370    0.360455199063

     12   L      33            11.6263619   -0.114961181702    0.067579743878
     12   L      34             2.7162798   -0.169117478561    0.323907295893
     12   L      35             0.7722184    1.145851947027    0.740895139755

     13   L      36             0.2120315    1.000000000000    1.000000000000

     14   D      37             0.8000000    1.000000000000

 P.1-1     

     15   S      38         19413.3000000    0.001851598923
     15   S      39          2909.4200000    0.014206191735
     15   S      40           661.3640000    0.069999459277
     15   S      41           185.7590000    0.240078860331
     15   S      42            59.1943000    0.484761717984
     15   S      43            20.0310000    0.335199804993

     16   L      44           339.4780000   -0.002782170105    0.004564616191
     16   L      45            81.0101000   -0.036049901354    0.033693571881
     16   L      46            25.8780000   -0.116631004382    0.139754883368
     16   L      47             9.4522100    0.096832803638    0.339361716786
     16   L      48             3.6656600    0.614418023082    0.450920623685
     16   L      49             1.4674600    0.403798015170    0.238585800889

     17   L      50             2.1562300   -0.252924113863   -0.017765312733
     17   L      51             0.7489970    0.032851844678    0.274058196433
     17   L      52             0.2831450    1.081254761783    0.785421562957

     18   L      53             0.0998317    1.000000000000    1.000000000000

     19   D      54             0.5500000    1.000000000000

 TOTAL NUMBER OF BASIS SET SHELLS             =   19
 NUMBER OF CARTESIAN GAUSSIAN BASIS FUNCTIONS =   66

     $CONTRL OPTIONS
     ---------------
 SCFTYP=RHF          RUNTYP=ENERGY       EXETYP=RUN     
 MPLEVL=       0     CITYP =NONE         CCTYP =NONE         VBTYP =NONE    
 DFTTYP=NONE         TDDFT =NONE    
 MULT  =       1     ICHARG=       0     NZVAR =       0     COORD =UNIQUE  
 PP    =NONE         RELWFN=NONE         LOCAL =NONE         NUMGRD=       F
 ISPHER=       1     NOSYM =       0     MAXIT =     200     UNITS =ANGS    
 PLTORB=       F     MOLPLT=       F     AIMPAC=       F     FRIEND=        
 NPRINT=      -5     IREST =       0     GEOM  =INPUT   
 NORMF =       0     NORMP =       0     ITOL  =      24     ICUT  =      12
 INTTYP=BEST         GRDTYP=BEST         QMTTOL= 1.0E-06

     $SYSTEM OPTIONS
     ---------------
  REPLICATED MEMORY=    63000000 WORDS (ON EVERY NODE).
 DISTRIBUTED MEMDDI=          63 MILLION WORDS IN AGGREGATE,
 MEMDDI DISTRIBUTED OVER  16 PROCESSORS IS     3937500 WORDS/PROCESSOR.
 TOTAL MEMORY REQUESTED ON EACH PROCESSOR=    66937500 WORDS.
 TIMLIM=      525600.00 MINUTES, OR     365.0 DAYS.
 PARALL= T  BALTYP=  DLB     KDIAG=    0  COREFL= F
 MXSEQ2=     300 MXSEQ3=     150  mem10=         0

 ** LOOKING UP INTERNALLY STORED DATA FOR SOLVENT=WATER    **
 OPTICAL AND PHYSICAL CONSTANTS:
 EPS= 78.390; EPSINF=  1.776; RSOLV=  1.385 A; VMOL=  18.070 ML/MOL;
 TCE= .25700E-03 1/K; STEN= 71.810 DYN/CM;  DSTEN=  0.6500; CMF=  1.2770


     -----------------------------------
     INPUT FOR PCM SOLVATION CALCULATION 
     -----------------------------------
     IEF   =     -10
     ICOMP =       2     IFIELD=       0     ICAV  =       1
     IDISP =       1     IREP  =       0     IDP   =       0

     SOLVNT=WATER        EPS   = 78.3900     EPSINF=  1.7760
     VMOL  = 18.0700     TCE   =  0.00025700 STEN  = 71.8100
     DSTEN =  0.6500     CMF   =  1.2770     RSOLV =  1.3850

     NESFP =       0
     OMEGA = 40.0000     RET   =100.0000     FRO   =  0.7000

     TABS  =298.0000     IPRINT=       0

     --------------------------------
     INPUT FOR ITERATIVE C-PCM METHOD 
     --------------------------------
     IPCMIT  =         1     MXDIIS  =        50
     MXITR1  =       200     MXITR2  =       200
     THRES   = 0.100E-09     IMUL    =         3
     RCUT(1) =   20.0000     RCUT(2) =   50.0000

     IDIRCT  =         1
     IMGABI  =         0     RABI    =    4.0000
     IMGASC  =         0     RASC    =   20.0000
     THRSLS  = 0.500E-03     DENSLS  =    0.0100
     IEFPOL  =         1     REFPOL  =    0.0000

     INPUT FOR ISOTROPIC DIELECTRICS
     -------------------------------
     EPS=    78.39

          ----------------
          PROPERTIES INPUT
          ----------------

     MOMENTS            FIELD           POTENTIAL          DENSITY
 IEMOM =       1   IEFLD =       0   IEPOT =       0   IEDEN =       0
 WHERE =COMASS     WHERE =NUCLEI     WHERE =NUCLEI     WHERE =NUCLEI  
 OUTPUT=BOTH       OUTPUT=BOTH       OUTPUT=NONE       OUTPUT=BOTH    
 IEMINT=       0   IEFINT=       0                     IEDINT=       0
                                                       MORB  =       0
          EXTRAPOLATION IN EFFECT
          SOSCF IN EFFECT
 ORBITAL PRINTING OPTION: NPREO=     1 32767     2     1

     -------------------------------
     INTEGRAL TRANSFORMATION OPTIONS
     -------------------------------
     NWORD  =            0
     CUTOFF = 1.0E-10     MPTRAN =       0
     DIRTRF =       T     AOINTS =DUP     

          ----------------------
          INTEGRAL INPUT OPTIONS
          ----------------------
 NOPK  =       1 NORDER=       0 SCHWRZ=       T

 ..... DONE SETTING UP THE RUN .....
 CPU     0: STEP CPU TIME=     0.05 TOTAL CPU TIME=          0.0 (      0.0 MIN)
 TOTAL WALL CLOCK TIME=          0.1 SECONDS, CPU UTILIZATION IS    62.50%
 CPU     0: STEP CPU TIME=     0.00 TOTAL CPU TIME=          0.0 (      0.0 MIN)
 TOTAL WALL CLOCK TIME=          0.1 SECONDS, CPU UTILIZATION IS    62.50%

                    ----------------------
                    AO INTEGRAL TECHNOLOGY
                    ----------------------
     S,P,L SHELL ROTATED AXIS INTEGRALS, REPROGRAMMED BY
        KAZUYA ISHIMURA (IMS) AND JOSE SIERRA (SYNSTAR).
     S,P,D,L SHELL ROTATED AXIS INTEGRALS PROGRAMMED BY
        KAZUYA ISHIMURA (INSTITUTE FOR MOLECULAR SCIENCE).
     S,P,D,F,G SHELL TO TOTAL QUARTET ANGULAR MOMENTUM SUM 5,
        ERIC PROGRAM BY GRAHAM FLETCHER (ELORET AND NASA ADVANCED
        SUPERCOMPUTING DIVISION, AMES RESEARCH CENTER).
     S,P,D,F,G,L SHELL GENERAL RYS QUADRATURE PROGRAMMED BY
        MICHEL DUPUIS (PACIFIC NORTHWEST NATIONAL LABORATORY).
 Setting modorb=1 flag...
 Setting modorb=1 flag...

          -----------------------
          MP2 CONTROL INFORMATION
          -----------------------
          NACORE =        8  NBCORE =        8
          LMOMP2 =        F  AOINTS = DUP     
          METHOD =        2  NWORD  =               0
          MP2PRP =        F  OSPT   = NONE    
          CUTOFF = 1.00E-12  CPHFBS = BASISAO 
          CODE   = IMS     

          NUMBER OF CORE -A-  ORBITALS =     8
          NUMBER OF CORE -B-  ORBITALS =     8
          NUMBER OF OCC. -A-  ORBITALS =    18
          NUMBER OF OCC. -B-  ORBITALS =    18
          NUMBER OF MOLECULAR ORBITALS =    66
          NUMBER OF   BASIS  FUNCTIONS =    66

 CPU     0: STEP CPU TIME=     0.03 TOTAL CPU TIME=          0.1 (      0.0 MIN)
 TOTAL WALL CLOCK TIME=          0.1 SECONDS, CPU UTILIZATION IS    61.54%
 CPU     0: STEP CPU TIME=     0.00 TOTAL CPU TIME=          0.1 (      0.0 MIN)
 TOTAL WALL CLOCK TIME=          0.1 SECONDS, CPU UTILIZATION IS    61.54%

     INPUT FOR CAVITY DEFINITION 
     ---------------------------
   ATOM               COORDINATES                RADIUS       EPS
      1     -0.3260     -9.9110      4.9190      0.0100     78.3900
      2     -0.5030     -9.7840      3.9680      1.5900     78.3900
      3     -0.3350    -11.0660      3.3450      1.7700     78.3900
      4     -1.0450    -11.7930      3.8040      0.0100     78.3900
      5      0.6990    -11.4300      3.5320      0.0100     78.3900
      6     -0.5650    -11.0400      1.8350      1.7700     78.3900
      7     -0.3880    -12.0480      1.3970      0.0100     78.3900
      8     -1.9460    -10.6790      1.5470      1.5900     78.3900
      9     -1.9770     -9.8590      0.3930      1.7700     78.3900
     10     -2.6670    -10.3480     -0.3320      0.0100     78.3900
     11     -2.4890     -8.5180      0.7010      1.6800     78.3900
     12     -2.9800     -7.6170     -0.2040      1.7700     78.3900
     13     -3.7100     -6.7360     -3.4690      1.6800     78.3900
     14     -3.3980     -7.5280     -3.9850      0.0100     78.3900
     15     -4.0880     -5.9470     -3.9630      0.0100     78.3900
     16     -3.0540     -7.7970     -1.5340      1.6800     78.3900
     17     -3.5830     -6.7470     -2.1570      1.7700     78.3900
     18     -4.0320     -5.6330     -1.4990      1.6800     78.3900
     19     -4.4350     -4.8900     -2.0490      0.0100     78.3900
     20     -3.9870     -5.4240     -0.1280      1.7700     78.3900
     21     -4.4280     -4.3850      0.3750      1.5900     78.3900
     22     -3.3830     -6.5240      0.5420      1.7700     78.3900
     23     -3.1250     -6.7260      1.8930      1.6800     78.3900
     24     -2.5950     -7.9270      1.9420      1.7700     78.3900
     25     -2.2620     -8.4440      2.8470      0.0100     78.3900
     26     -0.5790     -9.8340     -0.1850      1.7700     78.3900
     27     -0.3540     -8.8840     -0.7070      0.0100     78.3900
     28     -0.4240    -10.9180     -1.0780      1.5900     78.3900
     29      0.4810    -10.8760     -1.4120      0.0100     78.3900
     30      0.2800    -10.0180      1.0580      1.7700     78.3900
     31      0.2920     -9.0810      1.6620      0.0100     78.3900
     32      1.6070    -10.5520      0.8180      1.5900     78.3900
     33      2.8120     -9.5530      0.6160      2.1000     78.3900
     34      2.7900     -8.5390      1.6920      1.5900     78.3900
     35      4.0440    -10.3570      0.4770      1.5900     78.3900
     36      2.4920     -8.8590     -0.7640      1.5900     78.3900
     37      2.5920     -9.6330     -1.9840      1.7700     78.3900
     38      2.0220    -10.5870     -1.9110      0.0100     78.3900
     39      3.6560     -9.9010     -2.1880      0.0100     78.3900
     40      2.0560     -8.8550     -3.1960      1.7700     78.3900
     41      2.0860     -9.4810     -4.1090      0.0100     78.3900
     42      0.6660     -8.4820     -2.9820      1.5900     78.3900
     43      0.4340     -7.1860     -3.5170      1.7700     78.3900
     44     -0.4020     -7.3120     -4.2450      0.0100     78.3900
     45      0.0290     -6.1840     -2.4870      1.6800     78.3900
     46      0.3310     -6.3850     -1.1600      1.7700     78.3900
     47      0.8610     -7.3050     -0.9310      0.0100     78.3900
     48     -0.0500     -5.5180     -0.2130      1.7700     78.3900
     49      0.1430     -5.6870      0.8450      0.0100     78.3900
     50     -0.6290     -5.0180     -2.8690      1.7700     78.3900
     51     -0.8590     -4.8170     -4.0700      1.5900     78.3900
     52     -1.0130     -4.1260     -1.9270      1.6800     78.3900
     53     -0.7620     -4.3570     -0.6280      1.7700     78.3900
     54     -1.1980     -3.4830      0.2750      1.6800     78.3900
     55     -1.7200     -2.6780     -0.0160      0.0100     78.3900
     56     -1.0580     -3.6230      1.2550      0.0100     78.3900
     57      1.6840     -6.7840     -4.2710      1.7700     78.3900
     58      1.8540     -5.6910     -4.2550      0.0100     78.3900
     59      1.6040     -7.2320     -5.6120      1.5900     78.3900
     60      2.4520     -7.0200     -6.0180      0.0100     78.3900
     61      2.7680     -7.5290     -3.5010      1.7700     78.3900
     62      2.9580     -7.0420     -2.5170      0.0100     78.3900
     63      3.9790     -7.7770     -4.2540      1.5900     78.3900
     64      5.1420     -6.7150     -4.2000      2.1000     78.3900
     65      5.3540     -6.3250     -2.7880      1.5900     78.3900
     66      6.3140     -7.2530     -4.9260      1.5900     78.3900
     67      4.5920     -5.4640     -4.9670      1.5900     78.3900
     68      4.3580     -5.4570     -6.3920      1.7700     78.3900
     69      3.7360     -6.3240     -6.7100      0.0100     78.3900
     70      5.3240     -5.5320     -6.9460      0.0100     78.3900
     71      3.6350     -4.1680     -6.8300      1.7700     78.3900
     72      3.4070     -4.2110     -7.9170      0.0100     78.3900
     73      2.3660     -4.0260     -6.1230      1.5900     78.3900
     74      2.1260     -2.6540     -5.8360      1.7700     78.3900
     75      1.1420     -2.4200     -6.3060      0.0100     78.3900
     76      2.0410     -2.3810     -4.3760      1.6800     78.3900
     77      2.5180     -3.2790     -3.4530      1.7700     78.3900
     78      3.0380     -4.1400     -3.8700      0.0100     78.3900
     79      1.4290     -1.2160     -3.9750      1.7700     78.3900
     80      0.9790     -0.3990     -4.7640      1.5900     78.3900
     81      1.3420     -1.0490     -2.6170      1.6800     78.3900
     82      0.9280     -0.1720     -2.3180      0.0100     78.3900
     83      1.7310     -1.9330     -1.6370      1.7700     78.3900
     84      1.5160     -1.6810     -0.4530      1.5900     78.3900
     85      2.3780     -3.1110     -2.1320      1.7700     78.3900
     86      2.7360     -3.8540     -1.4240      0.0100     78.3900
     87      3.2130     -1.8560     -6.5270      1.7700     78.3900
     88      3.4870     -0.9280     -5.9820      0.0100     78.3900
     89      2.7760     -1.5380     -7.8360      1.5900     78.3900
     90      2.7120     -2.3550     -8.3520      0.0100     78.3900
     91      4.3700     -2.8520     -6.5390      1.7700     78.3900
     92      4.7910     -2.9520     -5.5150      0.0100     78.3900
     93      5.3800     -2.6150     -7.5440      1.5900     78.3900
     94      6.6080     -1.6780     -7.2070      2.1000     78.3900
     95      7.2110     -2.1290     -5.9330      1.5900     78.3900
     96      7.4990     -1.6360     -8.3870      1.5900     78.3900
     97      6.0140     -0.2470     -6.9750      1.5900     78.3900
     98      5.3820      0.5110     -8.0270      1.7700     78.3900
     99      4.5140     -0.0370     -8.4500      0.0100     78.3900
    100      6.0930      0.6850     -8.8630      0.0100     78.3900
    101      4.8750      1.8760     -7.5420      1.7700     78.3900
    102      4.2120      2.3310     -8.3060      0.0100     78.3900
    103      4.0930      1.7740     -6.3250      1.5900     78.3900
    104      4.7170      2.5240     -5.3080      1.7700     78.3900
    105      4.2160      3.5210     -5.3370      0.0100     78.3900
    106      4.5520      1.8670     -3.9940      1.6800     78.3900
    107      5.0330      0.5920     -3.8390      1.7700     78.3900
    108      5.5160      0.1550     -4.7140      0.0100     78.3900
    109      4.8880     -0.0640     -2.6790      1.7700     78.3900
    110      5.2730     -1.0720     -2.5200      0.0100     78.3900
    111      3.8830      2.4890     -2.9420      1.7700     78.3900
    112      3.4350      3.6310     -3.0900      1.5900     78.3900
    113      3.7410      1.8530     -1.7670      1.6800     78.3900
    114      4.2160      0.6110     -1.6150      1.7700     78.3900
    115      4.0310      0.0070     -0.4470      1.6800     78.3900
    116      3.4790      0.4660      0.2530      0.0100     78.3900
    117      4.3680     -0.9170     -0.2580      0.0100     78.3900
    118      6.1660      2.7120     -5.7210      1.7700     78.3900
    119      6.7710      1.8090     -5.4900      0.0100     78.3900
    120      6.7500      3.8670     -5.1520      1.5900     78.3900
    121      6.2340      4.6050     -5.5090      0.0100     78.3900
    122      6.0140      2.8550     -7.2310      1.7700     78.3900
    123      6.9420      2.4610     -7.7080      0.0100     78.3900
    124      5.6870      4.1950     -7.6600      1.5900     78.3900
    125      6.4270      4.8700     -8.8750      2.1000     78.3900
    126      6.4860      6.3160     -8.6150      1.5900     78.3900
    127      7.7190      4.1900     -9.1240      1.5900     78.3900
    128      5.4840      4.6420    -10.1100      1.5900     78.3900
    129      5.3760      3.3740    -10.7900      1.7700     78.3900
    130      5.1480      2.5550    -10.0830      0.0100     78.3900
    131      6.3360      3.1210    -11.2900      0.0100     78.3900
    132      4.2600      3.3730    -11.8440      1.7700     78.3900
    133      4.0120      2.3400    -12.1690      0.0100     78.3900
    134      3.0400      3.9700    -11.3030      1.5900     78.3900
    135      2.4240      4.7600    -12.3040      1.7700     78.3900
    136      1.3790      4.3900    -12.4030      0.0100     78.3900
    137      2.3910      6.1770    -11.9340      1.6800     78.3900
    138      1.9380      8.3260    -11.8780      1.7700     78.3900
    139      2.7060      8.0580    -10.7560      1.6800     78.3900
    140      2.9540      6.7740    -10.8340      1.7700     78.3900
    141      3.5420      6.1960    -10.1160      0.0100     78.3900
    142      0.6090      9.4180    -13.5040      1.6800     78.3900
    143      0.5100      8.2340    -14.1060      1.7700     78.3900
    144     -0.0970      8.2250    -15.0210      0.0100     78.3900
    145      1.0420      7.0590    -13.7540      1.6800     78.3900
    146      1.7370      7.1740    -12.6130      1.7700     78.3900
    147      1.3330      9.5050    -12.3620      1.7700     78.3900
    148      1.4270     10.7000    -11.7730      1.6800     78.3900
    149      1.8490     10.8450    -10.8670      0.0100     78.3900
    150      0.8720     11.4410    -12.1420      0.0100     78.3900
    151      3.1730      4.5260    -13.5940      1.7700     78.3900
    152      3.1920      5.4290    -14.2270      0.0100     78.3900
    153      2.5970      3.4470    -14.3060      1.5900     78.3900
    154      3.2040      3.2160    -15.0240      0.0100     78.3900
    155      4.5700      4.2020    -13.0980      1.7700     78.3900
    156      5.0740      5.1260    -12.7290      0.0100     78.3900
    157      5.3640      3.4470    -14.0440      1.5900     78.3900
    158      6.5850      4.1240    -14.7810      2.1000     78.3900
    159      7.4210      4.8110    -13.7780      1.5900     78.3900
    160      7.2740      3.1070    -15.6070      1.5900     78.3900
    161      5.9440      5.2230    -15.7060      1.5900     78.3900
    162      5.0370      4.9000    -16.7800      1.7700     78.3900
    163      4.3030      4.1170    -16.4780      0.0100     78.3900
    164      5.6040      4.5090    -17.6510      0.0100     78.3900
    165      4.2480      6.1270    -17.2550      1.7700     78.3900
    166      3.5540      5.8560    -18.0810      0.0100     78.3900
    167      3.4470      6.6280    -16.1590      1.5900     78.3900
    168      3.4590      8.0370    -16.1550      1.7700     78.3900
    169      2.3960      8.3640    -16.1270      0.0100     78.3900
    170      4.1420      8.5560    -14.9690      1.6800     78.3900
    171      4.8080      9.8400    -13.3150      1.7700     78.3900
    172      5.3920      8.6020    -13.1100      1.6800     78.3900
    173      4.9630      7.8760    -14.1050      1.7700     78.3900
    174      5.1980      6.8230    -14.2530      0.0100     78.3900
    175      4.1610     12.0960    -13.0830      1.6800     78.3900
    176      3.4610     11.9300    -14.2080      1.7700     78.3900
    177      2.9120     12.8140    -14.5500      0.0100     78.3900
    178      3.3450     10.8490    -14.9840      1.6800     78.3900
    179      4.0420      9.8260    -14.4660      1.7700     78.3900
    180      4.8620     11.0460    -12.5890      1.7700     78.3900
    181      5.5960     11.1960    -11.4680      1.6800     78.3900
    182      6.1120     10.4350    -11.0660      0.0100     78.3900
    183      5.6190     12.0860    -11.0040      0.0100     78.3900
    184      4.0960      8.4720    -17.4490      1.7700     78.3900
    185      4.6010      9.4520    -17.3630      0.0100     78.3900
    186      3.1090      8.5370    -18.4590      1.5900     78.3900
    187      3.5710      8.7520    -19.2770      0.0100     78.3900
    188      5.0850      7.3340    -17.6970      1.7700     78.3900
    189      5.9420      7.4040    -16.9880      0.0100     78.3900
    190      5.5020      7.1600    -19.0720      1.5900     78.3900
    191      6.8220      7.8740    -19.5590      2.1000     78.3900
    192      7.8910      7.6670    -18.5590      1.5900     78.3900
    193      7.1210      7.4450    -20.9440      1.5900     78.3900
    194      6.4230      9.3940    -19.5520      1.5900     78.3900
    195      5.4490      9.9000    -20.4960      1.7700     78.3900
    196      4.4900      9.3370    -20.4460      0.0100     78.3900
    197      5.8330      9.7990    -21.5370      0.0100     78.3900
    198      5.1500     11.3880    -20.2530      1.7700     78.3900
    199      4.4110     11.7700    -20.9880      0.0100     78.3900
    200      4.5770     11.5850    -18.9270      1.5900     78.3900
    201      5.1150     12.7800    -18.3600      1.7700     78.3900
    202      4.2320     13.4080    -18.1070      0.0100     78.3900
    203      5.8910     12.5360    -17.1120      1.6800     78.3900
    204      6.3820     11.2830    -16.8360      1.7700     78.3900
    205      6.1920     10.5220    -17.5890      0.0100     78.3900
    206      7.0510     11.0230    -15.7070      1.7700     78.3900
    207      7.4390     10.0310    -15.4730      0.0100     78.3900
    208      6.1340     13.5790    -16.2250      1.7700     78.3900
    209      5.7080     14.7140    -16.4950      1.5900     78.3900
    210      6.8260     13.3440    -15.0850      1.6800     78.3900
    211      7.2730     12.1050    -14.8090      1.7700     78.3900
    212      7.9410     11.8940    -13.6790      1.6800     78.3900
    213      8.0820     12.6540    -13.0400      0.0100     78.3900
    214      8.2880     10.9890    -13.4220      0.0100     78.3900
    215      5.9230     13.4860    -19.4390      1.7700     78.3900
    216      6.7900     14.0390    -19.0190      0.0100     78.3900
    217      5.0890     14.3710    -20.1710      1.5900     78.3900
    218      5.5700     14.6690    -20.9610      0.0100     78.3900
    219      6.3790     12.3030    -20.2820      1.7700     78.3900
    220      7.2130     11.7820    -19.7690      0.0100     78.3900
    221      6.7350     12.6370    -21.6360      1.5900     78.3900
    222      7.5510     13.1710    -21.6470      0.0100     78.3900
    223      9.1160     20.0140     -6.2580      0.0100     78.3900
    224      8.6660     19.9420     -7.1180      1.5900     78.3900
    225      8.4310     21.2780     -7.5830      1.7700     78.3900
    226      9.4040     21.8120     -7.6970      0.0100     78.3900
    227      7.8490     21.8240     -6.8110      0.0100     78.3900
    228      7.6730     21.3320     -8.9150      1.7700     78.3900
    229      7.4510     22.3830     -9.2040      0.0100     78.3900
    230      8.5030     20.7640     -9.9790      1.5900     78.3900
    231      7.6730     20.0100    -10.8540      1.7700     78.3900
    232      7.8470     20.3970    -11.8850      0.0100     78.3900
    233      7.9990     18.5750    -10.8250      1.6800     78.3900
    234      7.6620     17.6590    -11.7890      1.7700     78.3900
    235      6.1360     16.8800    -14.7950      1.6800     78.3900
    236      5.7520     17.7540    -15.0860      0.0100     78.3900
    237      5.9870     16.0680    -15.3680      0.0100     78.3900
    238      6.9720     17.9150    -12.9170      1.6800     78.3900
    239      6.7990     16.8260    -13.6590      1.7700     78.3900
    240      7.3090     15.6010    -13.3250      1.6800     78.3900
    241      7.1480     14.8310    -13.9570      0.0100     78.3900
    242      8.0560     15.3130    -12.1930      1.7700     78.3900
    243      8.5010     14.1770    -11.9930      1.5900     78.3900
    244      8.2010     16.4590    -11.3620      1.7700     78.3900
    245      8.8470     16.6120    -10.1400      1.6800     78.3900
    246      8.6950     17.8860     -9.8530      1.7700     78.3900
    247      9.0810     18.3900     -8.9630      0.0100     78.3900
    248      6.2390     20.2710    -10.4610      1.7700     78.3900
    249      5.5700     19.4110    -10.6730      0.0100     78.3900
    250      5.7710     21.4180    -11.1370      1.5900     78.3900
    251      4.8760     21.5760    -10.8130      0.0100     78.3900
    252      6.3630     20.5310     -8.9660      1.7700     78.3900
    253      6.5480     19.5750     -8.4220      0.0100     78.3900
    254      5.2820     21.3130     -8.3960      1.5900     78.3900
    255      4.0330     20.5470     -7.8120      2.1000     78.3900
    256      4.5400     19.4750     -6.9270      1.5900     78.3900
    257      3.1300     21.5480     -7.2020      1.5900     78.3900
    258      3.3580     19.9020     -9.0810      1.5900     78.3900
    259      2.6440     20.7190    -10.0400      1.7700     78.3900
    260      3.3150     21.4780    -10.4900      0.0100     78.3900
    261      1.8000     21.2600     -9.5510      0.0100     78.3900
    262      2.0790     19.8940    -11.2090      1.7700     78.3900
    263      1.5640     20.5530    -11.9420      0.0100     78.3900
    264      3.1600     19.2200    -11.9230      1.5900     78.3900
    265      2.7160     17.9310    -12.3380      1.7700     78.3900
    266      2.8430     17.9340    -13.4460      0.0100     78.3900
    267      3.5080     16.8220    -11.7420      1.6800     78.3900
    268      4.2190     16.9990    -10.5790      1.7700     78.3900
    269      4.1610     18.0010    -10.1540      0.0100     78.3900
    270      3.5050     15.6070    -12.3960      1.7700     78.3900
    271      2.9070     15.4190    -13.4470      1.5900     78.3900
    272      4.2510     14.6310    -11.7900      1.6800     78.3900
    273      4.2330     13.7230    -12.2440      0.0100     78.3900
    274      4.9990     14.7340    -10.6400      1.7700     78.3900
    275      5.6370     13.7650    -10.2320      1.5900     78.3900
    276      4.9700     16.0310    -10.0330      1.7700     78.3900
    277      5.5650     16.2040     -9.1430      0.0100     78.3900
    278      1.2410     17.8200    -12.0050      1.7700     78.3900
    279      0.9550     16.7890    -11.7120      0.0100     78.3900
    280      0.4560     18.2400    -13.1070      1.5900     78.3900
    281     -0.4380     18.4050    -12.7730      0.0100     78.3900
    282      1.1190     18.7640    -10.8180      1.7700     78.3900
    283      1.5650     18.2870     -9.9120      0.0100     78.3900
    284     -0.2170     19.2810    -10.6030      1.5900     78.3900
    285     -1.0630     18.6980     -9.4010      2.1000     78.3900
    286     -0.4120     19.0690     -8.1300      1.5900     78.3900
    287     -2.4630     19.1390     -9.5960      1.5900     78.3900
    288     -0.9790     17.1370     -9.5680      1.5900     78.3900
    289     -1.7970     16.4960    -10.5780      1.7700     78.3900
    290     -1.5620     16.8890    -11.5950      0.0100     78.3900
    291     -2.8820     16.6660    -10.3900      0.0100     78.3900
    292     -1.5540     14.9870    -10.6100      1.7700     78.3900
    293     -2.1260     14.5150    -11.4370      0.0100     78.3900
    294     -0.1550     14.7290    -10.8910      1.5900     78.3900
    295      0.2530     13.5920    -10.1620      1.7700     78.3900
    296      0.6500     12.8880    -10.9200      0.0100     78.3900
    297      1.3240     13.9200     -9.2130      1.6800     78.3900
    298      2.3210     13.0700     -8.8350      1.7700     78.3900
    299      3.8660     10.0050     -9.0310      1.6800     78.3900
    300      3.3110      9.4510     -9.6570      0.0100     78.3900
    301      4.5780      9.5540     -8.4750      0.0100     78.3900
    302      2.4810     11.8130     -9.2730      1.6800     78.3900
    303      3.5360     11.2330     -8.7240      1.7700     78.3900
    304      4.3890     11.8600     -7.8560      1.6800     78.3900
    305      5.1210     11.3030     -7.4500      0.0100     78.3900
    306      4.2740     13.1690     -7.4140      1.7700     78.3900
    307      5.1060     13.6690     -6.6460      1.5900     78.3900
    308      3.1290     13.7980     -7.9780      1.7700     78.3900
    309      2.6450     15.0900     -7.8230      1.6800     78.3900
    310      1.5630     15.1150     -8.5700      1.7700     78.3900
    311      0.9090     15.9780     -8.7140      0.0100     78.3900
    312     -0.9710     12.9830     -9.5020      1.7700     78.3900
    313     -0.7350     12.4950     -8.5290      0.0100     78.3900
    314     -1.5940     12.0570    -10.3830      1.5900     78.3900
    315     -2.2880     11.6150     -9.8800      0.0100     78.3900
    316     -1.8410     14.2160     -9.3130      1.7700     78.3900
    317     -1.4250     14.8430     -8.4890      0.0100     78.3900
    318     -3.2610     13.9450     -9.1860      1.5900     78.3900
    319     -3.9370     14.1730     -7.7830      2.1000     78.3900
    320     -3.6370     15.5430     -7.3170      1.5900     78.3900
    321     -5.3710     13.8040     -7.8660      1.5900     78.3900
    322     -3.2030     13.1490     -6.8390      1.5900     78.3900
    323     -3.3330     13.2510     -5.3980      1.7700     78.3900
    324     -4.3410     13.6230     -5.0910      0.0100     78.3900
    325     -2.5820     13.9680     -4.9960      0.0100     78.3900
    326     -3.0940     11.8930     -4.7120      1.7700     78.3900
    327     -3.1070     12.0030     -3.6060      0.0100     78.3900
    328     -4.1850     10.9910     -5.0590      1.5900     78.3900
    329     -3.6690      9.6940     -5.3130      1.7700     78.3900
    330     -4.2530      9.0000     -4.6660      0.0100     78.3900
    331     -3.8650      9.3100     -6.7120      1.6800     78.3900
    332     -4.1360      8.1380     -8.5480      1.7700     78.3900
    333     -4.3580      9.4650     -8.9040      1.6800     78.3900
    334     -4.1790     10.1160     -7.7810      1.7700     78.3900
    335     -4.2890     11.1940     -7.6560      0.0100     78.3900
    336     -3.9130      5.7810     -8.6210      1.6800     78.3900
    337     -3.5760      5.8510     -7.3320      1.7700     78.3900
    338     -3.3440      4.8930     -6.8570      0.0100     78.3900
    339     -3.5510      6.9150     -6.5230      1.6800     78.3900
    340     -3.8230      8.0350     -7.2050      1.7700     78.3900
    341     -4.2150      6.9300     -9.2730      1.7700     78.3900
    342     -4.5940      6.8660    -10.5580      1.6800     78.3900
    343     -4.7000      7.6960    -11.1090      0.0100     78.3900
    344     -4.4930      5.9950    -11.0400      0.0100     78.3900
    345     -2.2140      9.6700     -4.8950      1.7700     78.3900
    346     -1.5860      9.0040     -5.5250      0.0100     78.3900
    347     -2.1200      9.2630     -3.5390      1.5900     78.3900
    348     -2.4410      8.3430     -3.4580      0.0100     78.3900
    349     -1.8160     11.1280     -5.1130      1.7700     78.3900
    350     -1.6640     11.3120     -6.2020      0.0100     78.3900
    351     -0.7030     11.5630     -4.3130      1.5900     78.3900
    352      0.7000     11.8780     -4.9370      2.1000     78.3900
    353      0.5060     12.6390     -6.1850      1.5900     78.3900
    354      1.4910     12.5550     -3.8820      1.5900     78.3900
    355      1.2840     10.4540     -5.2960      1.5900     78.3900
    356      1.6600      9.4460     -4.3400      1.7700     78.3900
    357      0.8640      9.3230     -3.5690      0.0100     78.3900
    358      2.6000      9.7600     -3.8300      0.0100     78.3900
    359      1.8950      8.0710     -5.0060      1.7700     78.3900
    360      2.2190      7.3120     -4.2580      0.0100     78.3900
    361      0.6330      7.6100     -5.5840      1.5900     78.3900
    362      0.8750      7.0010     -6.8400      1.7700     78.3900
    363      0.4550      5.9700     -6.7690      0.0100     78.3900
    364      0.2030      7.7090     -7.9170      1.6800     78.3900
    365     -0.8430      8.1560     -9.7890      1.7700     78.3900
    366     -0.7200      9.3590     -9.1160      1.6800     78.3900
    367     -0.0850      9.0500     -8.0150      1.7700     78.3900
    368      0.1800      9.7560     -7.2260      0.0100     78.3900
    369     -1.3590      6.5170    -11.4200      1.6800     78.3900
    370     -0.7670      5.6370    -10.6090      1.7700     78.3900
    371     -0.7430      4.6050    -10.9810      0.0100     78.3900
    372     -0.1680      5.8420     -9.4300      1.6800     78.3900
    373     -0.2670      7.1320     -9.0660      1.7700     78.3900
    374     -1.4330      7.8150    -11.0230      1.7700     78.3900
    375     -2.0780      8.7120    -11.7900      1.6800     78.3900
    376     -1.9760      9.6880    -11.5990      0.0100     78.3900
    377     -2.4090      8.4410    -12.6950      0.0100     78.3900
    378      2.3650      6.9220     -7.0620      1.7700     78.3900
    379      2.6610      7.0670     -8.1210      0.0100     78.3900
    380      2.8300      5.6600     -6.6300      1.5900     78.3900
    381      3.7900      5.7270     -6.5500      0.0100     78.3900
    382      2.8730      8.0720     -6.2060      1.7700     78.3900
    383      2.7210      9.0280     -6.7490      0.0100     78.3900
    384      4.2290      7.8870     -5.7940      1.5900     78.3900
    385      5.3160      9.0030     -5.8150      2.1000     78.3900
    386      5.6470      9.3780     -7.2060      1.5900     78.3900
    387      4.9280     10.1480     -4.9570      1.5900     78.3900
    388      6.5810      8.2360     -5.2680      1.5900     78.3900
    389      7.4380      8.5770     -4.1650      1.7700     78.3900
    390      8.2520      9.2610     -4.4900      0.0100     78.3900
    391      7.9360      7.6380     -3.8290      0.0100     78.3900
    392      6.7200      9.1750     -2.9590      1.7700     78.3900
    393      6.3640     10.1940     -3.2080      0.0100     78.3900
    394      5.5620      8.3680     -2.6320      1.5900     78.3900
    395      5.4010      8.3180     -1.2530      1.7700     78.3900
    396      4.3400      8.6030     -1.0840      0.0100     78.3900
    397      5.6800      6.9430     -0.7430      1.6800     78.3900
    398      6.3000      5.9850     -1.5240      1.7700     78.3900
    399      6.6110      6.3100     -2.5190      0.0100     78.3900
    400      5.1590      6.6240      0.4860      1.7700     78.3900
    401      4.5220      7.4110      1.1540      1.5900     78.3900
    402      5.3990      5.3270      0.8840      1.6800     78.3900
    403      5.0430      5.0960      1.8080      0.0100     78.3900
    404      5.9800      4.3130      0.1550      1.7700     78.3900
    405      6.0560      3.1770      0.6220      1.5900     78.3900
    406      6.4500      4.7100     -1.1350      1.7700     78.3900
    407      6.8950      3.9620     -1.7870      0.0100     78.3900
    408      6.3160      9.3860     -0.6840      1.7700     78.3900
    409      6.6150      9.1680      0.3540      0.0100     78.3900
    410      5.6660     10.6470     -0.7430      1.5900     78.3900
    411      5.4500     10.8100     -1.6720      0.0100     78.3900
    412      7.4920      9.3190     -1.6570      1.7700     78.3900
    413      8.0830      8.3830     -1.5150      0.0100     78.3900
    414      8.3080     10.5130     -1.7320      1.5900     78.3900
    415      9.5740     10.6260     -0.8140      2.1000     78.3900
    416     10.3050      9.3460     -0.9240      1.5900     78.3900
    417     10.3260     11.8410     -1.1980      1.5900     78.3900
    418      9.0420     10.7580      0.6650      1.5900     78.3900
    419      8.2770     11.9100      1.0840      1.7700     78.3900
    420      7.4510     12.1360      0.3690      0.0100     78.3900
    421      8.9410     12.8040      1.1350      0.0100     78.3900
    422      7.6510     11.7070      2.4770      1.7700     78.3900
    423      7.0870     12.6120      2.7870      0.0100     78.3900
    424      6.6940     10.6100      2.4590      1.5900     78.3900
    425      6.8010      9.8590      3.6650      1.7700     78.3900
    426      5.7750      9.8510      4.1000      0.0100     78.3900
    427      7.2340      8.4480      3.4450      1.6800     78.3900
    428      7.9200      8.1090      2.3040      1.7700     78.3900
    429      8.1020      8.9200      1.6040      0.0100     78.3900
    430      8.2950      6.8480      2.0580      1.7700     78.3900
    431      8.8040      6.5660      1.1390      0.0100     78.3900
    432      6.9850      7.4720      4.4070      1.7700     78.3900
    433      6.4120      7.7920      5.4600      1.5900     78.3900
    434      7.3580      6.1920      4.1780      1.6800     78.3900
    435      7.9850      5.8630      3.0370      1.7700     78.3900
    436      8.3070      4.5870      2.8220      1.6800     78.3900
    437      8.0650      3.9010      3.5120      0.0100     78.3900
    438      8.7610      4.2800      1.9840      0.0100     78.3900
    439      7.7230     10.6270      4.5930      1.7700     78.3900
    440      8.3060      9.9630      5.2590      0.0100     78.3900
    441      6.9800     11.5460      5.3730      1.5900     78.3900
    442      7.6200     12.0940      5.8460      0.0100     78.3900
    443      8.6310     11.3400      3.5960      1.7700     78.3900
    444      9.3470     10.6090      3.1480      0.0100     78.3900
    445      9.2660     12.5380      4.0980      1.5900     78.3900
    446     10.7670     12.4650      4.5640      2.1000     78.3900
    447     11.5430     11.6800      3.5870      1.5900     78.3900
    448     11.2460     13.8380      4.8380      1.5900     78.3900
    449     10.6740     11.6580      5.9160      1.5900     78.3900
    450     10.1010     12.3230      7.0690      1.7700     78.3900
    451      9.0650     12.6840      6.8620      0.0100     78.3900
    452     10.7160     13.2060      7.3570      0.0100     78.3900
    453     10.0520     11.3830      8.2800      1.7700     78.3900
    454      9.6630     11.9130      9.1760      0.0100     78.3900
    455      9.1480     10.2700      8.0100      1.5900     78.3900
    456      9.6930      9.0860      8.5780      1.7700     78.3900
    457      8.9090      8.6740      9.2530      0.0100     78.3900
    458      9.9990      8.0920      7.5400      1.6800     78.3900
    459     10.3880      6.2080      6.4730      1.7700     78.3900
    460     10.4190      7.2090      5.5120      1.6800     78.3900
    461     10.1830      8.3040      6.1940      1.7700     78.3900
    462     10.1300      9.3080      5.7690      0.0100     78.3900
    463     10.5050      4.1040      7.5530      1.6800     78.3900
    464     10.2860      4.7640      8.6970      1.7700     78.3900
    465     10.2670      4.1480      9.6030      0.0100     78.3900
    466     10.0870      6.0730      8.8890      1.6800     78.3900
    467     10.1440      6.7410      7.7270      1.7700     78.3900
    468     10.5590      4.8090      6.3940      1.7700     78.3900
    469     10.7690      4.1480      5.2410      1.6800     78.3900
    470     10.8700      4.6330      4.3680      0.0100     78.3900
    471     10.8870      3.1520      5.2410      0.0100     78.3900
    472     10.9140      9.4730      9.3960      1.7700     78.3900
    473     11.6980      8.6860      9.3730      0.0100     78.3900
    474     10.5350      9.7380     10.7400      1.5900     78.3900
    475     11.2970     10.1000     11.2290      0.0100     78.3900
    476     11.3850     10.7240      8.6560      1.7700     78.3900
    477     11.9170     10.4420      7.7190      0.0100     78.3900
    478     12.1880     11.6200      9.4470      1.5900     78.3900
    479     13.0380     11.2000      9.6660      0.0100     78.3900
    480     10.9370     -5.4990      7.5590      0.0100     78.3900
    481     10.8080     -4.6550      8.0310      1.5900     78.3900
    482     10.9810     -4.9200      9.4310      1.7700     78.3900
    483     12.0250     -5.2640      9.6080      0.0100     78.3900
    484     10.2900     -5.7390      9.7320      0.0100     78.3900
    485     10.7050     -3.6990     10.3220      1.7700     78.3900
    486     10.7690     -3.9810     11.3960      0.0100     78.3900
    487     11.7050     -2.6570     10.0900      1.5900     78.3900
    488     11.0720     -1.3840     10.1320      1.7700     78.3900
    489     11.6280     -0.7790     10.8830      0.0100     78.3900
    490     11.1000     -0.6990      8.8060      1.6800     78.3900
    491     11.3220     -1.3970      7.6390      1.7700     78.3900
    492     11.5010     -2.4660      7.7540      0.0100     78.3900
    493     10.8650      0.6640      8.7860      1.7700     78.3900
    494     10.6400      1.3120      9.7860      1.5900     78.3900
    495     10.9270      1.2310      7.5350      1.6800     78.3900
    496     10.7700      2.2320      7.5130      0.0100     78.3900
    497     11.1980      0.6120      6.3390      1.7700     78.3900
    498     11.2870      1.2800      5.3080      1.5900     78.3900
    499     11.3740     -0.8070      6.4350      1.7700     78.3900
    500     11.5930     -1.3750      5.5350      0.0100     78.3900
    501      9.6580     -1.6110     10.6300      1.7700     78.3900
    502      8.9440     -0.8600     10.2340      0.0100     78.3900
    503      9.6310     -1.5960     12.0440      1.5900     78.3900
    504      8.7240     -1.8040     12.2930      0.0100     78.3900
    505      9.3560     -3.0010     10.0820      1.7700     78.3900
    506      9.2020     -2.9590      8.9780      0.0100     78.3900
    507      8.3010     -3.7160     10.7660      1.5900     78.3900
    508      6.8080     -3.5400     10.2930      2.1000     78.3900
    509      6.7460     -3.7400      8.8320      1.5900     78.3900
    510      5.9450     -4.3970     11.1350      1.5900     78.3900
    511      6.4890     -2.0330     10.6080      1.5900     78.3900
    512      6.2730     -1.5840     11.9680      1.7700     78.3900
    513      7.1590     -1.7900     12.6030      0.0100     78.3900
    514      5.4060     -2.1150     12.4250      0.0100     78.3900
    515      5.9920     -0.0730     12.0230      1.7700     78.3900
    516      5.8740      0.2740     13.0720      0.0100     78.3900
    517      7.1060      0.6680     11.4430      1.5900     78.3900
    518      6.5940      1.7720     10.7060      1.7700     78.3900
    519      7.0790      2.6850     11.1220      0.0100     78.3900
    520      6.9190      1.6680      9.2760      1.6800     78.3900
    521      6.9270      2.7000      8.3790      1.7700     78.3900
    522      6.4320      6.0480      7.6520      1.6800     78.3900
    523      6.1420      6.4260      8.5320      0.0100     78.3900
    524      6.4340      6.6410      6.8400      0.0100     78.3900
    525      6.6210      3.9810      8.6470      1.6800     78.3900
    526      6.7160      4.7610      7.5750      1.7700     78.3900
    527      7.0790      4.2940      6.3400      1.6800     78.3900
    528      7.1340      4.9530      5.5780      0.0100     78.3900
    529      7.4070      2.9790      6.0350      1.7700     78.3900
    530      7.7320      2.6460      4.8920      1.5900     78.3900
    531      7.3020      2.1400      7.1740      1.7700     78.3900
    532      7.5150      0.7740      7.3080      1.6800     78.3900
    533      7.2640      0.5350      8.5730      1.7700     78.3900
    534      7.3160     -0.4410      9.0560      0.0100     78.3900
    535      5.1020      1.8410     10.9460      1.7700     78.3900
    536      4.5380      2.2300     10.0720      0.0100     78.3900
    537      4.8320      2.6390     12.0820      1.5900     78.3900
    538      3.8850      2.5550     12.2700      0.0100     78.3900
    539      4.7720      0.3800     11.2100      1.7700     78.3900
    540      4.7980     -0.2000     10.2590      0.0100     78.3900
    541      3.5610      0.1550     11.9650      1.5900     78.3900
    542      2.1910      0.1990     11.1880      2.1000     78.3900
    543      2.3790     -0.3020      9.8080      1.5900     78.3900
    544      1.2110     -0.5060     12.0450      1.5900     78.3900
    545      1.8090      1.7230     11.1600      1.5900     78.3900
    546      0.7460      2.1710     10.2750      1.7700     78.3900
    547     -0.2320      2.1490     10.8110      0.0100     78.3900
    548      0.6310      1.5120      9.3780      0.0100     78.3900
    549      0.9900      3.6090      9.7710      1.7700     78.3900
    550      0.7620      4.3450     10.5760      0.0100     78.3900
    551      2.3950      3.7830      9.4190      1.5900     78.3900
    552      2.5080      4.5490      8.2370      1.7700     78.3900
    553      3.2050      5.3910      8.4690      0.0100     78.3900
    554      3.0550      3.7400      7.1410      1.6800     78.3900
    555      3.9370      3.1250      5.2240      1.7700     78.3900
    556      3.7790      1.9610      5.9690      1.6800     78.3900
    557      3.2590      2.3770      7.0990      1.7700     78.3900
    558      2.9990      1.7330      7.9460      0.0100     78.3900
    559      4.4640      4.6570      3.5000      1.6800     78.3900
    560      3.9910      5.6110      4.3060      1.7700     78.3900
    561      4.0320      6.6280      3.9050      0.0100     78.3900
    562      3.5020      5.5030      5.5440      1.6800     78.3900
    563      3.4920      4.2230      5.9390      1.7700     78.3900
    564      4.4630      3.3740      3.9370      1.7700     78.3900
    565      4.9850      2.4280      3.1360      1.6800     78.3900
    566      5.0780      1.4740      3.4270      0.0100     78.3900
    567      5.3890      2.6970      2.2580      0.0100     78.3900
    568      1.1320      5.0980      7.9250      1.7700     78.3900
    569      0.9580      5.2470      6.8370      0.0100     78.3900
    570      0.9370      6.3210      8.6150      1.5900     78.3900
    571     -0.0020      6.5430      8.5500      0.0100     78.3900
    572      0.2410      3.9970      8.4820      1.7700     78.3900
    573      0.2790      3.1030      7.8150      0.0100     78.3900
    574     -1.1040      4.4220      8.7880      1.5900     78.3900
    575     -2.2490      4.1330      7.7430      2.1000     78.3900
    576     -2.1770      2.7080      7.3540      1.5900     78.3900
    577     -3.5320      4.6000      8.3110      1.5900     78.3900
    578     -1.8690      5.0100      6.4950      1.5900     78.3900
    579     -2.0170      6.4480      6.5080      1.7700     78.3900
    580     -1.4100      6.9050      7.3230      0.0100     78.3900
    581     -3.0830      6.7340      6.6780      0.0100     78.3900
    582     -1.5660      7.0630      5.1740      1.7700     78.3900
    583     -1.6480      8.1710      5.1910      0.0100     78.3900
    584     -0.1660      6.7420      4.9310      1.5900     78.3900
    585      0.0270      6.4810      3.5470      1.7700     78.3900
    586      0.8250      7.1720      3.1920      0.0100     78.3900
    587      0.4660      5.0930      3.3200      1.6800     78.3900
    588      1.0890      4.6070      2.2000      1.7700     78.3900
    589      2.4530      5.1300     -0.9390      1.6800     78.3900
    590      2.2240      6.0810     -1.1240      0.0100     78.3900
    591      2.8670      4.5650     -1.6610      0.0100     78.3900
    592      1.3950      5.3140      1.0990      1.6800     78.3900
    593      2.0570      4.5950      0.1990      1.7700     78.3900
    594      2.3800      3.2770      0.3840      1.6800     78.3900
    595      2.8500      2.7920     -0.3660      0.0100     78.3900
    596      2.0770      2.5210      1.5100      1.7700     78.3900
    597      2.4040      1.3320      1.6190      1.5900     78.3900
    598      1.3520      3.2780      2.4690      1.7700     78.3900
    599      0.8670      2.9190      3.7250      1.6800     78.3900
    600      0.3440      4.0310      4.1880      1.7700     78.3900
    601     -0.1500      4.1400      5.1550      0.0100     78.3900
    602     -1.2710      6.7950      2.8310      1.7700     78.3900
    603     -1.4490      6.1320      1.9610      0.0100     78.3900
    604     -1.2880      8.1400      2.3970      1.5900     78.3900
    605     -2.1720      8.2920      2.0430      0.0100     78.3900
    606     -2.3010      6.5470      3.9270      1.7700     78.3900
    607     -2.4410      5.4490      4.0800      0.0100     78.3900
    608     -3.5430      7.2700      3.7540      1.5900     78.3900
    609     -4.7950      6.5340      3.1530      2.1000     78.3900
    610     -4.8760      5.1670      3.7150      1.5900     78.3900
    611     -5.9780      7.3940      3.3430      1.5900     78.3900
    612     -4.4790      6.4590      1.6180      1.5900     78.3900
    613     -4.5140      7.6490      0.7910      1.7700     78.3900
    614     -3.9220      8.4810      1.2390      0.0100     78.3900
    615     -5.5610      8.0110      0.6690      0.0100     78.3900
    616     -3.9570      7.3580     -0.6090      1.7700     78.3900
    617     -3.9900      8.2650     -1.2520      0.0100     78.3900
    618     -2.5560      6.9540     -0.5040      1.5900     78.3900
    619     -2.3110      5.9310     -1.4610      1.7700     78.3900
    620     -1.4500      6.2690     -2.0840      0.0100     78.3900
    621     -1.9710      4.6630     -0.8040      1.6800     78.3900
    622     -1.1300      2.6870     -0.3310      1.7700     78.3900
    623     -1.8420      3.0790      0.7920      1.6800     78.3900
    624     -2.3260      4.2480      0.4570      1.7700     78.3900
    625     -2.9300      4.8770      1.1060      0.0100     78.3900
    626      0.2480      1.4770     -1.8200      1.6800     78.3900
    627      0.0820      2.4910     -2.6750      1.7700     78.3900
    628      0.5920      2.3830     -3.6380      0.0100     78.3900
    629     -0.6430      3.6060     -2.5350      1.6800     78.3900
    630     -1.2050      3.6540     -1.3220      1.7700     78.3900
    631     -0.3540      1.5430     -0.6100      1.7700     78.3900
    632     -0.1550      0.5340      0.2570      1.6800     78.3900
    633     -0.4970      0.5660      1.2000      0.0100     78.3900
    634      0.5000     -0.1890      0.0180      0.0100     78.3900
    635     -3.5340      5.8190     -2.3440      1.7700     78.3900
    636     -3.6730      4.8040     -2.7670      0.0100     78.3900
    637     -3.4460      6.7640     -3.3910      1.5900     78.3900
    638     -4.1300      6.5540     -4.0400      0.0100     78.3900
    639     -4.6360      6.1950     -1.3670      1.7700     78.3900
    640     -4.7920      5.3750     -0.6260      0.0100     78.3900
    641     -5.8690      6.6440     -1.9870      1.5900     78.3900
    642     -7.0320      5.5950     -2.1890      2.1000     78.3900
    643     -7.1850      4.8210     -0.9380      1.5900     78.3900
    644     -8.2350      6.2950     -2.6870      1.5900     78.3900
    645     -6.5040      4.6270     -3.3120      1.5900     78.3900
    646     -6.4350      5.0610     -4.6900      1.7700     78.3900
    647     -5.8200      5.9860     -4.7810      0.0100     78.3900
    648     -7.4530      5.2760     -5.0940      0.0100     78.3900
    649     -5.7780      3.9960     -5.5770      1.7700     78.3900
    650     -5.6960      4.3500     -6.6280      0.0100     78.3900
    651     -4.4300      3.7320     -5.0900      1.5900     78.3900
    652     -4.1380      2.3550     -5.2420      1.7700     78.3900
    653     -3.2010      2.2830     -5.8410      0.0100     78.3900
    654     -3.9280      1.7110     -3.9400      1.6800     78.3900
    655     -3.2860      0.5250     -3.7230      1.7700     78.3900
    656     -1.6500     -2.2760     -4.9370      1.6800     78.3900
    657     -1.6660     -2.1340     -5.9230      0.0100     78.3900
    658     -1.2970     -3.1450     -4.5770      0.0100     78.3900
    659     -2.7590     -0.2720     -4.6680      1.6800     78.3900
    660     -2.1910     -1.3600     -4.1560      1.7700     78.3900
    661     -2.1430     -1.6140     -2.8100      1.6800     78.3900
    662     -1.7130     -2.4740     -2.5080      0.0100     78.3900
    663     -2.6760     -0.8120     -1.8110      1.7700     78.3900
    664     -2.5990     -1.1210     -0.6170      1.5900     78.3900
    665     -3.3040      0.3400     -2.3540      1.7700     78.3900
    666     -3.9740      1.3790     -1.7230      1.6800     78.3900
    667     -4.3350      2.1680     -2.7050      1.7700     78.3900
    668     -4.8820      3.1050     -2.6000      0.0100     78.3900
    669     -5.2810      1.7320     -6.0140      1.7700     78.3900
    670     -5.4510      0.6760     -5.7340      0.0100     78.3900
    671     -5.0270      1.8090     -7.4030      1.5900     78.3900
    672     -5.8200      1.4900     -7.8530      0.0100     78.3900
    673     -6.4520      2.6190     -5.6020      1.7700     78.3900
    674     -6.7540      2.4040     -4.5520      0.0100     78.3900
    675     -7.5660      2.6290     -6.5250      1.5900     78.3900
    676     -8.8000      1.6920     -6.2450      2.1000     78.3900
    677     -9.1420      1.7590     -4.8080      1.5900     78.3900
    678     -9.8750      2.0230     -7.2090      1.5900     78.3900
    679     -8.2440      0.2530     -6.5700      1.5900     78.3900
    680     -7.9150     -0.1030     -7.9340      1.7700     78.3900
    681     -7.1820      0.6120     -8.3720      0.0100     78.3900
    682     -8.8290     -0.0870     -8.5720      0.0100     78.3900
    683     -7.3000     -1.5070     -8.0190      1.7700     78.3900
    684     -7.1040     -1.7940     -9.0740      0.0100     78.3900
    685     -6.0160     -1.5180     -7.3270      1.5900     78.3900
    686     -5.8630     -2.7540     -6.6380      1.7700     78.3900
    687     -4.9080     -3.1880     -7.0220      0.0100     78.3900
    688     -5.7670     -2.5880     -5.1580      1.6800     78.3900
    689     -6.2650     -1.4570     -4.5570      1.7700     78.3900
    690     -6.7020     -0.7180     -5.2260      0.0100     78.3900
    691     -6.1880     -1.2690     -3.2350      1.7700     78.3900
    692     -6.5380     -0.3570     -2.7540      0.0100     78.3900
    693     -5.2150     -3.5930     -4.3700      1.7700     78.3900
    694     -4.7980     -4.6270     -4.9130      1.5900     78.3900
    695     -5.1460     -3.4330     -3.0280      1.6800     78.3900
    696     -5.6140     -2.3100     -2.4540      1.7700     78.3900
    697     -5.5230     -2.1700     -1.1330      1.6800     78.3900
    698     -5.0920     -2.8920     -0.5860      0.0100     78.3900
    699     -5.7990     -1.3270     -0.6740      0.0100     78.3900
    700     -7.0190     -3.6560     -7.0480      1.7700     78.3900
    701     -7.3360     -4.3290     -6.2230      0.0100     78.3900
    702     -6.6570     -4.4260     -8.1850      1.5900     78.3900
    703     -7.4550     -4.8560     -8.5390      0.0100     78.3900
    704     -8.1090     -2.6310     -7.3570      1.7700     78.3900
    705     -8.5420     -2.2360     -6.4140      0.0100     78.3900
    706     -9.1420     -3.1060     -8.2400      1.5900     78.3900
    707     -9.6790     -3.7780     -7.7870      0.0100     78.3900

     ----------------------------
     INPUT FOR TESSERA DEFINITION
     ----------------------------
     NTSALL  =        60     MTHALL  =         4
     MTHAUT  =         0     AUTFRE  =    2.0000
     NTSFRZ  =        60     KEEPSM  =         0
     AREAKP  =   10.0000     BONDRY  =    1.0000
     AREATL  =    0.0100

     SPHERE     INITS       METHOD
          1        60       FIXPVA
          2        60       FIXPVA
          3        60       FIXPVA
          4        60       FIXPVA
          5        60       FIXPVA
          6        60       FIXPVA
          7        60       FIXPVA
          8        60       FIXPVA
          9        60       FIXPVA
         10        60       FIXPVA
         11        60       FIXPVA
         12        60       FIXPVA
         13        60       FIXPVA
         14        60       FIXPVA
         15        60       FIXPVA
         16        60       FIXPVA
         17        60       FIXPVA
         18        60       FIXPVA
         19        60       FIXPVA
         20        60       FIXPVA
         21        60       FIXPVA
         22        60       FIXPVA
         23        60       FIXPVA
         24        60       FIXPVA
         25        60       FIXPVA
         26        60       FIXPVA
         27        60       FIXPVA
         28        60       FIXPVA
         29        60       FIXPVA
         30        60       FIXPVA
         31        60       FIXPVA
         32        60       FIXPVA
         33        60       FIXPVA
         34        60       FIXPVA
         35        60       FIXPVA
         36        60       FIXPVA
         37        60       FIXPVA
         38        60       FIXPVA
         39        60       FIXPVA
         40        60       FIXPVA
         41        60       FIXPVA
         42        60       FIXPVA
         43        60       FIXPVA
         44        60       FIXPVA
         45        60       FIXPVA
         46        60       FIXPVA
         47        60       FIXPVA
         48        60       FIXPVA
         49        60       FIXPVA
         50        60       FIXPVA
         51        60       FIXPVA
         52        60       FIXPVA
         53        60       FIXPVA
         54        60       FIXPVA
         55        60       FIXPVA
         56        60       FIXPVA
         57        60       FIXPVA
         58        60       FIXPVA
         59        60       FIXPVA
         60        60       FIXPVA
         61        60       FIXPVA
         62        60       FIXPVA
         63        60       FIXPVA
         64        60       FIXPVA
         65        60       FIXPVA
         66        60       FIXPVA
         67        60       FIXPVA
         68        60       FIXPVA
         69        60       FIXPVA
         70        60       FIXPVA
         71        60       FIXPVA
         72        60       FIXPVA
         73        60       FIXPVA
         74        60       FIXPVA
         75        60       FIXPVA
         76        60       FIXPVA
         77        60       FIXPVA
         78        60       FIXPVA
         79        60       FIXPVA
         80        60       FIXPVA
         81        60       FIXPVA
         82        60       FIXPVA
         83        60       FIXPVA
         84        60       FIXPVA
         85        60       FIXPVA
         86        60       FIXPVA
         87        60       FIXPVA
         88        60       FIXPVA
         89        60       FIXPVA
         90        60       FIXPVA
         91        60       FIXPVA
         92        60       FIXPVA
         93        60       FIXPVA
         94        60       FIXPVA
         95        60       FIXPVA
         96        60       FIXPVA
         97        60       FIXPVA
         98        60       FIXPVA
         99        60       FIXPVA
        100        60       FIXPVA
        101        60       FIXPVA
        102        60       FIXPVA
        103        60       FIXPVA
        104        60       FIXPVA
        105        60       FIXPVA
        106        60       FIXPVA
        107        60       FIXPVA
        108        60       FIXPVA
        109        60       FIXPVA
        110        60       FIXPVA
        111        60       FIXPVA
        112        60       FIXPVA
        113        60       FIXPVA
        114        60       FIXPVA
        115        60       FIXPVA
        116        60       FIXPVA
        117        60       FIXPVA
        118        60       FIXPVA
        119        60       FIXPVA
        120        60       FIXPVA
        121        60       FIXPVA
        122        60       FIXPVA
        123        60       FIXPVA
        124        60       FIXPVA
        125        60       FIXPVA
        126        60       FIXPVA
        127        60       FIXPVA
        128        60       FIXPVA
        129        60       FIXPVA
        130        60       FIXPVA
        131        60       FIXPVA
        132        60       FIXPVA
        133        60       FIXPVA
        134        60       FIXPVA
        135        60       FIXPVA
        136        60       FIXPVA
        137        60       FIXPVA
        138        60       FIXPVA
        139        60       FIXPVA
        140        60       FIXPVA
        141        60       FIXPVA
        142        60       FIXPVA
        143        60       FIXPVA
        144        60       FIXPVA
        145        60       FIXPVA
        146        60       FIXPVA
        147        60       FIXPVA
        148        60       FIXPVA
        149        60       FIXPVA
        150        60       FIXPVA
        151        60       FIXPVA
        152        60       FIXPVA
        153        60       FIXPVA
        154        60       FIXPVA
        155        60       FIXPVA
        156        60       FIXPVA
        157        60       FIXPVA
        158        60       FIXPVA
        159        60       FIXPVA
        160        60       FIXPVA
        161        60       FIXPVA
        162        60       FIXPVA
        163        60       FIXPVA
        164        60       FIXPVA
        165        60       FIXPVA
        166        60       FIXPVA
        167        60       FIXPVA
        168        60       FIXPVA
        169        60       FIXPVA
        170        60       FIXPVA
        171        60       FIXPVA
        172        60       FIXPVA
        173        60       FIXPVA
        174        60       FIXPVA
        175        60       FIXPVA
        176        60       FIXPVA
        177        60       FIXPVA
        178        60       FIXPVA
        179        60       FIXPVA
        180        60       FIXPVA
        181        60       FIXPVA
        182        60       FIXPVA
        183        60       FIXPVA
        184        60       FIXPVA
        185        60       FIXPVA
        186        60       FIXPVA
        187        60       FIXPVA
        188        60       FIXPVA
        189        60       FIXPVA
        190        60       FIXPVA
        191        60       FIXPVA
        192        60       FIXPVA
        193        60       FIXPVA
        194        60       FIXPVA
        195        60       FIXPVA
        196        60       FIXPVA
        197        60       FIXPVA
        198        60       FIXPVA
        199        60       FIXPVA
        200        60       FIXPVA
        201        60       FIXPVA
        202        60       FIXPVA
        203        60       FIXPVA
        204        60       FIXPVA
        205        60       FIXPVA
        206        60       FIXPVA
        207        60       FIXPVA
        208        60       FIXPVA
        209        60       FIXPVA
        210        60       FIXPVA
        211        60       FIXPVA
        212        60       FIXPVA
        213        60       FIXPVA
        214        60       FIXPVA
        215        60       FIXPVA
        216        60       FIXPVA
        217        60       FIXPVA
        218        60       FIXPVA
        219        60       FIXPVA
        220        60       FIXPVA
        221        60       FIXPVA
        222        60       FIXPVA
        223        60       FIXPVA
        224        60       FIXPVA
        225        60       FIXPVA
        226        60       FIXPVA
        227        60       FIXPVA
        228        60       FIXPVA
        229        60       FIXPVA
        230        60       FIXPVA
        231        60       FIXPVA
        232        60       FIXPVA
        233        60       FIXPVA
        234        60       FIXPVA
        235        60       FIXPVA
        236        60       FIXPVA
        237        60       FIXPVA
        238        60       FIXPVA
        239        60       FIXPVA
        240        60       FIXPVA
        241        60       FIXPVA
        242        60       FIXPVA
        243        60       FIXPVA
        244        60       FIXPVA
        245        60       FIXPVA
        246        60       FIXPVA
        247        60       FIXPVA
        248        60       FIXPVA
        249        60       FIXPVA
        250        60       FIXPVA
        251        60       FIXPVA
        252        60       FIXPVA
        253        60       FIXPVA
        254        60       FIXPVA
        255        60       FIXPVA
        256        60       FIXPVA
        257        60       FIXPVA
        258        60       FIXPVA
        259        60       FIXPVA
        260        60       FIXPVA
        261        60       FIXPVA
        262        60       FIXPVA
        263        60       FIXPVA
        264        60       FIXPVA
        265        60       FIXPVA
        266        60       FIXPVA
        267        60       FIXPVA
        268        60       FIXPVA
        269        60       FIXPVA
        270        60       FIXPVA
        271        60       FIXPVA
        272        60       FIXPVA
        273        60       FIXPVA
        274        60       FIXPVA
        275        60       FIXPVA
        276        60       FIXPVA
        277        60       FIXPVA
        278        60       FIXPVA
        279        60       FIXPVA
        280        60       FIXPVA
        281        60       FIXPVA
        282        60       FIXPVA
        283        60       FIXPVA
        284        60       FIXPVA
        285        60       FIXPVA
        286        60       FIXPVA
        287        60       FIXPVA
        288        60       FIXPVA
        289        60       FIXPVA
        290        60       FIXPVA
        291        60       FIXPVA
        292        60       FIXPVA
        293        60       FIXPVA
        294        60       FIXPVA
        295        60       FIXPVA
        296        60       FIXPVA
        297        60       FIXPVA
        298        60       FIXPVA
        299        60       FIXPVA
        300        60       FIXPVA
        301        60       FIXPVA
        302        60       FIXPVA
        303        60       FIXPVA
[...]
   656   21   7.0   9.03   17.7   -0.091817   -0.972713   -1.052563
   657   21   1.0   0.00    0.0    0.000000    0.440172    0.439277
   658   21   1.0   0.00    0.0    0.000000    0.472118    0.522874
   659   21   7.0   5.56   10.9    0.091236   -0.758653   -0.760423
   660   21   6.0   0.00    0.0    0.000000    0.991205    0.985872
   661   21   7.0   0.00    0.0    0.000000   -0.931776   -1.025136
   662   21   1.0   0.00    0.0    0.000000    0.479673    0.545493
   663   21   6.0   0.00    0.0    0.000000    0.886382    0.902352
   664   21   8.0   6.97   15.2    0.135038   -0.754247   -0.746009
   665   21   6.0   0.00    0.0    0.000000   -0.064201   -0.058432
   666   21   7.0   6.64   13.0    0.117460   -0.586907   -0.589055
   667   21   6.0   2.75    4.8    0.010873    0.261893    0.253728
   668   21   1.0   0.00    0.0    0.000000    0.273440    0.291699
   669   21   6.0   0.00    0.0    0.000138    0.146421    0.104560
   670   21   1.0   0.00    0.0    0.000000    0.174900    0.220590
   671   21   8.0  13.63   29.8    0.073466   -0.818519   -0.837404
   672   21   1.0   0.00    0.0    0.000000    0.494293    0.523107
   673   21   6.0   0.94    1.7   -0.018028    0.137481    0.110202
   674   21   1.0   0.00    0.0    0.000000    0.251121    0.254515
   675   21   8.0   5.69   12.4    0.059840   -0.794230   -0.800466
   676   21  15.0   9.54   11.9    0.127331    1.608005    1.658772
   677   21   8.0  14.02   30.7    0.313895   -0.892503   -0.889372
   678   21   8.0  18.20   39.8    0.369639   -0.895496   -0.889141
   679   21   8.0   0.96    2.1    0.015674   -0.975600   -0.790350
   680   22   6.0  12.72   22.4   -0.097207    0.206447   -0.025591
   681   22   1.0   0.00    0.0    0.000000    0.147777    0.172715
   682   22   1.0   0.00    0.0    0.000000    0.245389    0.228014
   683   22   6.0   6.33   11.2   -0.046072    0.091863    0.148236
   684   22   1.0   0.00    0.0    0.000000    0.254190    0.228722
   685   22   8.0   3.92    8.6    0.048877   -0.727717   -0.734813
   686   22   6.0   4.85    8.6   -0.038543    0.419190    0.416630
   687   22   1.0   0.00    0.0    0.000000    0.253490    0.251772
   688   22   7.0   0.25    0.5   -0.002015   -0.823531   -0.833272
   689   22   6.0   2.82    5.0   -0.001728    0.193653    0.177120
   690   22   1.0   0.00    0.0    0.000000    0.303081    0.331817
   691   22   6.0   7.92   14.0   -0.033066   -0.392165   -0.407514
   692   22   1.0   0.00    0.0    0.000000    0.273374    0.276144
   693   22   6.0   2.10    3.7   -0.001102    1.069464    1.077853
   694   22   8.0   8.29   18.1    0.137355   -0.800203   -0.766280
   695   22   7.0   1.92    3.8    0.019774   -0.870140   -0.865675
   696   22   6.0   1.17    2.1   -0.000831    0.719902    0.728397
   697   22   7.0  13.82   27.1   -0.080921   -0.944389   -1.000552
   698   22   1.0   0.00    0.0    0.000000    0.463161    0.503377
   699   22   1.0   0.00    0.0    0.000000    0.449798    0.445844
   700   22   6.0   4.75    8.4   -0.048781    0.122512    0.123720
   701   22   1.0   0.00    0.0    0.000000    0.223186    0.221280
   702   22   8.0  20.03   43.8    0.044712   -0.838350   -0.838562
   703   22   1.0   0.00    0.0    0.000000    0.501153    0.502364
   704   22   6.0   5.94   10.5   -0.056668    0.159023    0.142434
   705   22   1.0   0.00    0.0    0.000000    0.223375    0.224586
   706   22   8.0  21.75   47.5   -0.022890   -0.849909   -0.852347
   707   22   1.0   0.00    0.0    0.000000    0.509392    0.509284

 Done with FMO properties.
 CPU     0: STEP CPU TIME=     0.01 TOTAL CPU TIME=      48497.1 (    808.3 MIN)
 TOTAL WALL CLOCK TIME=     110292.8 SECONDS, CPU UTILIZATION IS    43.97%
 CPU     0: STEP CPU TIME=     0.00 TOTAL CPU TIME=      48497.1 (    808.3 MIN)
 TOTAL WALL CLOCK TIME=     110292.8 SECONDS, CPU UTILIZATION IS    43.97%

 Total timing statistics in pairs (CPU,wall) for each rank, sec

    Rank   total     SCF    corr     DFT    CPHF     EFP    solv     ESP    geom
 -------------------------------------------------------------------------------
       1   48497.1  11972.7  18440.0      0.0    0.0   0.0  623.8 16122.4    0.0
       1  110293.0  25741.4  46634.9      0.0    0.0   0.0 1689.9 33033.8    0.0
       2   47544.0  11769.9  17640.4      0.0    0.0   0.0  626.0 16149.9    0.0
       2  110293.0  25731.7  46637.6      0.0    0.0   0.0 1690.2 33032.5    0.0
       3   47472.0  11854.2  17615.0      0.0    0.0   0.0  629.1 16039.9    0.0
       3  110292.9  25731.9  46637.5      0.0    0.0   0.0 1690.1 33032.7    0.0
       4   48317.2  11891.1  17982.2      0.0    0.0   0.0  627.0 16436.3    0.0
       4  110293.0  25733.7  46637.5      0.0    0.0   0.0 1687.9 33032.3    0.0
       5   47804.9  11827.6  18113.9      0.0    0.0   0.0  624.3 15840.2    0.0
       5  110292.9  25732.4  46639.2      0.0    0.0   0.0 1690.0 33032.8    0.0
       6   47662.9  11795.4  17801.2      0.0    0.0   0.0  627.2 16118.5    0.0
       6  110293.0  25733.9  46637.4      0.0    0.0   0.0 1687.9 33032.4    0.0
       7   48250.6  11807.2  18098.9      0.0    0.0   0.0  632.9 16301.6    0.0
       7  110293.0  25733.7  46637.3      0.0    0.0   0.0 1688.6 33032.4    0.0
       8   49912.3  11930.4  19009.4      0.0    0.0   0.0  632.9 16938.6    0.0
       8  110293.0  25734.7  46637.3      0.0    0.0   0.0 1686.7 33032.1    0.0
       9   47319.7  11753.2  17913.3      0.0    0.0   0.0  611.5 15683.9    0.0
       9  110293.0  25734.9  46638.3      0.0    0.0   0.0 1686.8 33032.5    0.0
      10   47344.1  11684.3  17894.9      0.0    0.0   0.0  619.6 15758.3    0.0
      10  110292.9  25733.9  46638.3      0.0    0.0   0.0 1687.5 33032.2    0.0
      11   46749.7  11736.0  17415.8      0.0    0.0   0.0  615.9 15647.3    0.0
      11  110293.0  25735.6  46637.3      0.0    0.0   0.0 1686.5 33032.0    0.0
      12   48488.3  11843.5  18750.6      0.0    0.0   0.0  616.9 15952.0    0.0
      12  110292.9  25736.2  46638.2      0.0    0.0   0.0 1685.0 33031.8    0.0
      13   48296.1  11924.4  18109.1      0.0    0.0   0.0  614.7 16297.6    0.0
      13  110293.0  25736.6  46637.3      0.0    0.0   0.0 1685.9 33031.9    0.0
      14   48498.5  11879.8  18392.5      0.0    0.0   0.0  620.5 16254.9    0.0
      14  110292.9  25736.6  46638.2      0.0    0.0   0.0 1685.2 33031.5    0.0
      15   48981.3  11965.5  18502.0      0.0    0.0   0.0  617.0 16554.7    0.0
      15  110292.9  25737.4  46637.2      0.0    0.0   0.0 1684.6 33031.6    0.0
      16   48459.9  11915.6  17928.5      0.0    0.0   0.0  620.1 16644.3    0.0
      16  110293.0  25738.1  46637.2      0.0    0.0   0.0 1682.6 33031.3    0.0
averaged   48099.9  11846.9  18100.5      0.0    0.0   0.0  622.5 16171.3    0.0
averaged  110293.0  25735.2  46637.5      0.0    0.0   0.0 1687.2 33032.2    0.0

  FMO  timing statistics in pairs (CPU,wall) for each rank, sec

    Rank  FMOini FMOscf1  FMOdm1 FMOsyn1 FMOscf2  FMOes2 FMOsyn2 FMOscf3 FMOsyn3
 -------------------------------------------------------------------------------
       1    4.7   16332.2    0.7    0.0   31187.7     971.7    0.0    0.0    0.0
       1   11.7   35356.5    1.4    0.0   72873.1    2049.8    0.1    0.0    0.0
       2    3.5   16400.4    0.2    0.0   30138.3    1001.5    0.0    0.0    0.0
       2   11.7   35356.5    1.4    0.0   72878.7    2044.2    0.1    0.0    0.0
       3    3.9   16351.4    0.3    0.0   30142.1     974.2    0.0    0.0    0.0
       3   11.7   35356.5    1.4    0.0   72881.3    2041.5    0.1    0.0    0.0
       4    3.5   16753.1    0.1    0.0   30536.3    1024.1    0.0    0.0    0.0
       4   11.7   35356.5    1.4    0.0   72882.0    2040.9    0.1    0.0    0.0
       5    4.2   16422.0    0.4    0.0   30338.1    1040.2    0.0    0.0    0.0
       5   11.7   35356.5    1.4    0.0   72879.4    2043.4    0.1    0.0    0.0
       6    3.7   16642.0    0.2    0.0   30054.5     962.6    0.0    0.0    0.0
       6   11.7   35356.5    1.4    0.0   72878.2    2044.6    0.1    0.0    0.0
       7    3.9   16891.1    0.3    0.0   30308.1    1047.2    0.0    0.0    0.0
       7   11.7   35356.5    1.4    0.0   72879.7    2043.1    0.1    0.0    0.0
       8    3.4   17279.2    0.2    0.0   31585.6    1044.0    0.0    0.0    0.0
       8   11.7   35356.5    1.4    0.0   72881.5    2041.3    0.1    0.0    0.0
       9    4.1   16332.2    0.5    0.0   29975.8    1007.0    0.0    0.0    0.0
       9   11.7   35356.5    1.4    0.0   72880.5    2042.3    0.1    0.0    0.0
      10    3.3   16234.7    0.2    0.0   30068.4    1037.4    0.0    0.0    0.0
      10   11.7   35356.5    1.4    0.0   72880.2    2042.6    0.1    0.0    0.0
      11    3.5   16296.2    0.3    0.0   29466.1     983.6    0.0    0.0    0.0
      11   11.7   35356.5    1.4    0.0   72879.2    2043.6    0.1    0.0    0.0
      12    3.1   16509.3    0.2    0.0   30998.4     977.3    0.0    0.0    0.0
      12   11.7   35356.5    1.4    0.0   72881.0    2041.9    0.1    0.0    0.0
      13    3.8   16810.6    0.4    0.0   30478.3    1003.0    0.0    0.0    0.0
      13   11.7   35356.5    1.4    0.0   72878.8    2044.0    0.1    0.0    0.0
      14    3.2   16779.3    0.2    0.0   30713.7    1002.1    0.0    0.0    0.0
      14   11.7   35356.5    1.4    0.0   72879.6    2043.3    0.1    0.0    0.0
      15    3.5   17093.8    0.3    0.0   30888.8     994.9    0.0    0.0    0.0
      15   11.7   35356.5    1.4    0.0   72878.7    2044.1    0.1    0.0    0.0
      16    3.2   17175.9    0.2    0.0   30277.0    1003.5    0.0    0.0    0.0
      16   11.7   35356.5    1.4    0.0   72880.5    2042.3    0.1    0.0    0.0
averaged    3.7   16644.0    0.3    0.0   30447.3    1004.6    0.0    0.0    0.0
averaged   11.7   35356.5    1.4    0.0   72879.5    2043.3    0.1    0.0    0.0
             62800232  WORDS OF DYNAMIC MEMORY USED
 EXECUTION OF GAMESS TERMINATED NORMALLY Tue Dec 10 08:08:50 2019
 DDI: 263640 bytes (0.3 MB / 0 MWords) used by master data server.

 ----------------------------------------
 CPU timing information for all processes
 ========================================
 0: 47350.64 + 1147.64 = 48497.128
 1: 46559.452 + 984.562 = 47544.15
 2: 46414.560 + 1057.511 = 47472.72
 3: 47296.715 + 1020.559 = 48317.275
 4: 46698.941 + 1106.57 = 47804.999
 5: 46644.350 + 1018.606 = 47662.956
 6: 47201.424 + 1049.235 = 48250.660
 7: 48847.333 + 1065.42 = 49912.376
 8: 46244.314 + 1075.455 = 47319.770
 9: 46327.867 + 1016.249 = 47344.116
 10: 45733.639 + 1016.93 = 46749.733
 11: 47439.301 + 1049.31 = 48488.333
 12: 47226.889 + 1069.279 = 48296.169
 13: 47470.191 + 1028.370 = 48498.562
 14: 47904.920 + 1076.425 = 48981.345
 15: 47441.877 + 1018.44 = 48459.922
 ----------------------------------------
 ddikick.x: exited gracefully.
unset echo
----- accounting info -----
Files used on the master node gollum058.lsa.umich.edu were:
-rw-r--r-- 1 hazwong frank    33305 Dec  9 01:30 /scratch/hazwong/829269/2LU0_2/usrc/2LU0_2_fmo_input.F05
-rw-r--r-- 1 hazwong frank      634 Dec 10 08:08 /scratch/hazwong/829269/2LU0_2/usrc/2LU0_2_fmo_input.F06.001
-rw-r--r-- 1 hazwong frank      634 Dec 10 08:08 /scratch/hazwong/829269/2LU0_2/usrc/2LU0_2_fmo_input.F06.002
-rw-r--r-- 1 hazwong frank      634 Dec 10 08:08 /scratch/hazwong/829269/2LU0_2/usrc/2LU0_2_fmo_input.F06.003
-rw-r--r-- 1 hazwong frank      634 Dec 10 08:08 /scratch/hazwong/829269/2LU0_2/usrc/2LU0_2_fmo_input.F06.004
-rw-r--r-- 1 hazwong frank      634 Dec 10 08:08 /scratch/hazwong/829269/2LU0_2/usrc/2LU0_2_fmo_input.F06.005
-rw-r--r-- 1 hazwong frank      634 Dec 10 08:08 /scratch/hazwong/829269/2LU0_2/usrc/2LU0_2_fmo_input.F06.006
-rw-r--r-- 1 hazwong frank      634 Dec 10 08:08 /scratch/hazwong/829269/2LU0_2/usrc/2LU0_2_fmo_input.F06.007
-rw-r--r-- 1 hazwong frank      634 Dec 10 08:08 /scratch/hazwong/829269/2LU0_2/usrc/2LU0_2_fmo_input.F06.008
-rw-r--r-- 1 hazwong frank      634 Dec 10 08:08 /scratch/hazwong/829269/2LU0_2/usrc/2LU0_2_fmo_input.F06.009
-rw-r--r-- 1 hazwong frank      634 Dec 10 08:08 /scratch/hazwong/829269/2LU0_2/usrc/2LU0_2_fmo_input.F06.010
-rw-r--r-- 1 hazwong frank      634 Dec 10 08:08 /scratch/hazwong/829269/2LU0_2/usrc/2LU0_2_fmo_input.F06.011
-rw-r--r-- 1 hazwong frank      634 Dec 10 08:08 /scratch/hazwong/829269/2LU0_2/usrc/2LU0_2_fmo_input.F06.012
-rw-r--r-- 1 hazwong frank      634 Dec 10 08:08 /scratch/hazwong/829269/2LU0_2/usrc/2LU0_2_fmo_input.F06.013
-rw-r--r-- 1 hazwong frank      634 Dec 10 08:08 /scratch/hazwong/829269/2LU0_2/usrc/2LU0_2_fmo_input.F06.014
-rw-r--r-- 1 hazwong frank      634 Dec 10 08:08 /scratch/hazwong/829269/2LU0_2/usrc/2LU0_2_fmo_input.F06.015
-rw-r--r-- 1 hazwong frank    40551 Dec 10 08:08 /scratch/hazwong/829269/2LU0_2/usrc/2LU0_2_fmo_input.F07
-rw-r--r-- 1 hazwong frank        0 Dec  9 01:30 /scratch/hazwong/829269/2LU0_2/usrc/2LU0_2_fmo_input.F07.001
-rw-r--r-- 1 hazwong frank        0 Dec  9 01:30 /scratch/hazwong/829269/2LU0_2/usrc/2LU0_2_fmo_input.F07.002
-rw-r--r-- 1 hazwong frank        0 Dec  9 01:30 /scratch/hazwong/829269/2LU0_2/usrc/2LU0_2_fmo_input.F07.003
-rw-r--r-- 1 hazwong frank        0 Dec  9 01:30 /scratch/hazwong/829269/2LU0_2/usrc/2LU0_2_fmo_input.F07.004
-rw-r--r-- 1 hazwong frank        0 Dec  9 01:30 /scratch/hazwong/829269/2LU0_2/usrc/2LU0_2_fmo_input.F07.005
-rw-r--r-- 1 hazwong frank        0 Dec  9 01:30 /scratch/hazwong/829269/2LU0_2/usrc/2LU0_2_fmo_input.F07.006
-rw-r--r-- 1 hazwong frank        0 Dec  9 01:30 /scratch/hazwong/829269/2LU0_2/usrc/2LU0_2_fmo_input.F07.007
-rw-r--r-- 1 hazwong frank        0 Dec  9 01:30 /scratch/hazwong/829269/2LU0_2/usrc/2LU0_2_fmo_input.F07.008
-rw-r--r-- 1 hazwong frank        0 Dec  9 01:30 /scratch/hazwong/829269/2LU0_2/usrc/2LU0_2_fmo_input.F07.009
-rw-r--r-- 1 hazwong frank        0 Dec  9 01:30 /scratch/hazwong/829269/2LU0_2/usrc/2LU0_2_fmo_input.F07.010
-rw-r--r-- 1 hazwong frank        0 Dec  9 01:30 /scratch/hazwong/829269/2LU0_2/usrc/2LU0_2_fmo_input.F07.011
-rw-r--r-- 1 hazwong frank        0 Dec  9 01:30 /scratch/hazwong/829269/2LU0_2/usrc/2LU0_2_fmo_input.F07.012
-rw-r--r-- 1 hazwong frank        0 Dec  9 01:30 /scratch/hazwong/829269/2LU0_2/usrc/2LU0_2_fmo_input.F07.013
-rw-r--r-- 1 hazwong frank        0 Dec  9 01:30 /scratch/hazwong/829269/2LU0_2/usrc/2LU0_2_fmo_input.F07.014
-rw-r--r-- 1 hazwong frank        0 Dec  9 01:30 /scratch/hazwong/829269/2LU0_2/usrc/2LU0_2_fmo_input.F07.015
-rw-r--r-- 1 hazwong frank    65440 Dec 10 08:08 /scratch/hazwong/829269/2LU0_2/usrc/2LU0_2_fmo_input.F10.000
-rw-r--r-- 1 hazwong frank        0 Dec  9 01:30 /scratch/hazwong/829269/2LU0_2/usrc/2LU0_2_fmo_input.F26.000
-rw-r--r-- 1 hazwong frank        0 Dec  9 01:30 /scratch/hazwong/829269/2LU0_2/usrc/2LU0_2_fmo_input.F26.001
-rw-r--r-- 1 hazwong frank        0 Dec  9 01:30 /scratch/hazwong/829269/2LU0_2/usrc/2LU0_2_fmo_input.F26.002
-rw-r--r-- 1 hazwong frank        0 Dec  9 01:30 /scratch/hazwong/829269/2LU0_2/usrc/2LU0_2_fmo_input.F26.003
-rw-r--r-- 1 hazwong frank        0 Dec  9 01:30 /scratch/hazwong/829269/2LU0_2/usrc/2LU0_2_fmo_input.F26.004
-rw-r--r-- 1 hazwong frank        0 Dec  9 01:30 /scratch/hazwong/829269/2LU0_2/usrc/2LU0_2_fmo_input.F26.005
-rw-r--r-- 1 hazwong frank        0 Dec  9 01:30 /scratch/hazwong/829269/2LU0_2/usrc/2LU0_2_fmo_input.F26.006
-rw-r--r-- 1 hazwong frank        0 Dec  9 01:30 /scratch/hazwong/829269/2LU0_2/usrc/2LU0_2_fmo_input.F26.007
-rw-r--r-- 1 hazwong frank        0 Dec  9 01:30 /scratch/hazwong/829269/2LU0_2/usrc/2LU0_2_fmo_input.F26.008
-rw-r--r-- 1 hazwong frank        0 Dec  9 01:30 /scratch/hazwong/829269/2LU0_2/usrc/2LU0_2_fmo_input.F26.009
-rw-r--r-- 1 hazwong frank        0 Dec  9 01:30 /scratch/hazwong/829269/2LU0_2/usrc/2LU0_2_fmo_input.F26.010
-rw-r--r-- 1 hazwong frank        0 Dec  9 01:30 /scratch/hazwong/829269/2LU0_2/usrc/2LU0_2_fmo_input.F26.011
-rw-r--r-- 1 hazwong frank        0 Dec  9 01:30 /scratch/hazwong/829269/2LU0_2/usrc/2LU0_2_fmo_input.F26.012
-rw-r--r-- 1 hazwong frank        0 Dec  9 01:30 /scratch/hazwong/829269/2LU0_2/usrc/2LU0_2_fmo_input.F26.013
-rw-r--r-- 1 hazwong frank        0 Dec  9 01:30 /scratch/hazwong/829269/2LU0_2/usrc/2LU0_2_fmo_input.F26.014
-rw-r--r-- 1 hazwong frank        0 Dec  9 01:30 /scratch/hazwong/829269/2LU0_2/usrc/2LU0_2_fmo_input.F26.015
-rw-r--r-- 1 hazwong frank        0 Dec  9 01:30 /scratch/hazwong/829269/2LU0_2/usrc/2LU0_2_fmo_input.F27.000
-rw-r--r-- 1 hazwong frank        0 Dec  9 01:30 /scratch/hazwong/829269/2LU0_2/usrc/2LU0_2_fmo_input.F27.001
-rw-r--r-- 1 hazwong frank        0 Dec  9 01:30 /scratch/hazwong/829269/2LU0_2/usrc/2LU0_2_fmo_input.F27.002
-rw-r--r-- 1 hazwong frank        0 Dec  9 01:30 /scratch/hazwong/829269/2LU0_2/usrc/2LU0_2_fmo_input.F27.003
-rw-r--r-- 1 hazwong frank        0 Dec  9 01:30 /scratch/hazwong/829269/2LU0_2/usrc/2LU0_2_fmo_input.F27.004
-rw-r--r-- 1 hazwong frank        0 Dec  9 01:30 /scratch/hazwong/829269/2LU0_2/usrc/2LU0_2_fmo_input.F27.005
-rw-r--r-- 1 hazwong frank        0 Dec  9 01:30 /scratch/hazwong/829269/2LU0_2/usrc/2LU0_2_fmo_input.F27.006
-rw-r--r-- 1 hazwong frank        0 Dec  9 01:30 /scratch/hazwong/829269/2LU0_2/usrc/2LU0_2_fmo_input.F27.007
-rw-r--r-- 1 hazwong frank        0 Dec  9 01:30 /scratch/hazwong/829269/2LU0_2/usrc/2LU0_2_fmo_input.F27.008
-rw-r--r-- 1 hazwong frank        0 Dec  9 01:30 /scratch/hazwong/829269/2LU0_2/usrc/2LU0_2_fmo_input.F27.009
-rw-r--r-- 1 hazwong frank        0 Dec  9 01:30 /scratch/hazwong/829269/2LU0_2/usrc/2LU0_2_fmo_input.F27.010
-rw-r--r-- 1 hazwong frank        0 Dec  9 01:30 /scratch/hazwong/829269/2LU0_2/usrc/2LU0_2_fmo_input.F27.011
-rw-r--r-- 1 hazwong frank        0 Dec  9 01:30 /scratch/hazwong/829269/2LU0_2/usrc/2LU0_2_fmo_input.F27.012
-rw-r--r-- 1 hazwong frank        0 Dec  9 01:30 /scratch/hazwong/829269/2LU0_2/usrc/2LU0_2_fmo_input.F27.013
-rw-r--r-- 1 hazwong frank        0 Dec  9 01:30 /scratch/hazwong/829269/2LU0_2/usrc/2LU0_2_fmo_input.F27.014
-rw-r--r-- 1 hazwong frank        0 Dec  9 01:30 /scratch/hazwong/829269/2LU0_2/usrc/2LU0_2_fmo_input.F27.015
-rw-r--r-- 1 hazwong frank 45301760 Dec  9 11:20 /scratch/hazwong/829269/2LU0_2/usrc/2LU0_2_fmo_input.F40.000
-rw-r--r-- 1 hazwong frank 45301760 Dec  9 11:20 /scratch/hazwong/829269/2LU0_2/usrc/2LU0_2_fmo_input.F40.001
-rw-r--r-- 1 hazwong frank 45301760 Dec  9 11:20 /scratch/hazwong/829269/2LU0_2/usrc/2LU0_2_fmo_input.F40.002
-rw-r--r-- 1 hazwong frank 45301760 Dec  9 11:20 /scratch/hazwong/829269/2LU0_2/usrc/2LU0_2_fmo_input.F40.003
-rw-r--r-- 1 hazwong frank 45301760 Dec  9 11:20 /scratch/hazwong/829269/2LU0_2/usrc/2LU0_2_fmo_input.F40.004
-rw-r--r-- 1 hazwong frank 45301760 Dec  9 11:20 /scratch/hazwong/829269/2LU0_2/usrc/2LU0_2_fmo_input.F40.005
-rw-r--r-- 1 hazwong frank 45301760 Dec  9 11:20 /scratch/hazwong/829269/2LU0_2/usrc/2LU0_2_fmo_input.F40.006
-rw-r--r-- 1 hazwong frank 45301760 Dec  9 11:20 /scratch/hazwong/829269/2LU0_2/usrc/2LU0_2_fmo_input.F40.007
-rw-r--r-- 1 hazwong frank 45301760 Dec  9 11:20 /scratch/hazwong/829269/2LU0_2/usrc/2LU0_2_fmo_input.F40.008
-rw-r--r-- 1 hazwong frank 45301760 Dec  9 11:20 /scratch/hazwong/829269/2LU0_2/usrc/2LU0_2_fmo_input.F40.009
-rw-r--r-- 1 hazwong frank 45301760 Dec  9 11:20 /scratch/hazwong/829269/2LU0_2/usrc/2LU0_2_fmo_input.F40.010
-rw-r--r-- 1 hazwong frank 45301760 Dec  9 11:20 /scratch/hazwong/829269/2LU0_2/usrc/2LU0_2_fmo_input.F40.011
-rw-r--r-- 1 hazwong frank 45301760 Dec  9 11:20 /scratch/hazwong/829269/2LU0_2/usrc/2LU0_2_fmo_input.F40.012
-rw-r--r-- 1 hazwong frank 45301760 Dec  9 11:20 /scratch/hazwong/829269/2LU0_2/usrc/2LU0_2_fmo_input.F40.013
-rw-r--r-- 1 hazwong frank 45301760 Dec  9 11:20 /scratch/hazwong/829269/2LU0_2/usrc/2LU0_2_fmo_input.F40.014
-rw-r--r-- 1 hazwong frank 45301760 Dec  9 11:20 /scratch/hazwong/829269/2LU0_2/usrc/2LU0_2_fmo_input.F40.015
ls: No match.
ls: No match.
ls: No match.
Tue Dec 10 08:08:53 EST 2019
0.185u 0.130s 30:38:16.80 0.0%	0+0k 1672+232io 26pf+0w
