‘4A4R_2_fmo_input.inp’ -> ‘/scratch/hazwong/822159/./4A4R_2_fmo_input.inp’
‘rungms’ -> ‘/scratch/hazwong/822159/./rungms’
‘gms-files.csh’ -> ‘/scratch/hazwong/822159/./gms-files.csh’
----- GAMESS execution script 'rungms' -----
This job is running on host gollum083.lsa.umich.edu
under operating system Linux at Fri Dec 6 11:57:22 EST 2019
Available scratch disk space (Kbyte units) at beginning of the job is
Filesystem     1K-blocks  Used Available Use% Mounted on
/dev/sda4      426933580 33460 426900120   1% /scratch
GAMESS temporary binary files will be written to /scratch/hazwong/822159/4A4R_2/usrc
GAMESS supplementary output files will be written to /scratch/hazwong/822159/4A4R_2/src
Copying input file 4A4R_2_fmo_input.inp to your run's scratch directory...
cp 4A4R_2_fmo_input.inp /scratch/hazwong/822159/4A4R_2/usrc/4A4R_2_fmo_input.F05
unset echo
This is a GDDI run, keeping various output files on local disks
setenv OUTPUT /scratch/hazwong/822159/4A4R_2/usrc/4A4R_2_fmo_input.F06
setenv PUNCH /scratch/hazwong/822159/4A4R_2/usrc/4A4R_2_fmo_input.F07
unset echo
 
Assuming a single but multicore node.
 
/export/apps/CentOS7/gamess/src/build//ddikick.x /export/apps/CentOS7/gamess/src/build//gamess.R3.x 4A4R_2_fmo_input -ddi 1 16 gollum083.lsa.umich.edu:cpus=16 -scr /scratch/hazwong/822159/4A4R_2/usrc

 Distributed Data Interface kickoff program.
 Initiating 16 compute processes on 1 nodes to run the following command:
 /export/apps/CentOS7/gamess/src/build//gamess.R3.x 4A4R_2_fmo_input 

          ******************************************************
          *         GAMESS VERSION = 30 SEP 2018 (R3)         *
          *             FROM IOWA STATE UNIVERSITY             *
          * M.W.SCHMIDT, K.K.BALDRIDGE, J.A.BOATZ, S.T.ELBERT, *
          *   M.S.GORDON, J.H.JENSEN, S.KOSEKI, N.MATSUNAGA,   *
          *          K.A.NGUYEN, S.J.SU, T.L.WINDUS,           *
          *       TOGETHER WITH M.DUPUIS, J.A.MONTGOMERY       *
          *         J.COMPUT.CHEM.  14, 1347-1363(1993)        *
          **************** 64 BIT LINUX VERSION ****************

  SINCE 1993, STUDENTS AND POSTDOCS WORKING AT IOWA STATE UNIVERSITY
  AND ALSO IN THEIR VARIOUS JOBS AFTER LEAVING ISU HAVE MADE IMPORTANT
  CONTRIBUTIONS TO THE CODE:
     IVANA ADAMOVIC, CHRISTINE AIKENS, YURI ALEXEEV, POOJA ARORA,
     ANDREY ASADCHEV, ROB BELL, PRADIPTA BANDYOPADHYAY, JONATHAN BENTZ,
     BRETT BODE, KURT BRORSEN, CALEB CARLIN, GALINA CHABAN, WEI CHEN,
     CHEOL HO CHOI, PAUL DAY, ALBERT DEFUSCO, NUWAN DESILVA, TIM DUDLEY,
     DMITRI FEDOROV, ALEX FINDLATER, GRAHAM FLETCHER, MARK FREITAG,
     KURT GLAESEMANN, ANASTASIA GUNINA,
     DAN KEMP, GRANT MERRILL, NORIYUKI MINEZAWA, JONATHAN MULLIN,
     TAKESHI NAGATA, SEAN NEDD, HEATHER NETZLOFF, BOSILJKA NJEGIC, RYAN OLSON,
     MIKE PAK, BUU PHAM,
     SPENCER PRUITT, LUKE ROSKOP, JIM SHOEMAKER, LYUDMILA SLIPCHENKO,
     TONY SMITH, SAROM SOK LEANG, JIE SONG, TETSUYA TAKETSUGU, SIMON WEBB,
     PENG XU, SOOHAENG YOO, FEDERICO ZAHARIEV

  ADDITIONAL CODE HAS BEEN PROVIDED BY COLLABORATORS IN OTHER GROUPS:
     IOWA STATE UNIVERSITY:
          JOE IVANIC, AARON WEST, LAIMUTIS BYTAUTAS, KLAUS RUEDENBERG
     UNIVERSITY OF TOKYO: KIMIHIKO HIRAO, TAKAHITO NAKAJIMA,
          TAKAO TSUNEDA, MUNEAKI KAMIYA, SUSUMU YANAGISAWA,
          KIYOSHI YAGI, MAHITO CHIBA, SEIKEN TOKURA, NAOAKI KAWAKAMI
     UNIVERSITY OF AARHUS: FRANK JENSEN
     UNIVERSITY OF IOWA: VISVALDAS KAIRYS, HUI LI
     NATIONAL INST. OF STANDARDS AND TECHNOLOGY: WALT STEVENS, DAVID GARMER
     UNIVERSITY OF PISA: BENEDETTA MENNUCCI, JACOPO TOMASI
     UNIVERSITY OF MEMPHIS: HENRY KURTZ, PRAKASHAN KORAMBATH
     UNIVERSITY OF ALBERTA: TOBY ZENG, MARIUSZ KLOBUKOWSKI
     UNIVERSITY OF NEW ENGLAND: MARK SPACKMAN
     MIE UNIVERSITY: HIROAKI UMEDA
     NAT. INST. OF ADVANCED INDUSTRIAL SCIENCE AND TECHNOLOGY: KAZUO KITAURA
     MICHIGAN STATE UNIVERSITY:
          KAROL KOWALSKI, MARTA WLOCH, JEFFREY GOUR, JESSE LUTZ,
          WEI LI, JUN SHEN, J. EMILIANO DEUSTUA, PIOTR PIECUCH
     UNIVERSITY OF MINNESOTA:
          YINAN SHU
     UNIVERSITY OF SILESIA: MONIKA MUSIAL, STANISLAW KUCHARSKI
     FACULTES UNIVERSITAIRES NOTRE-DAME DE LA PAIX:
          OLIVIER QUINET, BENOIT CHAMPAGNE
     UNIVERSITY OF CALIFORNIA - SANTA BARBARA: BERNARD KIRTMAN
     INSTITUTE FOR MOLECULAR SCIENCE:
          KAZUYA ISHIMURA, MICHIO KATOUDA, AND SHIGERU NAGASE
     UNIVERSITY OF NOTRE DAME: ANNA POMOGAEVA, DAN CHIPMAN
     KYUSHU UNIVERSITY:
          HARUYUKI NAKANO,
          FENG LONG GU, JACEK KORCHOWIEC, MARCIN MAKOWSKI, AND YURIKO AOKI,
          HIROTOSHI MORI AND EISAKU MIYOSHI
     PENNSYLVANIA STATE UNIVERSITY:
          TZVETELIN IORDANOV, CHET SWALINA, JONATHAN SKONE,
          SHARON HAMMES-SCHIFFER
     WASEDA UNIVERSITY:
          MASATO KOBAYASHI, TOMOKO AKAMA, TSUGUKI TOUMA,
          TAKESHI YOSHIKAWA, YASUHIRO IKABATA, JUNJI SEINO,
          YUYA NAKAJIMA, HIROMI NAKAI
     NANJING UNIVERSITY: SHUHUA LI
     UNIVERSITY OF NEBRASKA:
          PEIFENG SU, DEJUN SI, NANDUN THELLAMUREGE, YALI WANG, HUI LI
     UNIVERSITY OF ZURICH: ROBERTO PEVERATI, KIM BALDRIDGE
     N. COPERNICUS UNIVERSITY AND JACKSON STATE UNIVERSITY:
          MARIA BARYSZ
     UNIVERSITY OF COPENHAGEN: Jimmy Kromann, CASPER STEINMANN
     TOKYO INSTITUTE OF TECHNOLOGY: HIROYA NAKATA
     NAGOYA UNIVERSITY: YOSHIO NISHIMOTO, STEPHAN IRLE
     MOSCOW STATE UNIVERSITY: VLADIMIR MIRONOV


 PARALLEL VERSION RUNNING ON       16 PROCESSORS IN        1 NODES.

 EXECUTION OF GAMESS BEGUN Fri Dec  6 11:57:22 2019

            ECHO OF THE FIRST FEW INPUT CARDS -
 INPUT CARD>!*** FMO 5.3 (Gamess) INPUT generated by Facio 22.1.1.32 ***                    
 INPUT CARD> $CONTRL RUNTYP=ENERGY NPRINT=-5 ISPHER=1 MAXIT=200 $END                        
 INPUT CARD> $SYSTEM MWORDS=63 MEMDDI=63 $END                                               
 INPUT CARD> $GDDI NGROUP=1 $END                                                            
 INPUT CARD> $SCF DIRSCF=.TRUE. NPUNCH=0 $END                                               
 INPUT CARD>!*** NumCPU : 2  MemPerNode : 512MB                                             
 INPUT CARD> $PCM SOLVNT=WATER IEF=-10 ICOMP=2 ICAV=1 IDISP=1 IFMO=-1 $END                  
 INPUT CARD> $PCMCAV RADII=SUAHF $END                                                       
 INPUT CARD> $TESCAV NTSALL=60 $END                                                         
 INPUT CARD> $FMOPRP                                                                        
 INPUT CARD>    NAODIR=200                                                                  
 INPUT CARD>    NGRFMO(1)=1, 1, 0, 0, 0,   0, 0, 0, 0, 0                                    
 INPUT CARD>    IPIEDA=1                                                                    
 INPUT CARD>    NPRINT=9                                                                    
 INPUT CARD> $END                                                                           
 INPUT CARD> $FMO                                                                           
 INPUT CARD>      SCFTYP(1)=RHF                                                             
 INPUT CARD>      MODGRD=10                                                                 
 INPUT CARD>      MODMUL=0                                                                  
 INPUT CARD>      MAXCAO=5                                                                  
 INPUT CARD>      MAXBND=10                                                                 
 INPUT CARD>      NLAYER=1                                                                  
 INPUT CARD>      MPLEVL(1)=2                                                               
 INPUT CARD>      NFRAG=8                                                                   
 INPUT CARD>      ICHARG(1)=-1, -1, -1, -1, -1, -1, -1, 0                                   
 INPUT CARD>      FRGNAM(1)=F1, F2, F3, F4, F5, F6, F7, F8                                  
 INPUT CARD>      indat(1)=0                                                                
 INPUT CARD>               1   -36   0                                                      
 INPUT CARD>               37   -67   0                                                     
 INPUT CARD>               68   -97   0                                                     
 INPUT CARD>               98   -130   0                                                    
 INPUT CARD>               131   -163   0                                                   
 INPUT CARD>               164   -194   0                                                   
 INPUT CARD>               195   -228   0                                                   
 INPUT CARD>               229   -256   0                                                   
 INPUT CARD> $END                                                                           
 INPUT CARD>                                                                                
 INPUT CARD> $FMOBND                                                                        
 INPUT CARD>   -37   36       6-31G*    MINI                                                
 INPUT CARD>   -68   67       6-31G*    MINI                                                
 INPUT CARD>   -98   97       6-31G*    MINI                                                
 INPUT CARD>   -131   130       6-31G*    MINI                                              
 INPUT CARD>   -164   163       6-31G*    MINI                                              
 INPUT CARD>   -195   194       6-31G*    MINI                                              
 INPUT CARD>   -229   228       6-31G*    MINI                                              
 INPUT CARD> $END                                                                           
 INPUT CARD> $FMOHYB                                                                        
 INPUT CARD> 6-31G*      15   5                                                             
 INPUT CARD>   1 0  -0.065034   0.288264   0.000000   0.000000   0.604412                   
 INPUT CARD>         0.290129   0.000000   0.000000   0.319045  -0.017106                   


 -------------------------------------------------------------
 GROUP DDI, PROGRAMMED BY: RYAN M. OLSON AND DMITRI G. FEDOROV
        FEDOROV ET AL., J. COMPUT. CHEM., 25 (2004) 872.
 -------------------------------------------------------------

 -------------------------------------------------------
 GDDI: INITIALIZATION COMPLETED FOR GROUP     1 OF     1
 WITH    16 PROCESSES BALTYP=DLB   global rank=        0
 -------------------------------------------------------

   63000000 WORDS OF MEMORY AVAILABLE


     RUN TITLE
     ---------
  FMO calculation                                                                

 THE POINT GROUP OF THE MOLECULE IS C1      
 THE ORDER OF THE PRINCIPAL AXIS IS     0

 ATOM   ATOMIC CHARGE
 H.1-1       1.0
 O.1-1       8.0
 C.1-1       6.0
 N.1-1       7.0
 P.1-1      15.0

     ATOMIC BASIS SET LIBRARY
     ----------------
 THE CONTRACTED PRIMITIVE FUNCTIONS HAVE BEEN UNNORMALIZED
 THE CONTRACTED BASIS FUNCTIONS ARE NOW NORMALIZED TO UNITY

  SHELL TYPE  PRIMITIVE        EXPONENT          CONTRACTION COEFFICIENT(S)

 H.1-1     

      1   S       1            18.7311370    0.033494604338
      1   S       2             2.8253944    0.234726953484
      1   S       3             0.6401217    0.813757326146

      2   S       4             0.1612778    1.000000000000

 O.1-1     

      3   S       5          5484.6716600    0.001831074430
      3   S       6           825.2349460    0.013950172200
      3   S       7           188.0469580    0.068445078098
      3   S       8            52.9645000    0.232714335992
      3   S       9            16.8975704    0.470192897984
      3   S      10             5.7996353    0.358520852987

      4   L      11            15.5396162   -0.110777549525    0.070874268231
      4   L      12             3.5999336   -0.148026262701    0.339752839147
      4   L      13             1.0137618    1.130767015354    0.727158577316

      5   L      14             0.2700058    1.000000000000    1.000000000000

      6   D      15             0.8000000    1.000000000000

 C.1-1     

      7   S      16          3047.5248800    0.001834737132
      7   S      17           457.3695180    0.014037322813
      7   S      18           103.9486850    0.068842622264
      7   S      19            29.2101553    0.232184443216
      7   S      20             9.2866630    0.467941348435
      7   S      21             3.1639270    0.362311985337

      8   L      22             7.8682723   -0.119332419775    0.068999066591
      8   L      23             1.8812885   -0.160854151696    0.316423960957
      8   L      24             0.5442493    1.143456437840    0.744308290898

      9   L      25             0.1687145    1.000000000000    1.000000000000

     10   D      26             0.8000000    1.000000000000

 N.1-1     

     11   S      27          4173.5114600    0.001834772160
     11   S      28           627.4579110    0.013994627002
     11   S      29           142.9020930    0.068586551812
     11   S      30            40.2343293    0.232240873040
     11   S      31            12.8202129    0.469069948082
     11   S      32             4.3904370    0.360455199063

     12   L      33            11.6263619   -0.114961181702    0.067579743878
     12   L      34             2.7162798   -0.169117478561    0.323907295893
     12   L      35             0.7722184    1.145851947027    0.740895139755

     13   L      36             0.2120315    1.000000000000    1.000000000000

     14   D      37             0.8000000    1.000000000000

 P.1-1     

     15   S      38         19413.3000000    0.001851598923
     15   S      39          2909.4200000    0.014206191735
     15   S      40           661.3640000    0.069999459277
     15   S      41           185.7590000    0.240078860331
     15   S      42            59.1943000    0.484761717984
     15   S      43            20.0310000    0.335199804993

     16   L      44           339.4780000   -0.002782170105    0.004564616191
     16   L      45            81.0101000   -0.036049901354    0.033693571881
     16   L      46            25.8780000   -0.116631004382    0.139754883368
     16   L      47             9.4522100    0.096832803638    0.339361716786
     16   L      48             3.6656600    0.614418023082    0.450920623685
     16   L      49             1.4674600    0.403798015170    0.238585800889

     17   L      50             2.1562300   -0.252924113863   -0.017765312733
     17   L      51             0.7489970    0.032851844678    0.274058196433
     17   L      52             0.2831450    1.081254761783    0.785421562957

     18   L      53             0.0998317    1.000000000000    1.000000000000

     19   D      54             0.5500000    1.000000000000

 TOTAL NUMBER OF BASIS SET SHELLS             =   19
 NUMBER OF CARTESIAN GAUSSIAN BASIS FUNCTIONS =   66

     $CONTRL OPTIONS
     ---------------
 SCFTYP=RHF          RUNTYP=ENERGY       EXETYP=RUN     
 MPLEVL=       0     CITYP =NONE         CCTYP =NONE         VBTYP =NONE    
 DFTTYP=NONE         TDDFT =NONE    
 MULT  =       1     ICHARG=       0     NZVAR =       0     COORD =UNIQUE  
 PP    =NONE         RELWFN=NONE         LOCAL =NONE         NUMGRD=       F
 ISPHER=       1     NOSYM =       0     MAXIT =     200     UNITS =ANGS    
 PLTORB=       F     MOLPLT=       F     AIMPAC=       F     FRIEND=        
 NPRINT=      -5     IREST =       0     GEOM  =INPUT   
 NORMF =       0     NORMP =       0     ITOL  =      24     ICUT  =      12
 INTTYP=BEST         GRDTYP=BEST         QMTTOL= 1.0E-06

     $SYSTEM OPTIONS
     ---------------
  REPLICATED MEMORY=    63000000 WORDS (ON EVERY NODE).
 DISTRIBUTED MEMDDI=          63 MILLION WORDS IN AGGREGATE,
 MEMDDI DISTRIBUTED OVER  16 PROCESSORS IS     3937500 WORDS/PROCESSOR.
 TOTAL MEMORY REQUESTED ON EACH PROCESSOR=    66937500 WORDS.
 TIMLIM=      525600.00 MINUTES, OR     365.0 DAYS.
 PARALL= T  BALTYP=  DLB     KDIAG=    0  COREFL= F
 MXSEQ2=     300 MXSEQ3=     150  mem10=         0

 ** LOOKING UP INTERNALLY STORED DATA FOR SOLVENT=WATER    **
 OPTICAL AND PHYSICAL CONSTANTS:
 EPS= 78.390; EPSINF=  1.776; RSOLV=  1.385 A; VMOL=  18.070 ML/MOL;
 TCE= .25700E-03 1/K; STEN= 71.810 DYN/CM;  DSTEN=  0.6500; CMF=  1.2770


     -----------------------------------
     INPUT FOR PCM SOLVATION CALCULATION 
     -----------------------------------
     IEF   =     -10
     ICOMP =       2     IFIELD=       0     ICAV  =       1
     IDISP =       1     IREP  =       0     IDP   =       0

     SOLVNT=WATER        EPS   = 78.3900     EPSINF=  1.7760
     VMOL  = 18.0700     TCE   =  0.00025700 STEN  = 71.8100
     DSTEN =  0.6500     CMF   =  1.2770     RSOLV =  1.3850

     NESFP =       0
     OMEGA = 40.0000     RET   =100.0000     FRO   =  0.7000

     TABS  =298.0000     IPRINT=       0

     --------------------------------
     INPUT FOR ITERATIVE C-PCM METHOD 
     --------------------------------
     IPCMIT  =         1     MXDIIS  =        50
     MXITR1  =       200     MXITR2  =       200
     THRES   = 0.100E-09     IMUL    =         3
     RCUT(1) =   20.0000     RCUT(2) =   50.0000

     IDIRCT  =         1
     IMGABI  =         0     RABI    =    4.0000
     IMGASC  =         0     RASC    =   20.0000
     THRSLS  = 0.500E-03     DENSLS  =    0.0100
     IEFPOL  =         1     REFPOL  =    0.0000

     INPUT FOR ISOTROPIC DIELECTRICS
     -------------------------------
     EPS=    78.39

          ----------------
          PROPERTIES INPUT
          ----------------

     MOMENTS            FIELD           POTENTIAL          DENSITY
 IEMOM =       1   IEFLD =       0   IEPOT =       0   IEDEN =       0
 WHERE =COMASS     WHERE =NUCLEI     WHERE =NUCLEI     WHERE =NUCLEI  
 OUTPUT=BOTH       OUTPUT=BOTH       OUTPUT=NONE       OUTPUT=BOTH    
 IEMINT=       0   IEFINT=       0                     IEDINT=       0
                                                       MORB  =       0
          EXTRAPOLATION IN EFFECT
          SOSCF IN EFFECT
 ORBITAL PRINTING OPTION: NPREO=     1 32767     2     1

     -------------------------------
     INTEGRAL TRANSFORMATION OPTIONS
     -------------------------------
     NWORD  =            0
     CUTOFF = 1.0E-10     MPTRAN =       0
     DIRTRF =       T     AOINTS =DUP     

          ----------------------
          INTEGRAL INPUT OPTIONS
          ----------------------
 NOPK  =       1 NORDER=       0 SCHWRZ=       T

 ..... DONE SETTING UP THE RUN .....
 CPU     0: STEP CPU TIME=     0.04 TOTAL CPU TIME=          0.0 (      0.0 MIN)
 TOTAL WALL CLOCK TIME=          0.1 SECONDS, CPU UTILIZATION IS    66.67%
 CPU     0: STEP CPU TIME=     0.00 TOTAL CPU TIME=          0.0 (      0.0 MIN)
 TOTAL WALL CLOCK TIME=          0.1 SECONDS, CPU UTILIZATION IS    57.14%

                    ----------------------
                    AO INTEGRAL TECHNOLOGY
                    ----------------------
     S,P,L SHELL ROTATED AXIS INTEGRALS, REPROGRAMMED BY
        KAZUYA ISHIMURA (IMS) AND JOSE SIERRA (SYNSTAR).
     S,P,D,L SHELL ROTATED AXIS INTEGRALS PROGRAMMED BY
        KAZUYA ISHIMURA (INSTITUTE FOR MOLECULAR SCIENCE).
     S,P,D,F,G SHELL TO TOTAL QUARTET ANGULAR MOMENTUM SUM 5,
        ERIC PROGRAM BY GRAHAM FLETCHER (ELORET AND NASA ADVANCED
        SUPERCOMPUTING DIVISION, AMES RESEARCH CENTER).
     S,P,D,F,G,L SHELL GENERAL RYS QUADRATURE PROGRAMMED BY
        MICHEL DUPUIS (PACIFIC NORTHWEST NATIONAL LABORATORY).
 Setting modorb=1 flag...
 Setting modorb=1 flag...

          -----------------------
          MP2 CONTROL INFORMATION
          -----------------------
          NACORE =        8  NBCORE =        8
          LMOMP2 =        F  AOINTS = DUP     
          METHOD =        2  NWORD  =               0
          MP2PRP =        F  OSPT   = NONE    
          CUTOFF = 1.00E-12  CPHFBS = BASISAO 
          CODE   = IMS     

          NUMBER OF CORE -A-  ORBITALS =     8
          NUMBER OF CORE -B-  ORBITALS =     8
          NUMBER OF OCC. -A-  ORBITALS =    18
          NUMBER OF OCC. -B-  ORBITALS =    18
          NUMBER OF MOLECULAR ORBITALS =    66
          NUMBER OF   BASIS  FUNCTIONS =    66

 CPU     0: STEP CPU TIME=     0.03 TOTAL CPU TIME=          0.1 (      0.0 MIN)
 TOTAL WALL CLOCK TIME=          0.1 SECONDS, CPU UTILIZATION IS    77.78%
 CPU     0: STEP CPU TIME=     0.00 TOTAL CPU TIME=          0.1 (      0.0 MIN)
 TOTAL WALL CLOCK TIME=          0.1 SECONDS, CPU UTILIZATION IS    77.78%

     INPUT FOR CAVITY DEFINITION 
     ---------------------------
   ATOM               COORDINATES                RADIUS       EPS
      1     -0.3790      5.1910     16.3020      0.0100     78.3900
      2     -0.1170      5.4410     15.3980      1.5900     78.3900
      3      1.2790      5.7720     15.4440      1.7700     78.3900
      4      1.8530      4.8860     15.7940      0.0100     78.3900
      5      1.4380      6.5940     16.1740      0.0100     78.3900
      6      1.8320      6.2070     14.0830      1.7700     78.3900
      7      2.8970      6.5180     14.1620      0.0100     78.3900
      8      1.7730      5.0830     13.1530      1.5900     78.3900
      9      1.4310      5.5670     11.8620      1.7700     78.3900
     10      2.2300      5.2220     11.1660      0.0100     78.3900
     11      0.1420      5.0280     11.4070      1.6800     78.3900
     12     -0.3060      5.0020     10.1140      1.7700     78.3900
     13      0.1440      5.7390      6.7620      1.6800     78.3900
     14      1.0260      6.2070      6.7500      0.0100     78.3900
     15     -0.3540      5.6160      5.8990      0.0100     78.3900
     16      0.3440      5.4960      9.0460      1.6800     78.3900
     17     -0.3310      5.3070      7.9130      1.7700     78.3900
     18     -1.5360      4.6590      7.8560      1.6800     78.3900
     19     -1.9780      4.5580      6.9570      0.0100     78.3900
     20     -2.2260      4.1290      8.9390      1.7700     78.3900
     21     -3.3100      3.5550      8.7920      1.5900     78.3900
     22     -1.5280      4.3570     10.1570      1.7700     78.3900
     23     -1.8600      4.0130     11.4620      1.6800     78.3900
     24     -0.8430      4.4410     12.1740      1.7700     78.3900
     25     -0.7430      4.3520     13.2590      0.0100     78.3900
     26      1.4390      7.0750     11.9260      1.7700     78.3900
     27      0.7170      7.5350     11.2230      0.0100     78.3900
     28      2.7430      7.5490     11.6500      1.5900     78.3900
     29      2.7160      8.5090     11.7530      0.0100     78.3900
     30      1.0470      7.3250     13.3770      1.7700     78.3900
     31     -0.0370      7.1160     13.5280      0.0100     78.3900
     32      1.4450      8.6030     13.9060      1.5900     78.3900
     33      0.4860      9.8460     13.8300      2.1000     78.3900
     34     -0.8410      9.4630     14.3540      1.5900     78.3900
     35      1.1660     10.9810     14.4950      1.5900     78.3900
     36      0.3600     10.1290     12.2840      1.5900     78.3900
     37      1.4800     10.6940     11.5600      1.7700     78.3900
     38      2.4010     10.0840     11.6930      0.0100     78.3900
     39      1.7190     11.7120     11.9350      0.0100     78.3900
     40      1.1940     10.8030     10.0580      1.7700     78.3900
     41      2.0670     11.2180      9.5110      0.0100     78.3900
     42      0.9400      9.4760      9.5180      1.5900     78.3900
     43     -0.0530      9.5610      8.5070      1.7700     78.3900
     44      0.4290      9.1640      7.5840      0.0100     78.3900
     45     -1.2640      8.7430      8.7980      1.6800     78.3900
     46     -1.5470      8.3600     10.0890      1.7700     78.3900
     47     -0.8530      8.7130     10.8520      0.0100     78.3900
     48     -2.6020      7.5840     10.3720      1.7700     78.3900
     49     -2.8240      7.2450     11.3820      0.0100     78.3900
     50     -2.1250      8.3770      7.7660      1.7700     78.3900
     51     -1.8830      8.7500      6.6090      1.5900     78.3900
     52     -3.2000      7.6020      8.0350      1.6800     78.3900
     53     -3.4450      7.1960      9.2910      1.7700     78.3900
     54     -4.5000      6.4180      9.5140      1.6800     78.3900
     55     -5.0910      6.1530      8.7480      0.0100     78.3900
     56     -4.7140      6.0630     10.4290      0.0100     78.3900
     57     -0.3650     11.0300      8.3040      1.7700     78.3900
     58     -1.4250     11.1960      8.0380      0.0100     78.3900
     59      0.4820     11.5680      7.3030      1.5900     78.3900
     60      0.4260     12.5320      7.3670      0.0100     78.3900
     61     -0.0480     11.6210      9.6720      1.7700     78.3900
     62     -0.8410     11.3510     10.4080      0.0100     78.3900
     63      0.2570     13.0420      9.6530      1.5900     78.3900
     64     -0.9110     14.0600      9.9410      2.1000     78.3900
     65     -1.3850     13.8170     11.3180      1.5900     78.3900
     66     -0.4380     15.4310      9.6450      1.5900     78.3900
     67     -2.0630     13.6750      8.9510      1.5900     78.3900
     68     -2.0220     14.0230      7.5500      1.7700     78.3900
     69     -1.1210     13.6030      7.0520      0.0100     78.3900
     70     -2.0120     15.1290      7.4240      0.0100     78.3900
     71     -3.2630     13.4940      6.8230      1.7700     78.3900
     72     -3.2290     13.7520      5.7420      0.0100     78.3900
     73     -3.3290     12.0430      6.9200      1.5900     78.3900
     74     -4.6730     11.6330      7.0510      1.7700     78.3900
     75     -4.8410     10.9480      6.1910      0.0100     78.3900
     76     -4.9150     10.9160      8.3320      1.6800     78.3900
     77     -4.1300     11.1530      9.4390      1.7700     78.3900
     78     -3.3150     11.8570      9.2880      0.0100     78.3900
     79     -5.9410     10.0010      8.3790      1.7700     78.3900
     80     -6.6580      9.7660      7.4100      1.5900     78.3900
     81     -6.0910      9.3620      9.5840      1.6800     78.3900
     82     -6.8490      8.6950      9.6300      0.0100     78.3900
     83     -5.3110      9.5080     10.7130      1.7700     78.3900
     84     -5.5040      8.8000     11.6990      1.5900     78.3900
     85     -4.2780     10.4910     10.5930      1.7700     78.3900
     86     -3.5950     10.6380     11.4270      0.0100     78.3900
     87     -5.5400     12.8740      6.9010      1.7700     78.3900
     88     -6.4460     12.8170      7.5350      0.0100     78.3900
     89     -5.9150     13.0380      5.5430      1.5900     78.3900
     90     -6.7770     12.6100      5.3960      0.0100     78.3900
     91     -4.5960     13.9740      7.3900      1.7700     78.3900
     92     -4.4910     13.9140      8.5040      0.0100     78.3900
     93     -4.9020     15.3080      6.9020      1.5900     78.3900
     94     -5.4750     16.3710      7.9160      2.1000     78.3900
     95     -4.3570     16.9900      8.6570      1.5900     78.3900
     96     -6.3470     17.2950      7.1560      1.5900     78.3900
     97     -6.3740     15.5530      8.9310      1.5900     78.3900
     98     -7.7470     15.2070      8.6100      1.7700     78.3900
     99     -7.7780     14.2270      8.0920      0.0100     78.3900
    100     -8.2320     15.9470      7.9300      0.0100     78.3900
    101     -8.5840     15.0830      9.8940      1.7700     78.3900
    102     -8.0770     14.4030     10.6130      0.0100     78.3900
    103     -8.7620     16.3920     10.5020      1.5900     78.3900
    104    -10.0700     16.8770     10.2270      1.7700     78.3900
    105    -10.6060     16.8720     11.2080      0.0100     78.3900
    106    -10.0250     18.2400      9.6860      1.6800     78.3900
    107    -10.5410     20.2730      9.0200      1.7700     78.3900
    108     -9.1740     20.1330      8.8090      1.6800     78.3900
    109     -8.9190     18.9100      9.2150      1.7700     78.3900
    110     -7.9370     18.4300      9.1900      0.0100     78.3900
    111    -12.7470     21.1450      9.0750      1.6800     78.3900
    112    -13.1090     19.9730      9.6110      1.7700     78.3900
    113    -14.1740     19.8670      9.8400      0.0100     78.3900
    114    -12.3570     18.9070      9.9050      1.6800     78.3900
    115    -11.0740     19.1180      9.5670      1.7700     78.3900
    116    -11.4370     21.3350      8.7700      1.7700     78.3900
    117    -11.0580     22.5120      8.2370      1.6800     78.3900
    118    -10.1000     22.7160      8.0200      0.0100     78.3900
    119    -11.7310     23.2460      8.1280      0.0100     78.3900
    120    -10.7300     15.8870      9.2800      1.7700     78.3900
    121    -10.5130     16.1510      8.2210      0.0100     78.3900
    122    -12.1230     15.7840      9.4860      1.5900     78.3900
    123    -12.2500     15.3540     10.3480      0.0100     78.3900
    124    -10.0200     14.5900      9.6490      1.7700     78.3900
    125    -10.0230     13.9140      8.7620      0.0100     78.3900
    126    -10.5720     13.9560     10.8230      1.5900     78.3900
    127    -10.7820     12.4020     10.8940      2.1000     78.3900
    128     -9.5890     11.7500     10.3160      1.5900     78.3900
    129    -11.1520     12.0400     12.2800      1.5900     78.3900
    130    -12.0280     12.1580      9.9670      1.5900     78.3900
    131    -12.1110     11.0270      9.0650      1.7700     78.3900
    132    -12.6480     10.1850      9.5570      0.0100     78.3900
    133    -11.1060     10.6490      8.7660      0.0100     78.3900
    134    -12.8570     11.3840      7.7710      1.7700     78.3900
    135    -13.9440     11.5200      7.9730      0.0100     78.3900
    136    -12.3590     12.6460      7.2440      1.5900     78.3900
    137    -12.3870     12.6160      5.8330      1.7700     78.3900
    138    -13.0330     13.4680      5.5120      0.0100     78.3900
    139    -11.0400     12.7870      5.2870      1.6800     78.3900
    140     -9.3430     13.1700      3.9480      1.7700     78.3900
    141     -8.7990     12.9400      5.2090      1.6800     78.3900
    142     -9.8460     12.7290      5.9670      1.7700     78.3900
    143     -9.8190     12.5280      7.0420      0.0100     78.3900
    144     -9.5940     13.6410      1.6400      1.6800     78.3900
    145    -10.9060     13.4630      1.8250      1.7700     78.3900
    146    -11.5310     13.5790      0.9320      0.0100     78.3900
    147    -11.5730     13.1980      2.9530      1.6800     78.3900
    148    -10.7230     13.0640      3.9840      1.7700     78.3900
    149     -8.7610     13.5010      2.7050      1.7700     78.3900
    150     -7.4400     13.7080      2.5410      1.6800     78.3900
    151     -6.7930     13.6530      3.3000      0.0100     78.3900
    152     -7.0840     13.8780      1.6180      0.0100     78.3900
    153    -13.0100     11.3050      5.4110      1.7700     78.3900
    154    -12.5640     10.9140      4.4770      0.0100     78.3900
    155    -14.4060     11.4590      5.2460      1.5900     78.3900
    156    -14.7930     10.5720      5.1900      0.0100     78.3900
    157    -12.6770     10.4110      6.5930      1.7700     78.3900
    158    -11.5950     10.1460      6.5660      0.0100     78.3900
    159    -13.5500      9.2690      6.7220      1.5900     78.3900
    160    -12.9760      7.8080      6.5710      2.1000     78.3900
    161    -11.6260      7.7540      7.1730      1.5900     78.3900
    162    -13.9860      6.8770      7.1270      1.5900     78.3900
    163    -12.8300      7.5420      5.0210      1.5900     78.3900
    164    -13.9020      7.7750      4.0800      1.7700     78.3900
    165    -14.5560      8.6260      4.3850      0.0100     78.3900
    166    -14.5400      6.8680      4.0240      0.0100     78.3900
    167    -13.3790      8.0910      2.6650      1.7700     78.3900
    168    -14.2230      8.2190      1.9530      0.0100     78.3900
    169    -12.6630      9.3560      2.7080      1.5900     78.3900
    170    -11.5400      9.3080      1.8470      1.7700     78.3900
    171    -11.6780     10.1560      1.1350      0.0100     78.3900
    172    -10.2460      9.4890      2.5760      1.6800     78.3900
    173    -10.1400      9.0910      3.8900      1.7700     78.3900
    174    -11.0420      8.6770      4.3360      0.0100     78.3900
    175     -9.0070      9.2520      4.5840      1.7700     78.3900
    176     -8.9200      8.9590      5.6290      0.0100     78.3900
    177     -9.1300     10.0130      1.9230      1.7700     78.3900
    178     -9.2240     10.3130      0.7220      1.5900     78.3900
    179     -7.9770     10.1970      2.6130      1.6800     78.3900
    180     -7.9010      9.8450      3.9070      1.7700     78.3900
    181     -6.7730     10.0750      4.5690      1.6800     78.3900
    182     -5.9870     10.4190      4.0530      0.0100     78.3900
    183     -6.6920      9.8870      5.5500      0.0100     78.3900
    184    -11.6200      8.0070      1.0750      1.7700     78.3900
    185    -10.6200      7.6180      0.8340      0.0100     78.3900
    186    -12.3490      8.1790     -0.1250      1.5900     78.3900
    187    -12.4880      7.2960     -0.5060      0.0100     78.3900
    188    -12.3710      7.1030      2.0510      1.7700     78.3900
    189    -11.6990      6.7950      2.8860      0.0100     78.3900
    190    -13.0690      5.9880      1.4280      1.5900     78.3900
    191    -12.2740      4.6260      1.3050      2.1000     78.3900
    192    -11.6020      4.3480      2.5950      1.5900     78.3900
    193    -13.1810      3.5810      0.7770      1.5900     78.3900
    194    -11.2020      4.9120      0.1870      1.5900     78.3900
    195     -9.9490      4.1800      0.1480      1.7700     78.3900
    196     -9.9570      3.4760     -0.7130      0.0100     78.3900
    197     -9.7610      3.5740      1.0690      0.0100     78.3900
    198     -8.7580      5.1350     -0.0060      1.7700     78.3900
    199     -8.7670      5.6190     -1.0030      0.0100     78.3900
    200     -8.8680      6.1860      0.9850      1.5900     78.3900
    201     -7.6030      6.5120      1.4960      1.7700     78.3900
    202     -7.4920      7.6100      1.3710      0.0100     78.3900
    203     -7.5160      6.1800      2.9190      1.6800     78.3900
    204     -6.5220      6.5560      3.7800      1.7700     78.3900
    205     -3.5460      8.2160      4.4050      1.6800     78.3900
    206     -3.3010      8.5850      3.5110      0.0100     78.3900
    207     -2.9430      8.3940      5.1890      0.0100     78.3900
    208     -5.4360      7.2850      3.4670      1.6800     78.3900
    209     -4.6570      7.5140      4.5200      1.7700     78.3900
    210     -4.9490      7.0610      5.7780      1.6800     78.3900
    211     -4.3000      7.2650      6.5220      0.0100     78.3900
    212     -6.0630      6.3110      6.1320      1.7700     78.3900
    213     -6.2500      5.9370      7.2940      1.5900     78.3900
    214     -6.8870      6.0420      5.0080      1.7700     78.3900
    215     -8.0840      5.3380      4.9200      1.6800     78.3900
    216     -8.4280      5.4550      3.6610      1.7700     78.3900
    217     -9.3390      5.0490      3.2080      0.0100     78.3900
    218     -6.5850      5.7870      0.6510      1.7700     78.3900
    219     -5.6650      5.5360      1.2150      0.0100     78.3900
    220     -6.2490      6.5770     -0.4760      1.5900     78.3900
    221     -5.6850      6.0360     -1.0410      0.0100     78.3900
    222     -7.3670      4.5420      0.2500      1.7700     78.3900
    223     -7.4830      3.8650      1.1300      0.0100     78.3900
    224     -6.8760      3.8780     -0.9410      1.5900     78.3900
    225     -5.9950      2.5860     -0.7610      2.1000     78.3900
    226     -6.5640      1.7510      0.3200      1.5900     78.3900
    227     -5.8200      1.9420     -2.0790      1.5900     78.3900
    228     -4.6130      3.1710     -0.2860      1.5900     78.3900
    229     -3.8570      4.0460     -1.1600      1.7700     78.3900
    230     -4.4670      4.9120     -1.5070      0.0100     78.3900
    231     -3.5190      3.4930     -2.0670      0.0100     78.3900
    232     -2.6080      4.5910     -0.4550      1.7700     78.3900
    233     -1.9870      5.1950     -1.1460      0.0100     78.3900
    234     -3.0050      5.4650      0.6380      1.5900     78.3900
    235     -2.1270      5.2700      1.7410      1.7700     78.3900
    236     -1.7050      6.2750      1.9680      0.0100     78.3900
    237     -2.8270      4.7490      2.9500      1.6800     78.3900
    238     -4.0380      4.1090      2.8200      1.7700     78.3900
    239     -4.4400      4.0470      1.8110      0.0100     78.3900
    240     -4.6960      3.6290      3.8820      1.7700     78.3900
    241     -5.6690      3.1490      3.7950      0.0100     78.3900
    242     -2.2410      4.8610      4.2070      1.7700     78.3900
    243     -1.1270      5.3940      4.3120      1.5900     78.3900
    244     -2.8970      4.3930      5.2950      1.6800     78.3900
    245     -4.0870      3.7830      5.1580      1.7700     78.3900
    246     -4.7170      3.3450      6.2460      1.6800     78.3900
    247     -4.2860      3.4490      7.1460      0.0100     78.3900
    248     -5.6040      2.8820      6.1890      0.0100     78.3900
    249     -1.0040      4.3540      1.2810      1.7700     78.3900
    250     -0.6410      3.6910      2.0990      0.0100     78.3900
    251      0.0710      5.1210      0.7560      1.5900     78.3900
    252      0.7290      4.5200      0.3610      0.0100     78.3900
    253     -1.7090      3.5350      0.2040      1.7700     78.3900
    254     -2.3620      2.7700      0.6720      0.0100     78.3900
    255     -0.8260      2.9390     -0.7630      1.5900     78.3900
    256     -0.2800      2.2580     -0.3320      0.0100     78.3900

     ----------------------------
     INPUT FOR TESSERA DEFINITION
     ----------------------------
     NTSALL  =        60     MTHALL  =         4
     MTHAUT  =         0     AUTFRE  =    2.0000
     NTSFRZ  =        60     KEEPSM  =         0
     AREAKP  =   10.0000     BONDRY  =    1.0000
     AREATL  =    0.0100

     SPHERE     INITS       METHOD
          1        60       FIXPVA
          2        60       FIXPVA
          3        60       FIXPVA
          4        60       FIXPVA
          5        60       FIXPVA
          6        60       FIXPVA
          7        60       FIXPVA
          8        60       FIXPVA
          9        60       FIXPVA
         10        60       FIXPVA
         11        60       FIXPVA
         12        60       FIXPVA
         13        60       FIXPVA
         14        60       FIXPVA
         15        60       FIXPVA
         16        60       FIXPVA
         17        60       FIXPVA
         18        60       FIXPVA
         19        60       FIXPVA
         20        60       FIXPVA
         21        60       FIXPVA
         22        60       FIXPVA
         23        60       FIXPVA
         24        60       FIXPVA
         25        60       FIXPVA
         26        60       FIXPVA
         27        60       FIXPVA
         28        60       FIXPVA
         29        60       FIXPVA
         30        60       FIXPVA
         31        60       FIXPVA
         32        60       FIXPVA
         33        60       FIXPVA
         34        60       FIXPVA
         35        60       FIXPVA
         36        60       FIXPVA
         37        60       FIXPVA
         38        60       FIXPVA
         39        60       FIXPVA
         40        60       FIXPVA
         41        60       FIXPVA
         42        60       FIXPVA
         43        60       FIXPVA
         44        60       FIXPVA
         45        60       FIXPVA
         46        60       FIXPVA
         47        60       FIXPVA
         48        60       FIXPVA
         49        60       FIXPVA
         50        60       FIXPVA
         51        60       FIXPVA
         52        60       FIXPVA
         53        60       FIXPVA
         54        60       FIXPVA
         55        60       FIXPVA
         56        60       FIXPVA
         57        60       FIXPVA
         58        60       FIXPVA
         59        60       FIXPVA
         60        60       FIXPVA
         61        60       FIXPVA
         62        60       FIXPVA
         63        60       FIXPVA
         64        60       FIXPVA
         65        60       FIXPVA
         66        60       FIXPVA
         67        60       FIXPVA
         68        60       FIXPVA
         69        60       FIXPVA
         70        60       FIXPVA
         71        60       FIXPVA
         72        60       FIXPVA
         73        60       FIXPVA
         74        60       FIXPVA
         75        60       FIXPVA
         76        60       FIXPVA
         77        60       FIXPVA
         78        60       FIXPVA
         79        60       FIXPVA
         80        60       FIXPVA
         81        60       FIXPVA
         82        60       FIXPVA
         83        60       FIXPVA
         84        60       FIXPVA
         85        60       FIXPVA
         86        60       FIXPVA
         87        60       FIXPVA
         88        60       FIXPVA
         89        60       FIXPVA
         90        60       FIXPVA
         91        60       FIXPVA
         92        60       FIXPVA
         93        60       FIXPVA
         94        60       FIXPVA
         95        60       FIXPVA
         96        60       FIXPVA
         97        60       FIXPVA
         98        60       FIXPVA
         99        60       FIXPVA
        100        60       FIXPVA
        101        60       FIXPVA
        102        60       FIXPVA
        103        60       FIXPVA
        104        60       FIXPVA
        105        60       FIXPVA
        106        60       FIXPVA
        107        60       FIXPVA
        108        60       FIXPVA
        109        60       FIXPVA
        110        60       FIXPVA
        111        60       FIXPVA
        112        60       FIXPVA
        113        60       FIXPVA
        114        60       FIXPVA
        115        60       FIXPVA
        116        60       FIXPVA
        117        60       FIXPVA
        118        60       FIXPVA
        119        60       FIXPVA
        120        60       FIXPVA
        121        60       FIXPVA
        122        60       FIXPVA
        123        60       FIXPVA
        124        60       FIXPVA
        125        60       FIXPVA
        126        60       FIXPVA
        127        60       FIXPVA
        128        60       FIXPVA
        129        60       FIXPVA
        130        60       FIXPVA
        131        60       FIXPVA
        132        60       FIXPVA
        133        60       FIXPVA
        134        60       FIXPVA
        135        60       FIXPVA
        136        60       FIXPVA
        137        60       FIXPVA
        138        60       FIXPVA
        139        60       FIXPVA
        140        60       FIXPVA
        141        60       FIXPVA
        142        60       FIXPVA
        143        60       FIXPVA
        144        60       FIXPVA
        145        60       FIXPVA
        146        60       FIXPVA
        147        60       FIXPVA
        148        60       FIXPVA
        149        60       FIXPVA
        150        60       FIXPVA
        151        60       FIXPVA
        152        60       FIXPVA
        153        60       FIXPVA
        154        60       FIXPVA
        155        60       FIXPVA
        156        60       FIXPVA
        157        60       FIXPVA
        158        60       FIXPVA
        159        60       FIXPVA
        160        60       FIXPVA
        161        60       FIXPVA
        162        60       FIXPVA
        163        60       FIXPVA
        164        60       FIXPVA
        165        60       FIXPVA
        166        60       FIXPVA
        167        60       FIXPVA
        168        60       FIXPVA
        169        60       FIXPVA
        170        60       FIXPVA
        171        60       FIXPVA
        172        60       FIXPVA
        173        60       FIXPVA
        174        60       FIXPVA
        175        60       FIXPVA
        176        60       FIXPVA
        177        60       FIXPVA
        178        60       FIXPVA
        179        60       FIXPVA
        180        60       FIXPVA
        181        60       FIXPVA
        182        60       FIXPVA
        183        60       FIXPVA
        184        60       FIXPVA
        185        60       FIXPVA
        186        60       FIXPVA
        187        60       FIXPVA
        188        60       FIXPVA
        189        60       FIXPVA
        190        60       FIXPVA
        191        60       FIXPVA
        192        60       FIXPVA
        193        60       FIXPVA
        194        60       FIXPVA
        195        60       FIXPVA
        196        60       FIXPVA
        197        60       FIXPVA
        198        60       FIXPVA
        199        60       FIXPVA
        200        60       FIXPVA
        201        60       FIXPVA
        202        60       FIXPVA
        203        60       FIXPVA
        204        60       FIXPVA
        205        60       FIXPVA
        206        60       FIXPVA
        207        60       FIXPVA
        208        60       FIXPVA
        209        60       FIXPVA
        210        60       FIXPVA
        211        60       FIXPVA
        212        60       FIXPVA
        213        60       FIXPVA
        214        60       FIXPVA
        215        60       FIXPVA
        216        60       FIXPVA
        217        60       FIXPVA
        218        60       FIXPVA
        219        60       FIXPVA
        220        60       FIXPVA
        221        60       FIXPVA
        222        60       FIXPVA
        223        60       FIXPVA
        224        60       FIXPVA
        225        60       FIXPVA
        226        60       FIXPVA
        227        60       FIXPVA
        228        60       FIXPVA
        229        60       FIXPVA
        230        60       FIXPVA
        231        60       FIXPVA
        232        60       FIXPVA
        233        60       FIXPVA
        234        60       FIXPVA
        235        60       FIXPVA
        236        60       FIXPVA
        237        60       FIXPVA
        238        60       FIXPVA
        239        60       FIXPVA
        240        60       FIXPVA
        241        60       FIXPVA
        242        60       FIXPVA
        243        60       FIXPVA
        244        60       FIXPVA
        245        60       FIXPVA
        246        60       FIXPVA
        247        60       FIXPVA
        248        60       FIXPVA
        249        60       FIXPVA
        250        60       FIXPVA
        251        60       FIXPVA
        252        60       FIXPVA
        253        60       FIXPVA
        254        60       FIXPVA
        255        60       FIXPVA
        256        60       FIXPVA

     ------------------------------
      FIXPVA TESSELLATION FOR PCM
         PEIFENG SU AND HUI LI
     UNIVERSITY OF NEBRASKA-LINCOLN
     ------------------------------


 PCM DIMENSIONS: MXSP=   256, MXTS=     10240, MEMORY=        105219

     INPUT FOR CAVITY DEFINITION 
     ---------------------------
   ATOM               COORDINATES                RADIUS       EPS
      1     -0.3790      5.1910     16.3020      0.0100     78.3900
      2     -0.1170      5.4410     15.3980      1.5900     78.3900
      3      1.2790      5.7720     15.4440      1.7700     78.3900
      4      1.8530      4.8860     15.7940      0.0100     78.3900
      5      1.4380      6.5940     16.1740      0.0100     78.3900
      6      1.8320      6.2070     14.0830      1.7700     78.3900
      7      2.8970      6.5180     14.1620      0.0100     78.3900
      8      1.7730      5.0830     13.1530      1.5900     78.3900
      9      1.4310      5.5670     11.8620      1.7700     78.3900
     10      2.2300      5.2220     11.1660      0.0100     78.3900
     11      0.1420      5.0280     11.4070      1.6800     78.3900
     12     -0.3060      5.0020     10.1140      1.7700     78.3900
     13      0.1440      5.7390      6.7620      1.6800     78.3900
     14      1.0260      6.2070      6.7500      0.0100     78.3900
     15     -0.3540      5.6160      5.8990      0.0100     78.3900
     16      0.3440      5.4960      9.0460      1.6800     78.3900
     17     -0.3310      5.3070      7.9130      1.7700     78.3900
     18     -1.5360      4.6590      7.8560      1.6800     78.3900
     19     -1.9780      4.5580      6.9570      0.0100     78.3900
     20     -2.2260      4.1290      8.9390      1.7700     78.3900
     21     -3.3100      3.5550      8.7920      1.5900     78.3900
     22     -1.5280      4.3570     10.1570      1.7700     78.3900
     23     -1.8600      4.0130     11.4620      1.6800     78.3900
     24     -0.8430      4.4410     12.1740      1.7700     78.3900
     25     -0.7430      4.3520     13.2590      0.0100     78.3900
     26      1.4390      7.0750     11.9260      1.7700     78.3900
     27      0.7170      7.5350     11.2230      0.0100     78.3900
     28      2.7430      7.5490     11.6500      1.5900     78.3900
     29      2.7160      8.5090     11.7530      0.0100     78.3900
     30      1.0470      7.3250     13.3770      1.7700     78.3900
     31     -0.0370      7.1160     13.5280      0.0100     78.3900
     32      1.4450      8.6030     13.9060      1.5900     78.3900
     33      0.4860      9.8460     13.8300      2.1000     78.3900
     34     -0.8410      9.4630     14.3540      1.5900     78.3900
     35      1.1660     10.9810     14.4950      1.5900     78.3900
     36      0.3600     10.1290     12.2840      1.5900     78.3900
     37      1.4800     10.6940     11.5600      1.7700     78.3900
     38      2.4010     10.0840     11.6930      0.0100     78.3900
     39      1.7190     11.7120     11.9350      0.0100     78.3900
     40      1.1940     10.8030     10.0580      1.7700     78.3900
     41      2.0670     11.2180      9.5110      0.0100     78.3900
     42      0.9400      9.4760      9.5180      1.5900     78.3900
     43     -0.0530      9.5610      8.5070      1.7700     78.3900
     44      0.4290      9.1640      7.5840      0.0100     78.3900
     45     -1.2640      8.7430      8.7980      1.6800     78.3900
     46     -1.5470      8.3600     10.0890      1.7700     78.3900
     47     -0.8530      8.7130     10.8520      0.0100     78.3900
     48     -2.6020      7.5840     10.3720      1.7700     78.3900
     49     -2.8240      7.2450     11.3820      0.0100     78.3900
     50     -2.1250      8.3770      7.7660      1.7700     78.3900
     51     -1.8830      8.7500      6.6090      1.5900     78.3900
     52     -3.2000      7.6020      8.0350      1.6800     78.3900
     53     -3.4450      7.1960      9.2910      1.7700     78.3900
     54     -4.5000      6.4180      9.5140      1.6800     78.3900
     55     -5.0910      6.1530      8.7480      0.0100     78.3900
     56     -4.7140      6.0630     10.4290      0.0100     78.3900
     57     -0.3650     11.0300      8.3040      1.7700     78.3900
     58     -1.4250     11.1960      8.0380      0.0100     78.3900
     59      0.4820     11.5680      7.3030      1.5900     78.3900
     60      0.4260     12.5320      7.3670      0.0100     78.3900
     61     -0.0480     11.6210      9.6720      1.7700     78.3900
     62     -0.8410     11.3510     10.4080      0.0100     78.3900
     63      0.2570     13.0420      9.6530      1.5900     78.3900
     64     -0.9110     14.0600      9.9410      2.1000     78.3900
     65     -1.3850     13.8170     11.3180      1.5900     78.3900
     66     -0.4380     15.4310      9.6450      1.5900     78.3900
     67     -2.0630     13.6750      8.9510      1.5900     78.3900
     68     -2.0220     14.0230      7.5500      1.7700     78.3900
     69     -1.1210     13.6030      7.0520      0.0100     78.3900
     70     -2.0120     15.1290      7.4240      0.0100     78.3900
     71     -3.2630     13.4940      6.8230      1.7700     78.3900
     72     -3.2290     13.7520      5.7420      0.0100     78.3900
     73     -3.3290     12.0430      6.9200      1.5900     78.3900
     74     -4.6730     11.6330      7.0510      1.7700     78.3900
     75     -4.8410     10.9480      6.1910      0.0100     78.3900
     76     -4.9150     10.9160      8.3320      1.6800     78.3900
     77     -4.1300     11.1530      9.4390      1.7700     78.3900
     78     -3.3150     11.8570      9.2880      0.0100     78.3900
     79     -5.9410     10.0010      8.3790      1.7700     78.3900
     80     -6.6580      9.7660      7.4100      1.5900     78.3900
     81     -6.0910      9.3620      9.5840      1.6800     78.3900
     82     -6.8490      8.6950      9.6300      0.0100     78.3900
     83     -5.3110      9.5080     10.7130      1.7700     78.3900
     84     -5.5040      8.8000     11.6990      1.5900     78.3900
     85     -4.2780     10.4910     10.5930      1.7700     78.3900
     86     -3.5950     10.6380     11.4270      0.0100     78.3900
     87     -5.5400     12.8740      6.9010      1.7700     78.3900
     88     -6.4460     12.8170      7.5350      0.0100     78.3900
     89     -5.9150     13.0380      5.5430      1.5900     78.3900
     90     -6.7770     12.6100      5.3960      0.0100     78.3900
     91     -4.5960     13.9740      7.3900      1.7700     78.3900
     92     -4.4910     13.9140      8.5040      0.0100     78.3900
     93     -4.9020     15.3080      6.9020      1.5900     78.3900
     94     -5.4750     16.3710      7.9160      2.1000     78.3900
     95     -4.3570     16.9900      8.6570      1.5900     78.3900
     96     -6.3470     17.2950      7.1560      1.5900     78.3900
     97     -6.3740     15.5530      8.9310      1.5900     78.3900
     98     -7.7470     15.2070      8.6100      1.7700     78.3900
     99     -7.7780     14.2270      8.0920      0.0100     78.3900
    100     -8.2320     15.9470      7.9300      0.0100     78.3900
    101     -8.5840     15.0830      9.8940      1.7700     78.3900
    102     -8.0770     14.4030     10.6130      0.0100     78.3900
    103     -8.7620     16.3920     10.5020      1.5900     78.3900
    104    -10.0700     16.8770     10.2270      1.7700     78.3900
    105    -10.6060     16.8720     11.2080      0.0100     78.3900
    106    -10.0250     18.2400      9.6860      1.6800     78.3900
    107    -10.5410     20.2730      9.0200      1.7700     78.3900
    108     -9.1740     20.1330      8.8090      1.6800     78.3900
    109     -8.9190     18.9100      9.2150      1.7700     78.3900
    110     -7.9370     18.4300      9.1900      0.0100     78.3900
    111    -12.7470     21.1450      9.0750      1.6800     78.3900
    112    -13.1090     19.9730      9.6110      1.7700     78.3900
    113    -14.1740     19.8670      9.8400      0.0100     78.3900
    114    -12.3570     18.9070      9.9050      1.6800     78.3900
    115    -11.0740     19.1180      9.5670      1.7700     78.3900
    116    -11.4370     21.3350      8.7700      1.7700     78.3900
    117    -11.0580     22.5120      8.2370      1.6800     78.3900
    118    -10.1000     22.7160      8.0200      0.0100     78.3900
    119    -11.7310     23.2460      8.1280      0.0100     78.3900
    120    -10.7300     15.8870      9.2800      1.7700     78.3900
    121    -10.5130     16.1510      8.2210      0.0100     78.3900
    122    -12.1230     15.7840      9.4860      1.5900     78.3900
    123    -12.2500     15.3540     10.3480      0.0100     78.3900
    124    -10.0200     14.5900      9.6490      1.7700     78.3900
    125    -10.0230     13.9140      8.7620      0.0100     78.3900
    126    -10.5720     13.9560     10.8230      1.5900     78.3900
    127    -10.7820     12.4020     10.8940      2.1000     78.3900
    128     -9.5890     11.7500     10.3160      1.5900     78.3900
    129    -11.1520     12.0400     12.2800      1.5900     78.3900
    130    -12.0280     12.1580      9.9670      1.5900     78.3900
    131    -12.1110     11.0270      9.0650      1.7700     78.3900
    132    -12.6480     10.1850      9.5570      0.0100     78.3900
    133    -11.1060     10.6490      8.7660      0.0100     78.3900
    134    -12.8570     11.3840      7.7710      1.7700     78.3900
    135    -13.9440     11.5200      7.9730      0.0100     78.3900
    136    -12.3590     12.6460      7.2440      1.5900     78.3900
    137    -12.3870     12.6160      5.8330      1.7700     78.3900
    138    -13.0330     13.4680      5.5120      0.0100     78.3900
    139    -11.0400     12.7870      5.2870      1.6800     78.3900
    140     -9.3430     13.1700      3.9480      1.7700     78.3900
    141     -8.7990     12.9400      5.2090      1.6800     78.3900
    142     -9.8460     12.7290      5.9670      1.7700     78.3900
    143     -9.8190     12.5280      7.0420      0.0100     78.3900
    144     -9.5940     13.6410      1.6400      1.6800     78.3900
    145    -10.9060     13.4630      1.8250      1.7700     78.3900
    146    -11.5310     13.5790      0.9320      0.0100     78.3900
    147    -11.5730     13.1980      2.9530      1.6800     78.3900
    148    -10.7230     13.0640      3.9840      1.7700     78.3900
    149     -8.7610     13.5010      2.7050      1.7700     78.3900
    150     -7.4400     13.7080      2.5410      1.6800     78.3900
    151     -6.7930     13.6530      3.3000      0.0100     78.3900
    152     -7.0840     13.8780      1.6180      0.0100     78.3900
    153    -13.0100     11.3050      5.4110      1.7700     78.3900
    154    -12.5640     10.9140      4.4770      0.0100     78.3900
    155    -14.4060     11.4590      5.2460      1.5900     78.3900
    156    -14.7930     10.5720      5.1900      0.0100     78.3900
    157    -12.6770     10.4110      6.5930      1.7700     78.3900
    158    -11.5950     10.1460      6.5660      0.0100     78.3900
    159    -13.5500      9.2690      6.7220      1.5900     78.3900
    160    -12.9760      7.8080      6.5710      2.1000     78.3900
    161    -11.6260      7.7540      7.1730      1.5900     78.3900
    162    -13.9860      6.8770      7.1270      1.5900     78.3900
    163    -12.8300      7.5420      5.0210      1.5900     78.3900
    164    -13.9020      7.7750      4.0800      1.7700     78.3900
    165    -14.5560      8.6260      4.3850      0.0100     78.3900
    166    -14.5400      6.8680      4.0240      0.0100     78.3900
    167    -13.3790      8.0910      2.6650      1.7700     78.3900
    168    -14.2230      8.2190      1.9530      0.0100     78.3900
    169    -12.6630      9.3560      2.7080      1.5900     78.3900
    170    -11.5400      9.3080      1.8470      1.7700     78.3900
    171    -11.6780     10.1560      1.1350      0.0100     78.3900
    172    -10.2460      9.4890      2.5760      1.6800     78.3900
    173    -10.1400      9.0910      3.8900      1.7700     78.3900
    174    -11.0420      8.6770      4.3360      0.0100     78.3900
    175     -9.0070      9.2520      4.5840      1.7700     78.3900
    176     -8.9200      8.9590      5.6290      0.0100     78.3900
    177     -9.1300     10.0130      1.9230      1.7700     78.3900
    178     -9.2240     10.3130      0.7220      1.5900     78.3900
    179     -7.9770     10.1970      2.6130      1.6800     78.3900
    180     -7.9010      9.8450      3.9070      1.7700     78.3900
    181     -6.7730     10.0750      4.5690      1.6800     78.3900
    182     -5.9870     10.4190      4.0530      0.0100     78.3900
    183     -6.6920      9.8870      5.5500      0.0100     78.3900
    184    -11.6200      8.0070      1.0750      1.7700     78.3900
    185    -10.6200      7.6180      0.8340      0.0100     78.3900
    186    -12.3490      8.1790     -0.1250      1.5900     78.3900
    187    -12.4880      7.2960     -0.5060      0.0100     78.3900
    188    -12.3710      7.1030      2.0510      1.7700     78.3900
    189    -11.6990      6.7950      2.8860      0.0100     78.3900
    190    -13.0690      5.9880      1.4280      1.5900     78.3900
    191    -12.2740      4.6260      1.3050      2.1000     78.3900
    192    -11.6020      4.3480      2.5950      1.5900     78.3900
    193    -13.1810      3.5810      0.7770      1.5900     78.3900
    194    -11.2020      4.9120      0.1870      1.5900     78.3900
    195     -9.9490      4.1800      0.1480      1.7700     78.3900
    196     -9.9570      3.4760     -0.7130      0.0100     78.3900
    197     -9.7610      3.5740      1.0690      0.0100     78.3900
    198     -8.7580      5.1350     -0.0060      1.7700     78.3900
    199     -8.7670      5.6190     -1.0030      0.0100     78.3900
    200     -8.8680      6.1860      0.9850      1.5900     78.3900
    201     -7.6030      6.5120      1.4960      1.7700     78.3900
    202     -7.4920      7.6100      1.3710      0.0100     78.3900
    203     -7.5160      6.1800      2.9190      1.6800     78.3900
    204     -6.5220      6.5560      3.7800      1.7700     78.3900
    205     -3.5460      8.2160      4.4050      1.6800     78.3900
    206     -3.3010      8.5850      3.5110      0.0100     78.3900
    207     -2.9430      8.3940      5.1890      0.0100     78.3900
    208     -5.4360      7.2850      3.4670      1.6800     78.3900
    209     -4.6570      7.5140      4.5200      1.7700     78.3900
    210     -4.9490      7.0610      5.7780      1.6800     78.3900
    211     -4.3000      7.2650      6.5220      0.0100     78.3900
    212     -6.0630      6.3110      6.1320      1.7700     78.3900
    213     -6.2500      5.9370      7.2940      1.5900     78.3900
    214     -6.8870      6.0420      5.0080      1.7700     78.3900
    215     -8.0840      5.3380      4.9200      1.6800     78.3900
    216     -8.4280      5.4550      3.6610      1.7700     78.3900
    217     -9.3390      5.0490      3.2080      0.0100     78.3900
    218     -6.5850      5.7870      0.6510      1.7700     78.3900
    219     -5.6650      5.5360      1.2150      0.0100     78.3900
    220     -6.2490      6.5770     -0.4760      1.5900     78.3900
    221     -5.6850      6.0360     -1.0410      0.0100     78.3900
    222     -7.3670      4.5420      0.2500      1.7700     78.3900
    223     -7.4830      3.8650      1.1300      0.0100     78.3900
    224     -6.8760      3.8780     -0.9410      1.5900     78.3900
    225     -5.9950      2.5860     -0.7610      2.1000     78.3900
    226     -6.5640      1.7510      0.3200      1.5900     78.3900
    227     -5.8200      1.9420     -2.0790      1.5900     78.3900
    228     -4.6130      3.1710     -0.2860      1.5900     78.3900
    229     -3.8570      4.0460     -1.1600      1.7700     78.3900
    230     -4.4670      4.9120     -1.5070      0.0100     78.3900
    231     -3.5190      3.4930     -2.0670      0.0100     78.3900
    232     -2.6080      4.5910     -0.4550      1.7700     78.3900
    233     -1.9870      5.1950     -1.1460      0.0100     78.3900
    234     -3.0050      5.4650      0.6380      1.5900     78.3900
    235     -2.1270      5.2700      1.7410      1.7700     78.3900
    236     -1.7050      6.2750      1.9680      0.0100     78.3900
    237     -2.8270      4.7490      2.9500      1.6800     78.3900
    238     -4.0380      4.1090      2.8200      1.7700     78.3900
    239     -4.4400      4.0470      1.8110      0.0100     78.3900
    240     -4.6960      3.6290      3.8820      1.7700     78.3900
    241     -5.6690      3.1490      3.7950      0.0100     78.3900
    242     -2.2410      4.8610      4.2070      1.7700     78.3900
    243     -1.1270      5.3940      4.3120      1.5900     78.3900
    244     -2.8970      4.3930      5.2950      1.6800     78.3900
    245     -4.0870      3.7830      5.1580      1.7700     78.3900
    246     -4.7170      3.3450      6.2460      1.6800     78.3900
    247     -4.2860      3.4490      7.1460      0.0100     78.3900
    248     -5.6040      2.8820      6.1890      0.0100     78.3900
    249     -1.0040      4.3540      1.2810      1.7700     78.3900
    250     -0.6410      3.6910      2.0990      0.0100     78.3900
    251      0.0710      5.1210      0.7560      1.5900     78.3900
    252      0.7290      4.5200      0.3610      0.0100     78.3900
    253     -1.7090      3.5350      0.2040      1.7700     78.3900
    254     -2.3620      2.7700      0.6720      0.0100     78.3900
    255     -0.8260      2.9390     -0.7630      1.5900     78.3900
    256     -0.2800      2.2580     -0.3320      0.0100     78.3900

 CREATION OF A NEW CAVITY WITH THE ORIGINAL SPHERE
 SIZES FOR THE COMPUTATION OF THE CAVITATION ENERGY.

     INPUT FOR CAVITY DEFINITION 
     ---------------------------
   ATOM               COORDINATES                RADIUS       EPS
      1     -0.3790      5.1910     16.3020      0.0100     78.3900
      2     -0.1170      5.4410     15.3980      1.5900     78.3900
      3      1.2790      5.7720     15.4440      1.7700     78.3900
      4      1.8530      4.8860     15.7940      0.0100     78.3900
      5      1.4380      6.5940     16.1740      0.0100     78.3900
      6      1.8320      6.2070     14.0830      1.7700     78.3900
      7      2.8970      6.5180     14.1620      0.0100     78.3900
      8      1.7730      5.0830     13.1530      1.5900     78.3900
      9      1.4310      5.5670     11.8620      1.7700     78.3900
     10      2.2300      5.2220     11.1660      0.0100     78.3900
     11      0.1420      5.0280     11.4070      1.6800     78.3900
     12     -0.3060      5.0020     10.1140      1.7700     78.3900
     13      0.1440      5.7390      6.7620      1.6800     78.3900
     14      1.0260      6.2070      6.7500      0.0100     78.3900
     15     -0.3540      5.6160      5.8990      0.0100     78.3900
     16      0.3440      5.4960      9.0460      1.6800     78.3900
     17     -0.3310      5.3070      7.9130      1.7700     78.3900
     18     -1.5360      4.6590      7.8560      1.6800     78.3900
     19     -1.9780      4.5580      6.9570      0.0100     78.3900
     20     -2.2260      4.1290      8.9390      1.7700     78.3900
     21     -3.3100      3.5550      8.7920      1.5900     78.3900
     22     -1.5280      4.3570     10.1570      1.7700     78.3900
     23     -1.8600      4.0130     11.4620      1.6800     78.3900
     24     -0.8430      4.4410     12.1740      1.7700     78.3900
     25     -0.7430      4.3520     13.2590      0.0100     78.3900
     26      1.4390      7.0750     11.9260      1.7700     78.3900
     27      0.7170      7.5350     11.2230      0.0100     78.3900
     28      2.7430      7.5490     11.6500      1.5900     78.3900
     29      2.7160      8.5090     11.7530      0.0100     78.3900
     30      1.0470      7.3250     13.3770      1.7700     78.3900
     31     -0.0370      7.1160     13.5280      0.0100     78.3900
     32      1.4450      8.6030     13.9060      1.5900     78.3900
     33      0.4860      9.8460     13.8300      2.1000     78.3900
     34     -0.8410      9.4630     14.3540      1.5900     78.3900
     35      1.1660     10.9810     14.4950      1.5900     78.3900
     36      0.3600     10.1290     12.2840      1.5900     78.3900
     37      1.4800     10.6940     11.5600      1.7700     78.3900
     38      2.4010     10.0840     11.6930      0.0100     78.3900
     39      1.7190     11.7120     11.9350      0.0100     78.3900
     40      1.1940     10.8030     10.0580      1.7700     78.3900
     41      2.0670     11.2180      9.5110      0.0100     78.3900
     42      0.9400      9.4760      9.5180      1.5900     78.3900
     43     -0.0530      9.5610      8.5070      1.7700     78.3900
     44      0.4290      9.1640      7.5840      0.0100     78.3900
     45     -1.2640      8.7430      8.7980      1.6800     78.3900
     46     -1.5470      8.3600     10.0890      1.7700     78.3900
     47     -0.8530      8.7130     10.8520      0.0100     78.3900
     48     -2.6020      7.5840     10.3720      1.7700     78.3900
     49     -2.8240      7.2450     11.3820      0.0100     78.3900
     50     -2.1250      8.3770      7.7660      1.7700     78.3900
     51     -1.8830      8.7500      6.6090      1.5900     78.3900
     52     -3.2000      7.6020      8.0350      1.6800     78.3900
     53     -3.4450      7.1960      9.2910      1.7700     78.3900
     54     -4.5000      6.4180      9.5140      1.6800     78.3900
     55     -5.0910      6.1530      8.7480      0.0100     78.3900
     56     -4.7140      6.0630     10.4290      0.0100     78.3900
     57     -0.3650     11.0300      8.3040      1.7700     78.3900
     58     -1.4250     11.1960      8.0380      0.0100     78.3900
     59      0.4820     11.5680      7.3030      1.5900     78.3900
     60      0.4260     12.5320      7.3670      0.0100     78.3900
     61     -0.0480     11.6210      9.6720      1.7700     78.3900
     62     -0.8410     11.3510     10.4080      0.0100     78.3900
     63      0.2570     13.0420      9.6530      1.5900     78.3900
     64     -0.9110     14.0600      9.9410      2.1000     78.3900
     65     -1.3850     13.8170     11.3180      1.5900     78.3900
     66     -0.4380     15.4310      9.6450      1.5900     78.3900
     67     -2.0630     13.6750      8.9510      1.5900     78.3900
     68     -2.0220     14.0230      7.5500      1.7700     78.3900
     69     -1.1210     13.6030      7.0520      0.0100     78.3900
     70     -2.0120     15.1290      7.4240      0.0100     78.3900
     71     -3.2630     13.4940      6.8230      1.7700     78.3900
     72     -3.2290     13.7520      5.7420      0.0100     78.3900
     73     -3.3290     12.0430      6.9200      1.5900     78.3900
     74     -4.6730     11.6330      7.0510      1.7700     78.3900
     75     -4.8410     10.9480      6.1910      0.0100     78.3900
     76     -4.9150     10.9160      8.3320      1.6800     78.3900
     77     -4.1300     11.1530      9.4390      1.7700     78.3900
     78     -3.3150     11.8570      9.2880      0.0100     78.3900
     79     -5.9410     10.0010      8.3790      1.7700     78.3900
     80     -6.6580      9.7660      7.4100      1.5900     78.3900
     81     -6.0910      9.3620      9.5840      1.6800     78.3900
     82     -6.8490      8.6950      9.6300      0.0100     78.3900
     83     -5.3110      9.5080     10.7130      1.7700     78.3900
     84     -5.5040      8.8000     11.6990      1.5900     78.3900
     85     -4.2780     10.4910     10.5930      1.7700     78.3900
     86     -3.5950     10.6380     11.4270      0.0100     78.3900
     87     -5.5400     12.8740      6.9010      1.7700     78.3900
     88     -6.4460     12.8170      7.5350      0.0100     78.3900
     89     -5.9150     13.0380      5.5430      1.5900     78.3900
     90     -6.7770     12.6100      5.3960      0.0100     78.3900
     91     -4.5960     13.9740      7.3900      1.7700     78.3900
     92     -4.4910     13.9140      8.5040      0.0100     78.3900
     93     -4.9020     15.3080      6.9020      1.5900     78.3900
     94     -5.4750     16.3710      7.9160      2.1000     78.3900
     95     -4.3570     16.9900      8.6570      1.5900     78.3900
     96     -6.3470     17.2950      7.1560      1.5900     78.3900
     97     -6.3740     15.5530      8.9310      1.5900     78.3900
     98     -7.7470     15.2070      8.6100      1.7700     78.3900
     99     -7.7780     14.2270      8.0920      0.0100     78.3900
    100     -8.2320     15.9470      7.9300      0.0100     78.3900
    101     -8.5840     15.0830      9.8940      1.7700     78.3900
    102     -8.0770     14.4030     10.6130      0.0100     78.3900
    103     -8.7620     16.3920     10.5020      1.5900     78.3900
    104    -10.0700     16.8770     10.2270      1.7700     78.3900
    105    -10.6060     16.8720     11.2080      0.0100     78.3900
    106    -10.0250     18.2400      9.6860      1.6800     78.3900
    107    -10.5410     20.2730      9.0200      1.7700     78.3900
    108     -9.1740     20.1330      8.8090      1.6800     78.3900
    109     -8.9190     18.9100      9.2150      1.7700     78.3900
    110     -7.9370     18.4300      9.1900      0.0100     78.3900
    111    -12.7470     21.1450      9.0750      1.6800     78.3900
    112    -13.1090     19.9730      9.6110      1.7700     78.3900
    113    -14.1740     19.8670      9.8400      0.0100     78.3900
    114    -12.3570     18.9070      9.9050      1.6800     78.3900
    115    -11.0740     19.1180      9.5670      1.7700     78.3900
    116    -11.4370     21.3350      8.7700      1.7700     78.3900
    117    -11.0580     22.5120      8.2370      1.6800     78.3900
    118    -10.1000     22.7160      8.0200      0.0100     78.3900
    119    -11.7310     23.2460      8.1280      0.0100     78.3900
    120    -10.7300     15.8870      9.2800      1.7700     78.3900
    121    -10.5130     16.1510      8.2210      0.0100     78.3900
    122    -12.1230     15.7840      9.4860      1.5900     78.3900
    123    -12.2500     15.3540     10.3480      0.0100     78.3900
    124    -10.0200     14.5900      9.6490      1.7700     78.3900
    125    -10.0230     13.9140      8.7620      0.0100     78.3900
    126    -10.5720     13.9560     10.8230      1.5900     78.3900
    127    -10.7820     12.4020     10.8940      2.1000     78.3900
    128     -9.5890     11.7500     10.3160      1.5900     78.3900
    129    -11.1520     12.0400     12.2800      1.5900     78.3900
    130    -12.0280     12.1580      9.9670      1.5900     78.3900
    131    -12.1110     11.0270      9.0650      1.7700     78.3900
    132    -12.6480     10.1850      9.5570      0.0100     78.3900
    133    -11.1060     10.6490      8.7660      0.0100     78.3900
    134    -12.8570     11.3840      7.7710      1.7700     78.3900
    135    -13.9440     11.5200      7.9730      0.0100     78.3900
    136    -12.3590     12.6460      7.2440      1.5900     78.3900
    137    -12.3870     12.6160      5.8330      1.7700     78.3900
    138    -13.0330     13.4680      5.5120      0.0100     78.3900
    139    -11.0400     12.7870      5.2870      1.6800     78.3900
    140     -9.3430     13.1700      3.9480      1.7700     78.3900
    141     -8.7990     12.9400      5.2090      1.6800     78.3900
    142     -9.8460     12.7290      5.9670      1.7700     78.3900
    143     -9.8190     12.5280      7.0420      0.0100     78.3900
    144     -9.5940     13.6410      1.6400      1.6800     78.3900
    145    -10.9060     13.4630      1.8250      1.7700     78.3900
    146    -11.5310     13.5790      0.9320      0.0100     78.3900
    147    -11.5730     13.1980      2.9530      1.6800     78.3900
    148    -10.7230     13.0640      3.9840      1.7700     78.3900
    149     -8.7610     13.5010      2.7050      1.7700     78.3900
    150     -7.4400     13.7080      2.5410      1.6800     78.3900
    151     -6.7930     13.6530      3.3000      0.0100     78.3900
    152     -7.0840     13.8780      1.6180      0.0100     78.3900
    153    -13.0100     11.3050      5.4110      1.7700     78.3900
    154    -12.5640     10.9140      4.4770      0.0100     78.3900
    155    -14.4060     11.4590      5.2460      1.5900     78.3900
    156    -14.7930     10.5720      5.1900      0.0100     78.3900
    157    -12.6770     10.4110      6.5930      1.7700     78.3900
    158    -11.5950     10.1460      6.5660      0.0100     78.3900
    159    -13.5500      9.2690      6.7220      1.5900     78.3900
    160    -12.9760      7.8080      6.5710      2.1000     78.3900
    161    -11.6260      7.7540      7.1730      1.5900     78.3900
    162    -13.9860      6.8770      7.1270      1.5900     78.3900
    163    -12.8300      7.5420      5.0210      1.5900     78.3900
    164    -13.9020      7.7750      4.0800      1.7700     78.3900
    165    -14.5560      8.6260      4.3850      0.0100     78.3900
    166    -14.5400      6.8680      4.0240      0.0100     78.3900
    167    -13.3790      8.0910      2.6650      1.7700     78.3900
    168    -14.2230      8.2190      1.9530      0.0100     78.3900
    169    -12.6630      9.3560      2.7080      1.5900     78.3900
    170    -11.5400      9.3080      1.8470      1.7700     78.3900
    171    -11.6780     10.1560      1.1350      0.0100     78.3900
    172    -10.2460      9.4890      2.5760      1.6800     78.3900
    173    -10.1400      9.0910      3.8900      1.7700     78.3900
    174    -11.0420      8.6770      4.3360      0.0100     78.3900
    175     -9.0070      9.2520      4.5840      1.7700     78.3900
    176     -8.9200      8.9590      5.6290      0.0100     78.3900
    177     -9.1300     10.0130      1.9230      1.7700     78.3900
    178     -9.2240     10.3130      0.7220      1.5900     78.3900
    179     -7.9770     10.1970      2.6130      1.6800     78.3900
    180     -7.9010      9.8450      3.9070      1.7700     78.3900
    181     -6.7730     10.0750      4.5690      1.6800     78.3900
    182     -5.9870     10.4190      4.0530      0.0100     78.3900
    183     -6.6920      9.8870      5.5500      0.0100     78.3900
    184    -11.6200      8.0070      1.0750      1.7700     78.3900
    185    -10.6200      7.6180      0.8340      0.0100     78.3900
    186    -12.3490      8.1790     -0.1250      1.5900     78.3900
    187    -12.4880      7.2960     -0.5060      0.0100     78.3900
    188    -12.3710      7.1030      2.0510      1.7700     78.3900
    189    -11.6990      6.7950      2.8860      0.0100     78.3900
    190    -13.0690      5.9880      1.4280      1.5900     78.3900
    191    -12.2740      4.6260      1.3050      2.1000     78.3900
    192    -11.6020      4.3480      2.5950      1.5900     78.3900
    193    -13.1810      3.5810      0.7770      1.5900     78.3900
    194    -11.2020      4.9120      0.1870      1.5900     78.3900
    195     -9.9490      4.1800      0.1480      1.7700     78.3900
    196     -9.9570      3.4760     -0.7130      0.0100     78.3900
    197     -9.7610      3.5740      1.0690      0.0100     78.3900
    198     -8.7580      5.1350     -0.0060      1.7700     78.3900
    199     -8.7670      5.6190     -1.0030      0.0100     78.3900
    200     -8.8680      6.1860      0.9850      1.5900     78.3900
    201     -7.6030      6.5120      1.4960      1.7700     78.3900
    202     -7.4920      7.6100      1.3710      0.0100     78.3900
    203     -7.5160      6.1800      2.9190      1.6800     78.3900
    204     -6.5220      6.5560      3.7800      1.7700     78.3900
    205     -3.5460      8.2160      4.4050      1.6800     78.3900
    206     -3.3010      8.5850      3.5110      0.0100     78.3900
    207     -2.9430      8.3940      5.1890      0.0100     78.3900
    208     -5.4360      7.2850      3.4670      1.6800     78.3900
    209     -4.6570      7.5140      4.5200      1.7700     78.3900
    210     -4.9490      7.0610      5.7780      1.6800     78.3900
[...]
   240  -4.696000000   3.629000000   3.882000000   2.124000000   7.779812168
   241  -5.669000000   3.149000000   3.795000000   0.012000000   0.000000000
   242  -2.241000000   4.861000000   4.207000000   2.124000000   2.116190259
   243  -1.127000000   5.394000000   4.312000000   1.908000000   8.360006673
   244  -2.897000000   4.393000000   5.295000000   2.016000000   1.077927454
   245  -4.087000000   3.783000000   5.158000000   2.124000000   1.895853251
   246  -4.717000000   3.345000000   6.246000000   2.016000000  13.225062632
   247  -4.286000000   3.449000000   7.146000000   0.012000000   0.000000000
   248  -5.604000000   2.882000000   6.189000000   0.012000000   0.000000000
   249  -1.004000000   4.354000000   1.281000000   2.124000000   6.548265761
   250  -0.641000000   3.691000000   2.099000000   0.012000000   0.000000000
   251   0.071000000   5.121000000   0.756000000   1.908000000  20.808363594
   252   0.729000000   4.520000000   0.361000000   0.012000000   0.000000000
   253  -1.709000000   3.535000000   0.204000000   2.124000000   4.665492420
   254  -2.362000000   2.770000000   0.672000000   0.012000000   0.000000000
   255  -0.826000000   2.939000000  -0.763000000   1.908000000  21.545428052
   256  -0.280000000   2.258000000  -0.332000000   0.012000000   0.000000000

 TOTAL NUMBER OF TESSERAE=    1804
 SURFACE AREA=  1111.75131502(A**2)    CAVITY VOLUME=   1883.10350948 (A**3)
 CPU     0: STEP CPU TIME=     0.01 TOTAL CPU TIME=          0.2 (      0.0 MIN)
 TOTAL WALL CLOCK TIME=          0.3 SECONDS, CPU UTILIZATION IS    56.67%

          THE SOLUTE IS ENCLOSED IN ONE CAVITY
 DONE CHECKING SEPARATION.
 CPU     0: STEP CPU TIME=     0.00 TOTAL CPU TIME=          0.2 (      0.0 MIN)
 TOTAL WALL CLOCK TIME=          0.3 SECONDS, CPU UTILIZATION IS    56.67%

 You did not provide any valid data (r0bda/e0bda) for BDA corrections.

 Initialising fragments
 CPU     0: STEP CPU TIME=     0.00 TOTAL CPU TIME=          0.2 (      0.0 MIN)
 TOTAL WALL CLOCK TIME=          0.3 SECONDS, CPU UTILIZATION IS    54.84%
 CPU     0: STEP CPU TIME=     0.00 TOTAL CPU TIME=          0.2 (      0.0 MIN)
 TOTAL WALL CLOCK TIME=          0.3 SECONDS, CPU UTILIZATION IS    54.84%

 -----------------------------------------------------------------------
                  The Fragment Molecular Orbital (FMO) method.
                       The program is developed at the
                     Nanoscience Research Institute (NRI)
     (formerly, Research Institute for Computational Sciences, RICS)
 National Institute of Advanced Industrial Science and Technology (AIST)
     AIST Tsukuba Central 2, Umezono 1-1-1, Tsukuba, 305-8568, Japan.

                         Version 5.3
                    coded by D. G. Fedorov and K. Kitaura,
 with contributions from N. Asada, K.R. Brorsen, M. Chiba, C. Choi, N. Minezawa,
 T. Nagata, H. Nakata, Y. Nishimoto, S.R. Pruitt, C. Steinmann, and F. Zahariev.
       All publications using the FMO method in GAMESS should reference:
          D. G. Fedorov, K. Kitaura, J. Chem. Phys. 120, 6832 (2004).
 -----------------------------------------------------------------------

 Used memory (words):      5554715
 Number of fragments:      8
 Number of layers:         1
 N-body FMO method:        2
 Number of atoms:        256
 Total charge:            -7
 Total spin multiplicity:  1
 Number of basis sets:     1
 Number of LMO types:      2
 Number of boundaries:     7
 MonomerSCF convergence:   0.1000E-06
 Max monomerSCF iter:     30
 MonomerSCF criterion:     internal
 Max AOs per n-mer:      403      789
 Projection operator constant:  0.10E+07
 Layer electron correlation information
     nbody=  2
    SCFTYP=RHF     
    MPLEVL=  2
    DFTTYP=NONE    
     CITYP=NONE    
     CCTYP=NONE    
     TDDFT=NONE    
 FMO method: FMO2-MP2/PCM<1>

 Bond fragmentation scheme: HOP

 FMO approximations.
    Using point charge approximation for the 2e ESP with the VdW factor   2.00
    Using ES-dimer approximation with the VdW factor   2.00
    No dynamic correlation for dimers with the VdW factor    2.00
    The uniform distances will be used in ESPs.
    Van der Waals radii in Angstrom are:
       R(H  )=  1.2000
       R(O  )=  1.4000
       R(C  )=  1.5000
       R(N  )=  1.5000
       R(P  )=  1.8000

 FMO initial guess options.
    Using monomer density to form dimer guess.

 FMO extensions.

 FMO automation options.

 FMO SCF converger options.
    SCF convergers:
    833    833    833    833    833    833    833    833    833    833
    Fragment orbitals will be exchanged.

 FMO parallelisation options.
    Smart parallel load balancing: large jobs first.
    ESPs will be shell parallelised.
    Broadcast all fragments at once.
    Do the fragment initialisation in the reverse order.
    Layer 1, monomer(SCF,MP2,MCSCF) groups are:    1    0    0
    Layer 1,   dimer(SCF,ESD,MCSCF) groups are:    1    0    0

 FMO properties and print-out level.
    Interfragment CT method:    4
       Compact print-out level.
    Atomic charges will be printed.
    Pair interaction energy decomposition analysis (PIEDA) will be done (PL only).

 Array dimensions maxbnd,maxknd,maxcbs,maxcao,maxbbd are:
                      10     10     19      5     19

 --------------------------------------------------




 Starting layer 1 nbody=2
 SCFTYP=RHF     MPLEVL=2 DFTTYP=NONE    CITYP=NONE    CCTYP=NONE    TDDFT=NONE    


 CPU     0: STEP CPU TIME=     0.02 TOTAL CPU TIME=          0.2 (      0.0 MIN)
 TOTAL WALL CLOCK TIME=          0.3 SECONDS, CPU UTILIZATION IS    55.88%

 Running initial guess for monomer       8


          -------------
          GUESS OPTIONS
          -------------
          GUESS =HUCKEL            NORB  =       0          NORDER=       0
          MIX   =       F          PRTMO =       F          PUNMO =       F
          TOLZ  = 1.0E-08          TOLE  = 1.0E-05
          SYMDEN=       F          PURIFY=       F

 INITIAL GUESS ORBITALS GENERATED BY HUCKEL   ROUTINE.
 HUCKEL GUESS REQUIRES    560361 WORDS.

 SYMMETRIES FOR INITIAL GUESS ORBITALS FOLLOW.   BOTH SET(S).
    59 ORBITALS ARE OCCUPIED (   16 CORE ORBITALS).
    17=A       18=A       19=A       20=A       21=A       22=A       23=A   
    24=A       25=A       26=A       27=A       28=A       29=A       30=A   
    31=A       32=A       33=A       34=A       35=A       36=A       37=A   
    38=A       39=A       40=A       41=A       42=A       43=A       44=A   
    45=A       46=A       47=A       48=A       49=A       50=A       51=A   
    52=A       53=A       54=A       55=A       56=A       57=A       58=A   
    59=A       60=A       61=A       62=A       63=A       64=A       65=A   
    66=A       67=A       68=A       69=A   
 ...... END OF INITIAL ORBITAL SELECTION ......
 CPU     0: STEP CPU TIME=     0.08 TOTAL CPU TIME=          0.3 (      0.0 MIN)
 TOTAL WALL CLOCK TIME=          0.5 SECONDS, CPU UTILIZATION IS    49.09%

 Running initial guess for monomer       7


          -------------
          GUESS OPTIONS
          -------------
          GUESS =HUCKEL            NORB  =       0          NORDER=       0
          MIX   =       F          PRTMO =       F          PUNMO =       F
          TOLZ  = 1.0E-08          TOLE  = 1.0E-05
          SYMDEN=       F          PURIFY=       F

 INITIAL GUESS ORBITALS GENERATED BY HUCKEL   ROUTINE.
 HUCKEL GUESS REQUIRES   1174437 WORDS.

 SYMMETRIES FOR INITIAL GUESS ORBITALS FOLLOW.   BOTH SET(S).
    89 ORBITALS ARE OCCUPIED (   27 CORE ORBITALS).
    28=A       29=A       30=A       31=A       32=A       33=A       34=A   
    35=A       36=A       37=A       38=A       39=A       40=A       41=A   
    42=A       43=A       44=A       45=A       46=A       47=A       48=A   
    49=A       50=A       51=A       52=A       53=A       54=A       55=A   
    56=A       57=A       58=A       59=A       60=A       61=A       62=A   
    63=A       64=A       65=A       66=A       67=A       68=A       69=A   
    70=A       71=A       72=A       73=A       74=A       75=A       76=A   
    77=A       78=A       79=A       80=A       81=A       82=A       83=A   
    84=A       85=A       86=A       87=A       88=A       89=A       90=A   
    91=A       92=A       93=A       94=A       95=A       96=A       97=A   
    98=A       99=A   
 ...... END OF INITIAL ORBITAL SELECTION ......
 CPU     0: STEP CPU TIME=     0.22 TOTAL CPU TIME=          0.5 (      0.0 MIN)
 TOTAL WALL CLOCK TIME=          1.1 SECONDS, CPU UTILIZATION IS    43.36%

 Running initial guess for monomer       6


          -------------
          GUESS OPTIONS
          -------------
          GUESS =HUCKEL            NORB  =       0          NORDER=       0
          MIX   =       F          PRTMO =       F          PUNMO =       F
          TOLZ  = 1.0E-08          TOLE  = 1.0E-05
          SYMDEN=       F          PURIFY=       F

 INITIAL GUESS ORBITALS GENERATED BY HUCKEL   ROUTINE.
 HUCKEL GUESS REQUIRES    920598 WORDS.

 SYMMETRIES FOR INITIAL GUESS ORBITALS FOLLOW.   BOTH SET(S).
    79 ORBITALS ARE OCCUPIED (   24 CORE ORBITALS).
    25=A       26=A       27=A       28=A       29=A       30=A       31=A   
    32=A       33=A       34=A       35=A       36=A       37=A       38=A   
    39=A       40=A       41=A       42=A       43=A       44=A       45=A   
    46=A       47=A       48=A       49=A       50=A       51=A       52=A   
    53=A       54=A       55=A       56=A       57=A       58=A       59=A   
    60=A       61=A       62=A       63=A       64=A       65=A       66=A   
    67=A       68=A       69=A       70=A       71=A       72=A       73=A   
    74=A       75=A       76=A       77=A       78=A       79=A       80=A   
    81=A       82=A       83=A       84=A       85=A       86=A       87=A   
    88=A       89=A   
 ...... END OF INITIAL ORBITAL SELECTION ......
 CPU     0: STEP CPU TIME=     0.17 TOTAL CPU TIME=          0.7 (      0.0 MIN)
 TOTAL WALL CLOCK TIME=          1.5 SECONDS, CPU UTILIZATION IS    42.86%

 Running initial guess for monomer       5


          -------------
          GUESS OPTIONS
          -------------
          GUESS =HUCKEL            NORB  =       0          NORDER=       0
          MIX   =       F          PRTMO =       F          PUNMO =       F
          TOLZ  = 1.0E-08          TOLE  = 1.0E-05
          SYMDEN=       F          PURIFY=       F

 INITIAL GUESS ORBITALS GENERATED BY HUCKEL   ROUTINE.
 HUCKEL GUESS REQUIRES   1086374 WORDS.

 SYMMETRIES FOR INITIAL GUESS ORBITALS FOLLOW.   BOTH SET(S).
    85 ORBITALS ARE OCCUPIED (   26 CORE ORBITALS).
    27=A       28=A       29=A       30=A       31=A       32=A       33=A   
    34=A       35=A       36=A       37=A       38=A       39=A       40=A   
    41=A       42=A       43=A       44=A       45=A       46=A       47=A   
    48=A       49=A       50=A       51=A       52=A       53=A       54=A   
    55=A       56=A       57=A       58=A       59=A       60=A       61=A   
    62=A       63=A       64=A       65=A       66=A       67=A       68=A   
    69=A       70=A       71=A       72=A       73=A       74=A       75=A   
    76=A       77=A       78=A       79=A       80=A       81=A       82=A   
    83=A       84=A       85=A       86=A       87=A       88=A       89=A   
    90=A       91=A       92=A       93=A       94=A       95=A   
 ...... END OF INITIAL ORBITAL SELECTION ......
 CPU     0: STEP CPU TIME=     0.20 TOTAL CPU TIME=          0.9 (      0.0 MIN)
 TOTAL WALL CLOCK TIME=          2.1 SECONDS, CPU UTILIZATION IS    41.75%

 Running initial guess for monomer       4


          -------------
          GUESS OPTIONS
          -------------
          GUESS =HUCKEL            NORB  =       0          NORDER=       0
          MIX   =       F          PRTMO =       F          PUNMO =       F
          TOLZ  = 1.0E-08          TOLE  = 1.0E-05
          SYMDEN=       F          PURIFY=       F

 INITIAL GUESS ORBITALS GENERATED BY HUCKEL   ROUTINE.
 HUCKEL GUESS REQUIRES   1086374 WORDS.

 SYMMETRIES FOR INITIAL GUESS ORBITALS FOLLOW.   BOTH SET(S).
    85 ORBITALS ARE OCCUPIED (   26 CORE ORBITALS).
    27=A       28=A       29=A       30=A       31=A       32=A       33=A   
    34=A       35=A       36=A       37=A       38=A       39=A       40=A   
    41=A       42=A       43=A       44=A       45=A       46=A       47=A   
    48=A       49=A       50=A       51=A       52=A       53=A       54=A   
    55=A       56=A       57=A       58=A       59=A       60=A       61=A   
    62=A       63=A       64=A       65=A       66=A       67=A       68=A   
    69=A       70=A       71=A       72=A       73=A       74=A       75=A   
    76=A       77=A       78=A       79=A       80=A       81=A       82=A   
    83=A       84=A       85=A       86=A       87=A       88=A       89=A   
    90=A       91=A       92=A       93=A       94=A       95=A   
 ...... END OF INITIAL ORBITAL SELECTION ......
 CPU     0: STEP CPU TIME=     0.21 TOTAL CPU TIME=          1.1 (      0.0 MIN)
 TOTAL WALL CLOCK TIME=          2.6 SECONDS, CPU UTILIZATION IS    41.63%

 Running initial guess for monomer       3


          -------------
          GUESS OPTIONS
          -------------
          GUESS =HUCKEL            NORB  =       0          NORDER=       0
          MIX   =       F          PRTMO =       F          PUNMO =       F
          TOLZ  = 1.0E-08          TOLE  = 1.0E-05
          SYMDEN=       F          PURIFY=       F

 INITIAL GUESS ORBITALS GENERATED BY HUCKEL   ROUTINE.
 HUCKEL GUESS REQUIRES    909141 WORDS.

 SYMMETRIES FOR INITIAL GUESS ORBITALS FOLLOW.   BOTH SET(S).
    79 ORBITALS ARE OCCUPIED (   24 CORE ORBITALS).
    25=A       26=A       27=A       28=A       29=A       30=A       31=A   
    32=A       33=A       34=A       35=A       36=A       37=A       38=A   
    39=A       40=A       41=A       42=A       43=A       44=A       45=A   
    46=A       47=A       48=A       49=A       50=A       51=A       52=A   
    53=A       54=A       55=A       56=A       57=A       58=A       59=A   
    60=A       61=A       62=A       63=A       64=A       65=A       66=A   
    67=A       68=A       69=A       70=A       71=A       72=A       73=A   
    74=A       75=A       76=A       77=A       78=A       79=A       80=A   
    81=A       82=A       83=A       84=A       85=A       86=A       87=A   
    88=A       89=A   
 ...... END OF INITIAL ORBITAL SELECTION ......
 CPU     0: STEP CPU TIME=     0.16 TOTAL CPU TIME=          1.2 (      0.0 MIN)
 TOTAL WALL CLOCK TIME=          3.0 SECONDS, CPU UTILIZATION IS    41.28%

 Running initial guess for monomer       2


          -------------
          GUESS OPTIONS
          -------------
          GUESS =HUCKEL            NORB  =       0          NORDER=       0
          MIX   =       F          PRTMO =       F          PUNMO =       F
          TOLZ  = 1.0E-08          TOLE  = 1.0E-05
          SYMDEN=       F          PURIFY=       F

 INITIAL GUESS ORBITALS GENERATED BY HUCKEL   ROUTINE.
 HUCKEL GUESS REQUIRES    920598 WORDS.

 SYMMETRIES FOR INITIAL GUESS ORBITALS FOLLOW.   BOTH SET(S).
    79 ORBITALS ARE OCCUPIED (   24 CORE ORBITALS).
    25=A       26=A       27=A       28=A       29=A       30=A       31=A   
    32=A       33=A       34=A       35=A       36=A       37=A       38=A   
    39=A       40=A       41=A       42=A       43=A       44=A       45=A   
    46=A       47=A       48=A       49=A       50=A       51=A       52=A   
    53=A       54=A       55=A       56=A       57=A       58=A       59=A   
    60=A       61=A       62=A       63=A       64=A       65=A       66=A   
    67=A       68=A       69=A       70=A       71=A       72=A       73=A   
    74=A       75=A       76=A       77=A       78=A       79=A       80=A   
    81=A       82=A       83=A       84=A       85=A       86=A       87=A   
    88=A       89=A   
 ...... END OF INITIAL ORBITAL SELECTION ......
 CPU     0: STEP CPU TIME=     0.17 TOTAL CPU TIME=          1.4 (      0.0 MIN)
 TOTAL WALL CLOCK TIME=          3.4 SECONDS, CPU UTILIZATION IS    41.42%

 Running initial guess for monomer       1


          -------------
          GUESS OPTIONS
          -------------
          GUESS =HUCKEL            NORB  =       0          NORDER=       0
          MIX   =       F          PRTMO =       F          PUNMO =       F
          TOLZ  = 1.0E-08          TOLE  = 1.0E-05
          SYMDEN=       F          PURIFY=       F

 INITIAL GUESS ORBITALS GENERATED BY HUCKEL   ROUTINE.
 HUCKEL GUESS REQUIRES   1279373 WORDS.

 SYMMETRIES FOR INITIAL GUESS ORBITALS FOLLOW.   BOTH SET(S).
    94 ORBITALS ARE OCCUPIED (   28 CORE ORBITALS).
    29=A       30=A       31=A       32=A       33=A       34=A       35=A   
    36=A       37=A       38=A       39=A       40=A       41=A       42=A   
    43=A       44=A       45=A       46=A       47=A       48=A       49=A   
    50=A       51=A       52=A       53=A       54=A       55=A       56=A   
    57=A       58=A       59=A       60=A       61=A       62=A       63=A   
    64=A       65=A       66=A       67=A       68=A       69=A       70=A   
    71=A       72=A       73=A       74=A       75=A       76=A       77=A   
    78=A       79=A       80=A       81=A       82=A       83=A       84=A   
    85=A       86=A       87=A       88=A       89=A       90=A       91=A   
    92=A       93=A       94=A       95=A       96=A       97=A       98=A   
    99=A      100=A      101=A      102=A      103=A      104=A   
 ...... END OF INITIAL ORBITAL SELECTION ......
 CPU     0: STEP CPU TIME=     0.25 TOTAL CPU TIME=          1.6 (      0.0 MIN)
 TOTAL WALL CLOCK TIME=          4.0 SECONDS, CPU UTILIZATION IS    41.04%

 There are           9 separated and      19 SCF (      19 of them correlated) dimers.
 Estimate of max dimer size:  789 AOs,  178 occ. MOs

 Fragment statistics

      I  NAME     Q NAT0 NATB NA  NAO LAY MUL SCFTYP        NOP     MOL    CONV
 ==============================================================================
      1 F1       -1   36   1   94  403 1  1 G RHF             0      -1      -1
      2 F2       -1   31   1   79  341 1  1 G RHF             0      -1      -1
      3 F3       -1   30   1   79  339 1  1 G RHF             0      -1      -1
      4 F4       -1   33   1   85  371 1  1 G RHF             0      -1      -1
      5 F5       -1   33   1   85  371 1  1 G RHF             0      -1      -1
      6 F6       -1   31   1   79  341 1  1 G RHF             0      -1      -1
      7 F7       -1   34   1   89  386 1  1 G RHF             0      -1      -1
      8 F8        0   28   0   59  264 1  1 G RHF             0      -1      -1

 Close fragment pairs, distance relative to vdW radii

 CPU     0: STEP CPU TIME=     0.00 TOTAL CPU TIME=          1.6 (      0.0 MIN)
 TOTAL WALL CLOCK TIME=          4.0 SECONDS, CPU UTILIZATION IS    40.94%
 dmexch needs              3031310  words of memory.
 CPU     0: STEP CPU TIME=     0.01 TOTAL CPU TIME=          1.7 (      0.0 MIN)
 TOTAL WALL CLOCK TIME=          4.1 SECONDS, CPU UTILIZATION IS    40.89%

 Data exchange of   1004129 words took     0.0 s.

 RHF      monomer      1 corr= NONE       , L1=   403, L0=   378 ID=      1


 AO spaces for     1     0     0 n-mer: L1=   403, L0=   378

 DIRECT SCF CALCULATION, SCHWRZ=T   FDIFF=T,  DIRTHR=  0.00E+00 NITDIR=10

                                                                                   NONZERO     BLOCKS
 ITER EX DEM     TOTAL ENERGY        E CHANGE  DENSITY CHANGE     ORB. GRAD      INTEGRALS    SKIPPED
   1  0  0   848307.9271707844848307.9271707844   0.528851765   0.000000000     1032882441   21847262
          ---------------START SECOND ORDER SCF---------------
   2  1  0    -1551.5865427556*****************   0.419729079   0.098141712     1038892779   21849388
