‘4A4R_3_fmo_input.inp’ -> ‘/scratch/hazwong/822160/./4A4R_3_fmo_input.inp’
‘rungms’ -> ‘/scratch/hazwong/822160/./rungms’
‘gms-files.csh’ -> ‘/scratch/hazwong/822160/./gms-files.csh’
----- GAMESS execution script 'rungms' -----
This job is running on host gollum084.lsa.umich.edu
under operating system Linux at Fri Dec 6 11:57:22 EST 2019
Available scratch disk space (Kbyte units) at beginning of the job is
Filesystem     1K-blocks  Used Available Use% Mounted on
/dev/sda4      426933580 33428 426900152   1% /scratch
GAMESS temporary binary files will be written to /scratch/hazwong/822160/4A4R_3/usrc
GAMESS supplementary output files will be written to /scratch/hazwong/822160/4A4R_3/src
Copying input file 4A4R_3_fmo_input.inp to your run's scratch directory...
cp 4A4R_3_fmo_input.inp /scratch/hazwong/822160/4A4R_3/usrc/4A4R_3_fmo_input.F05
unset echo
This is a GDDI run, keeping various output files on local disks
setenv OUTPUT /scratch/hazwong/822160/4A4R_3/usrc/4A4R_3_fmo_input.F06
setenv PUNCH /scratch/hazwong/822160/4A4R_3/usrc/4A4R_3_fmo_input.F07
unset echo
 
Assuming a single but multicore node.
 
/export/apps/CentOS7/gamess/src/build//ddikick.x /export/apps/CentOS7/gamess/src/build//gamess.R3.x 4A4R_3_fmo_input -ddi 1 16 gollum084.lsa.umich.edu:cpus=16 -scr /scratch/hazwong/822160/4A4R_3/usrc

 Distributed Data Interface kickoff program.
 Initiating 16 compute processes on 1 nodes to run the following command:
 /export/apps/CentOS7/gamess/src/build//gamess.R3.x 4A4R_3_fmo_input 

          ******************************************************
          *         GAMESS VERSION = 30 SEP 2018 (R3)         *
          *             FROM IOWA STATE UNIVERSITY             *
          * M.W.SCHMIDT, K.K.BALDRIDGE, J.A.BOATZ, S.T.ELBERT, *
          *   M.S.GORDON, J.H.JENSEN, S.KOSEKI, N.MATSUNAGA,   *
          *          K.A.NGUYEN, S.J.SU, T.L.WINDUS,           *
          *       TOGETHER WITH M.DUPUIS, J.A.MONTGOMERY       *
          *         J.COMPUT.CHEM.  14, 1347-1363(1993)        *
          **************** 64 BIT LINUX VERSION ****************

  SINCE 1993, STUDENTS AND POSTDOCS WORKING AT IOWA STATE UNIVERSITY
  AND ALSO IN THEIR VARIOUS JOBS AFTER LEAVING ISU HAVE MADE IMPORTANT
  CONTRIBUTIONS TO THE CODE:
     IVANA ADAMOVIC, CHRISTINE AIKENS, YURI ALEXEEV, POOJA ARORA,
     ANDREY ASADCHEV, ROB BELL, PRADIPTA BANDYOPADHYAY, JONATHAN BENTZ,
     BRETT BODE, KURT BRORSEN, CALEB CARLIN, GALINA CHABAN, WEI CHEN,
     CHEOL HO CHOI, PAUL DAY, ALBERT DEFUSCO, NUWAN DESILVA, TIM DUDLEY,
     DMITRI FEDOROV, ALEX FINDLATER, GRAHAM FLETCHER, MARK FREITAG,
     KURT GLAESEMANN, ANASTASIA GUNINA,
     DAN KEMP, GRANT MERRILL, NORIYUKI MINEZAWA, JONATHAN MULLIN,
     TAKESHI NAGATA, SEAN NEDD, HEATHER NETZLOFF, BOSILJKA NJEGIC, RYAN OLSON,
     MIKE PAK, BUU PHAM,
     SPENCER PRUITT, LUKE ROSKOP, JIM SHOEMAKER, LYUDMILA SLIPCHENKO,
     TONY SMITH, SAROM SOK LEANG, JIE SONG, TETSUYA TAKETSUGU, SIMON WEBB,
     PENG XU, SOOHAENG YOO, FEDERICO ZAHARIEV

  ADDITIONAL CODE HAS BEEN PROVIDED BY COLLABORATORS IN OTHER GROUPS:
     IOWA STATE UNIVERSITY:
          JOE IVANIC, AARON WEST, LAIMUTIS BYTAUTAS, KLAUS RUEDENBERG
     UNIVERSITY OF TOKYO: KIMIHIKO HIRAO, TAKAHITO NAKAJIMA,
          TAKAO TSUNEDA, MUNEAKI KAMIYA, SUSUMU YANAGISAWA,
          KIYOSHI YAGI, MAHITO CHIBA, SEIKEN TOKURA, NAOAKI KAWAKAMI
     UNIVERSITY OF AARHUS: FRANK JENSEN
     UNIVERSITY OF IOWA: VISVALDAS KAIRYS, HUI LI
     NATIONAL INST. OF STANDARDS AND TECHNOLOGY: WALT STEVENS, DAVID GARMER
     UNIVERSITY OF PISA: BENEDETTA MENNUCCI, JACOPO TOMASI
     UNIVERSITY OF MEMPHIS: HENRY KURTZ, PRAKASHAN KORAMBATH
     UNIVERSITY OF ALBERTA: TOBY ZENG, MARIUSZ KLOBUKOWSKI
     UNIVERSITY OF NEW ENGLAND: MARK SPACKMAN
     MIE UNIVERSITY: HIROAKI UMEDA
     NAT. INST. OF ADVANCED INDUSTRIAL SCIENCE AND TECHNOLOGY: KAZUO KITAURA
     MICHIGAN STATE UNIVERSITY:
          KAROL KOWALSKI, MARTA WLOCH, JEFFREY GOUR, JESSE LUTZ,
          WEI LI, JUN SHEN, J. EMILIANO DEUSTUA, PIOTR PIECUCH
     UNIVERSITY OF MINNESOTA:
          YINAN SHU
     UNIVERSITY OF SILESIA: MONIKA MUSIAL, STANISLAW KUCHARSKI
     FACULTES UNIVERSITAIRES NOTRE-DAME DE LA PAIX:
          OLIVIER QUINET, BENOIT CHAMPAGNE
     UNIVERSITY OF CALIFORNIA - SANTA BARBARA: BERNARD KIRTMAN
     INSTITUTE FOR MOLECULAR SCIENCE:
          KAZUYA ISHIMURA, MICHIO KATOUDA, AND SHIGERU NAGASE
     UNIVERSITY OF NOTRE DAME: ANNA POMOGAEVA, DAN CHIPMAN
     KYUSHU UNIVERSITY:
          HARUYUKI NAKANO,
          FENG LONG GU, JACEK KORCHOWIEC, MARCIN MAKOWSKI, AND YURIKO AOKI,
          HIROTOSHI MORI AND EISAKU MIYOSHI
     PENNSYLVANIA STATE UNIVERSITY:
          TZVETELIN IORDANOV, CHET SWALINA, JONATHAN SKONE,
          SHARON HAMMES-SCHIFFER
     WASEDA UNIVERSITY:
          MASATO KOBAYASHI, TOMOKO AKAMA, TSUGUKI TOUMA,
          TAKESHI YOSHIKAWA, YASUHIRO IKABATA, JUNJI SEINO,
          YUYA NAKAJIMA, HIROMI NAKAI
     NANJING UNIVERSITY: SHUHUA LI
     UNIVERSITY OF NEBRASKA:
          PEIFENG SU, DEJUN SI, NANDUN THELLAMUREGE, YALI WANG, HUI LI
     UNIVERSITY OF ZURICH: ROBERTO PEVERATI, KIM BALDRIDGE
     N. COPERNICUS UNIVERSITY AND JACKSON STATE UNIVERSITY:
          MARIA BARYSZ
     UNIVERSITY OF COPENHAGEN: Jimmy Kromann, CASPER STEINMANN
     TOKYO INSTITUTE OF TECHNOLOGY: HIROYA NAKATA
     NAGOYA UNIVERSITY: YOSHIO NISHIMOTO, STEPHAN IRLE
     MOSCOW STATE UNIVERSITY: VLADIMIR MIRONOV


 PARALLEL VERSION RUNNING ON       16 PROCESSORS IN        1 NODES.

 EXECUTION OF GAMESS BEGUN Fri Dec  6 11:57:22 2019

            ECHO OF THE FIRST FEW INPUT CARDS -
 INPUT CARD>!*** FMO 5.3 (Gamess) INPUT generated by Facio 22.1.1.32 ***                    
 INPUT CARD> $CONTRL RUNTYP=ENERGY NPRINT=-5 ISPHER=1 MAXIT=200 $END                        
 INPUT CARD> $SYSTEM MWORDS=63 MEMDDI=63 $END                                               
 INPUT CARD> $GDDI NGROUP=1 $END                                                            
 INPUT CARD> $SCF DIRSCF=.TRUE. NPUNCH=0 $END                                               
 INPUT CARD>!*** NumCPU : 2  MemPerNode : 512MB                                             
 INPUT CARD> $PCM SOLVNT=WATER IEF=-10 ICOMP=2 ICAV=1 IDISP=1 IFMO=-1 $END                  
 INPUT CARD> $PCMCAV RADII=SUAHF $END                                                       
 INPUT CARD> $TESCAV NTSALL=60 $END                                                         
 INPUT CARD> $FMOPRP                                                                        
 INPUT CARD>    NAODIR=200                                                                  
 INPUT CARD>    NGRFMO(1)=1, 1, 0, 0, 0,   0, 0, 0, 0, 0                                    
 INPUT CARD>    IPIEDA=1                                                                    
 INPUT CARD>    NPRINT=9                                                                    
 INPUT CARD> $END                                                                           
 INPUT CARD> $FMO                                                                           
 INPUT CARD>      SCFTYP(1)=RHF                                                             
 INPUT CARD>      MODGRD=10                                                                 
 INPUT CARD>      MODMUL=0                                                                  
 INPUT CARD>      MAXCAO=5                                                                  
 INPUT CARD>      MAXBND=10                                                                 
 INPUT CARD>      NLAYER=1                                                                  
 INPUT CARD>      MPLEVL(1)=2                                                               
 INPUT CARD>      NFRAG=8                                                                   
 INPUT CARD>      ICHARG(1)=-1, -1, -1, -1, -1, -1, -1, 0                                   
 INPUT CARD>      FRGNAM(1)=F1, F2, F3, F4, F5, F6, F7, F8                                  
 INPUT CARD>      indat(1)=0                                                                
 INPUT CARD>               1   -36   0                                                      
 INPUT CARD>               37   -67   0                                                     
 INPUT CARD>               68   -97   0                                                     
 INPUT CARD>               98   -130   0                                                    
 INPUT CARD>               131   -163   0                                                   
 INPUT CARD>               164   -194   0                                                   
 INPUT CARD>               195   -228   0                                                   
 INPUT CARD>               229   -256   0                                                   
 INPUT CARD> $END                                                                           
 INPUT CARD>                                                                                
 INPUT CARD> $FMOBND                                                                        
 INPUT CARD>   -37   36       6-31G*    MINI                                                
 INPUT CARD>   -68   67       6-31G*    MINI                                                
 INPUT CARD>   -98   97       6-31G*    MINI                                                
 INPUT CARD>   -131   130       6-31G*    MINI                                              
 INPUT CARD>   -164   163       6-31G*    MINI                                              
 INPUT CARD>   -195   194       6-31G*    MINI                                              
 INPUT CARD>   -229   228       6-31G*    MINI                                              
 INPUT CARD> $END                                                                           
 INPUT CARD> $FMOHYB                                                                        
 INPUT CARD> 6-31G*      15   5                                                             
 INPUT CARD>   1 0  -0.065034   0.288264   0.000000   0.000000   0.604412                   
 INPUT CARD>         0.290129   0.000000   0.000000   0.319045  -0.017106                   


 -------------------------------------------------------------
 GROUP DDI, PROGRAMMED BY: RYAN M. OLSON AND DMITRI G. FEDOROV
        FEDOROV ET AL., J. COMPUT. CHEM., 25 (2004) 872.
 -------------------------------------------------------------

 -------------------------------------------------------
 GDDI: INITIALIZATION COMPLETED FOR GROUP     1 OF     1
 WITH    16 PROCESSES BALTYP=DLB   global rank=        0
 -------------------------------------------------------

   63000000 WORDS OF MEMORY AVAILABLE


     RUN TITLE
     ---------
  FMO calculation                                                                

 THE POINT GROUP OF THE MOLECULE IS C1      
 THE ORDER OF THE PRINCIPAL AXIS IS     0

 ATOM   ATOMIC CHARGE
 H.1-1       1.0
 O.1-1       8.0
 C.1-1       6.0
 N.1-1       7.0
 P.1-1      15.0

     ATOMIC BASIS SET LIBRARY
     ----------------
 THE CONTRACTED PRIMITIVE FUNCTIONS HAVE BEEN UNNORMALIZED
 THE CONTRACTED BASIS FUNCTIONS ARE NOW NORMALIZED TO UNITY

  SHELL TYPE  PRIMITIVE        EXPONENT          CONTRACTION COEFFICIENT(S)

 H.1-1     

      1   S       1            18.7311370    0.033494604338
      1   S       2             2.8253944    0.234726953484
      1   S       3             0.6401217    0.813757326146

      2   S       4             0.1612778    1.000000000000

 O.1-1     

      3   S       5          5484.6716600    0.001831074430
      3   S       6           825.2349460    0.013950172200
      3   S       7           188.0469580    0.068445078098
      3   S       8            52.9645000    0.232714335992
      3   S       9            16.8975704    0.470192897984
      3   S      10             5.7996353    0.358520852987

      4   L      11            15.5396162   -0.110777549525    0.070874268231
      4   L      12             3.5999336   -0.148026262701    0.339752839147
      4   L      13             1.0137618    1.130767015354    0.727158577316

      5   L      14             0.2700058    1.000000000000    1.000000000000

      6   D      15             0.8000000    1.000000000000

 C.1-1     

      7   S      16          3047.5248800    0.001834737132
      7   S      17           457.3695180    0.014037322813
      7   S      18           103.9486850    0.068842622264
      7   S      19            29.2101553    0.232184443216
      7   S      20             9.2866630    0.467941348435
      7   S      21             3.1639270    0.362311985337

      8   L      22             7.8682723   -0.119332419775    0.068999066591
      8   L      23             1.8812885   -0.160854151696    0.316423960957
      8   L      24             0.5442493    1.143456437840    0.744308290898

      9   L      25             0.1687145    1.000000000000    1.000000000000

     10   D      26             0.8000000    1.000000000000

 N.1-1     

     11   S      27          4173.5114600    0.001834772160
     11   S      28           627.4579110    0.013994627002
     11   S      29           142.9020930    0.068586551812
     11   S      30            40.2343293    0.232240873040
     11   S      31            12.8202129    0.469069948082
     11   S      32             4.3904370    0.360455199063

     12   L      33            11.6263619   -0.114961181702    0.067579743878
     12   L      34             2.7162798   -0.169117478561    0.323907295893
     12   L      35             0.7722184    1.145851947027    0.740895139755

     13   L      36             0.2120315    1.000000000000    1.000000000000

     14   D      37             0.8000000    1.000000000000

 P.1-1     

     15   S      38         19413.3000000    0.001851598923
     15   S      39          2909.4200000    0.014206191735
     15   S      40           661.3640000    0.069999459277
     15   S      41           185.7590000    0.240078860331
     15   S      42            59.1943000    0.484761717984
     15   S      43            20.0310000    0.335199804993

     16   L      44           339.4780000   -0.002782170105    0.004564616191
     16   L      45            81.0101000   -0.036049901354    0.033693571881
     16   L      46            25.8780000   -0.116631004382    0.139754883368
     16   L      47             9.4522100    0.096832803638    0.339361716786
     16   L      48             3.6656600    0.614418023082    0.450920623685
     16   L      49             1.4674600    0.403798015170    0.238585800889

     17   L      50             2.1562300   -0.252924113863   -0.017765312733
     17   L      51             0.7489970    0.032851844678    0.274058196433
     17   L      52             0.2831450    1.081254761783    0.785421562957

     18   L      53             0.0998317    1.000000000000    1.000000000000

     19   D      54             0.5500000    1.000000000000

 TOTAL NUMBER OF BASIS SET SHELLS             =   19
 NUMBER OF CARTESIAN GAUSSIAN BASIS FUNCTIONS =   66

     $CONTRL OPTIONS
     ---------------
 SCFTYP=RHF          RUNTYP=ENERGY       EXETYP=RUN     
 MPLEVL=       0     CITYP =NONE         CCTYP =NONE         VBTYP =NONE    
 DFTTYP=NONE         TDDFT =NONE    
 MULT  =       1     ICHARG=       0     NZVAR =       0     COORD =UNIQUE  
 PP    =NONE         RELWFN=NONE         LOCAL =NONE         NUMGRD=       F
 ISPHER=       1     NOSYM =       0     MAXIT =     200     UNITS =ANGS    
 PLTORB=       F     MOLPLT=       F     AIMPAC=       F     FRIEND=        
 NPRINT=      -5     IREST =       0     GEOM  =INPUT   
 NORMF =       0     NORMP =       0     ITOL  =      24     ICUT  =      12
 INTTYP=BEST         GRDTYP=BEST         QMTTOL= 1.0E-06

     $SYSTEM OPTIONS
     ---------------
  REPLICATED MEMORY=    63000000 WORDS (ON EVERY NODE).
 DISTRIBUTED MEMDDI=          63 MILLION WORDS IN AGGREGATE,
 MEMDDI DISTRIBUTED OVER  16 PROCESSORS IS     3937500 WORDS/PROCESSOR.
 TOTAL MEMORY REQUESTED ON EACH PROCESSOR=    66937500 WORDS.
 TIMLIM=      525600.00 MINUTES, OR     365.0 DAYS.
 PARALL= T  BALTYP=  DLB     KDIAG=    0  COREFL= F
 MXSEQ2=     300 MXSEQ3=     150  mem10=         0

 ** LOOKING UP INTERNALLY STORED DATA FOR SOLVENT=WATER    **
 OPTICAL AND PHYSICAL CONSTANTS:
 EPS= 78.390; EPSINF=  1.776; RSOLV=  1.385 A; VMOL=  18.070 ML/MOL;
 TCE= .25700E-03 1/K; STEN= 71.810 DYN/CM;  DSTEN=  0.6500; CMF=  1.2770


     -----------------------------------
     INPUT FOR PCM SOLVATION CALCULATION 
     -----------------------------------
     IEF   =     -10
     ICOMP =       2     IFIELD=       0     ICAV  =       1
     IDISP =       1     IREP  =       0     IDP   =       0

     SOLVNT=WATER        EPS   = 78.3900     EPSINF=  1.7760
     VMOL  = 18.0700     TCE   =  0.00025700 STEN  = 71.8100
     DSTEN =  0.6500     CMF   =  1.2770     RSOLV =  1.3850

     NESFP =       0
     OMEGA = 40.0000     RET   =100.0000     FRO   =  0.7000

     TABS  =298.0000     IPRINT=       0

     --------------------------------
     INPUT FOR ITERATIVE C-PCM METHOD 
     --------------------------------
     IPCMIT  =         1     MXDIIS  =        50
     MXITR1  =       200     MXITR2  =       200
     THRES   = 0.100E-09     IMUL    =         3
     RCUT(1) =   20.0000     RCUT(2) =   50.0000

     IDIRCT  =         1
     IMGABI  =         0     RABI    =    4.0000
     IMGASC  =         0     RASC    =   20.0000
     THRSLS  = 0.500E-03     DENSLS  =    0.0100
     IEFPOL  =         1     REFPOL  =    0.0000

     INPUT FOR ISOTROPIC DIELECTRICS
     -------------------------------
     EPS=    78.39

          ----------------
          PROPERTIES INPUT
          ----------------

     MOMENTS            FIELD           POTENTIAL          DENSITY
 IEMOM =       1   IEFLD =       0   IEPOT =       0   IEDEN =       0
 WHERE =COMASS     WHERE =NUCLEI     WHERE =NUCLEI     WHERE =NUCLEI  
 OUTPUT=BOTH       OUTPUT=BOTH       OUTPUT=NONE       OUTPUT=BOTH    
 IEMINT=       0   IEFINT=       0                     IEDINT=       0
                                                       MORB  =       0
          EXTRAPOLATION IN EFFECT
          SOSCF IN EFFECT
 ORBITAL PRINTING OPTION: NPREO=     1 32767     2     1

     -------------------------------
     INTEGRAL TRANSFORMATION OPTIONS
     -------------------------------
     NWORD  =            0
     CUTOFF = 1.0E-10     MPTRAN =       0
     DIRTRF =       T     AOINTS =DUP     

          ----------------------
          INTEGRAL INPUT OPTIONS
          ----------------------
 NOPK  =       1 NORDER=       0 SCHWRZ=       T

 ..... DONE SETTING UP THE RUN .....
 CPU     0: STEP CPU TIME=     0.03 TOTAL CPU TIME=          0.0 (      0.0 MIN)
 TOTAL WALL CLOCK TIME=          0.1 SECONDS, CPU UTILIZATION IS    50.00%
 CPU     0: STEP CPU TIME=     0.00 TOTAL CPU TIME=          0.0 (      0.0 MIN)
 TOTAL WALL CLOCK TIME=          0.1 SECONDS, CPU UTILIZATION IS    50.00%

                    ----------------------
                    AO INTEGRAL TECHNOLOGY
                    ----------------------
     S,P,L SHELL ROTATED AXIS INTEGRALS, REPROGRAMMED BY
        KAZUYA ISHIMURA (IMS) AND JOSE SIERRA (SYNSTAR).
     S,P,D,L SHELL ROTATED AXIS INTEGRALS PROGRAMMED BY
        KAZUYA ISHIMURA (INSTITUTE FOR MOLECULAR SCIENCE).
     S,P,D,F,G SHELL TO TOTAL QUARTET ANGULAR MOMENTUM SUM 5,
        ERIC PROGRAM BY GRAHAM FLETCHER (ELORET AND NASA ADVANCED
        SUPERCOMPUTING DIVISION, AMES RESEARCH CENTER).
     S,P,D,F,G,L SHELL GENERAL RYS QUADRATURE PROGRAMMED BY
        MICHEL DUPUIS (PACIFIC NORTHWEST NATIONAL LABORATORY).
 Setting modorb=1 flag...
 Setting modorb=1 flag...

          -----------------------
          MP2 CONTROL INFORMATION
          -----------------------
          NACORE =        8  NBCORE =        8
          LMOMP2 =        F  AOINTS = DUP     
          METHOD =        2  NWORD  =               0
          MP2PRP =        F  OSPT   = NONE    
          CUTOFF = 1.00E-12  CPHFBS = BASISAO 
          CODE   = IMS     

          NUMBER OF CORE -A-  ORBITALS =     8
          NUMBER OF CORE -B-  ORBITALS =     8
          NUMBER OF OCC. -A-  ORBITALS =    18
          NUMBER OF OCC. -B-  ORBITALS =    18
          NUMBER OF MOLECULAR ORBITALS =    66
          NUMBER OF   BASIS  FUNCTIONS =    66

 CPU     0: STEP CPU TIME=     0.02 TOTAL CPU TIME=          0.1 (      0.0 MIN)
 TOTAL WALL CLOCK TIME=          0.1 SECONDS, CPU UTILIZATION IS    54.55%
 CPU     0: STEP CPU TIME=     0.00 TOTAL CPU TIME=          0.1 (      0.0 MIN)
 TOTAL WALL CLOCK TIME=          0.1 SECONDS, CPU UTILIZATION IS    54.55%

     INPUT FOR CAVITY DEFINITION 
     ---------------------------
   ATOM               COORDINATES                RADIUS       EPS
      1      0.8770      3.1190     13.0920      0.0100     78.3900
      2      1.0040      3.7850     12.3900      1.5900     78.3900
      3      2.4080      4.0780     12.3530      1.7700     78.3900
      4      2.9840      3.1310     12.2470      0.0100     78.3900
      5      2.7040      4.5420     13.3200      0.0100     78.3900
      6      2.7930      5.0260     11.2150      1.7700     78.3900
      7      3.8780      5.2610     11.2390      0.0100     78.3900
      8      2.5160      4.3970      9.9260      1.5900     78.3900
      9      2.0170      5.3820      9.0330      1.7700     78.3900
     10      2.6720      5.3590      8.1320      0.0100     78.3900
     11      0.6370      5.0920      8.6220      1.6800     78.3900
     12     -0.0030      5.6140      7.5300      1.7700     78.3900
     13      0.0050      7.6720      4.7520      1.6800     78.3900
     14      0.9130      8.0820      4.7900      0.0100     78.3900
     15     -0.6160      7.9260      4.0060      0.0100     78.3900
     16      0.5190      6.4940      6.6600      1.6800     78.3900
     17     -0.3320      6.8060      5.6860      1.7700     78.3900
     18     -1.5830      6.2580      5.5780      1.6800     78.3900
     19     -2.1620      6.5480      4.8050      0.0100     78.3900
     20     -2.1430      5.3330      6.4490      1.7700     78.3900
     21     -3.2800      4.8850      6.2690      1.5900     78.3900
     22     -1.2530      5.0250      7.5150      1.7700     78.3900
     23     -1.4080      4.1670      8.5980      1.6800     78.3900
     24     -0.2590      4.2410      9.2310      1.7700     78.3900
     25      0.0030      3.6930     10.1400      0.0100     78.3900
     26      2.1460      6.7260      9.7120      1.7700     78.3900
     27      1.3580      7.4410      9.4000      0.0100     78.3900
     28      3.4200      7.2740      9.4440      1.5900     78.3900
     29      3.4540      8.1180      9.9070      0.0100     78.3900
     30      2.0060      6.3450     11.1820      1.7700     78.3900
     31      0.9450      6.0970     11.4180      0.0100     78.3900
     32      2.5860      7.2800     12.1190      1.5900     78.3900
     33      1.7050      8.4410     12.7150      2.1000     78.3900
     34      0.4310      7.8760     13.1970      1.5900     78.3900
     35      2.5180      9.1980     13.6910      1.5900     78.3900
     36      1.4070      9.3480     11.4700      1.5900     78.3900
     37      2.4540     10.1470     10.8740      1.7700     78.3900
     38      3.3290      9.5240     10.5880      0.0100     78.3900
     39      2.8170     10.9130     11.5970      0.0100     78.3900
     40      1.9450     10.8850      9.6270      1.7700     78.3900
     41      2.7600     11.4860      9.1650      0.0100     78.3900
     42      1.4740      9.9370      8.6230      1.5900     78.3900
     43      0.3250     10.4830      7.9790      1.7700     78.3900
     44      0.5860     10.5120      6.8960      0.0100     78.3900
     45     -0.8990      9.6490      8.1440      1.6800     78.3900
     46     -1.0010      8.7680      9.1960      1.7700     78.3900
     47     -0.1520      8.7460      9.8790      0.0100     78.3900
     48     -2.0730      7.9770      9.3440      1.7700     78.3900
     49     -2.1560      7.2550     10.1540      0.0100     78.3900
     50     -1.9550      9.7690      7.2440      1.7700     78.3900
     51     -1.8730     10.5910      6.3190      1.5900     78.3900
     52     -3.0410      8.9760      7.3730      1.6800     78.3900
     53     -3.1180      8.0920      8.3800      1.7700     78.3900
     54     -4.1930      7.3110      8.4650      1.6800     78.3900
     55     -4.9260      7.4250      7.7900      0.0100     78.3900
     56     -4.2940      6.6110      9.1710      0.0100     78.3900
     57      0.1540     11.9060      8.4740      1.7700     78.3900
     58     -0.9060     12.2160      8.5030      0.0100     78.3900
     59      0.8880     12.7990      7.6550      1.5900     78.3900
     60      0.8660     13.6680      8.0880      0.0100     78.3900
     61      0.7470     11.8180      9.8740      1.7700     78.3900
     62      0.0490     11.2800     10.5570      0.0100     78.3900
     63      1.2090     13.0710     10.4210      1.5900     78.3900
     64      0.2230     13.9880     11.2370      2.1000     78.3900
     65     -0.4010     13.1630     12.2940      1.5900     78.3900
     66      0.9680     15.1840     11.6810      1.5900     78.3900
     67     -0.8840     14.4530     10.2140      1.5900     78.3900
     68     -2.2360     14.7250     10.6720      1.7700     78.3900
     69     -2.3790     15.8230     10.7660      0.0100     78.3900
     70     -2.4610     14.2800     11.6780      0.0100     78.3900
     71     -3.2970     14.2010      9.6930      1.7700     78.3900
     72     -3.2970     14.7970      8.7560      0.0100     78.3900
     73     -2.9990     12.8280      9.3300      1.5900     78.3900
     74     -4.1830     12.0590      9.3050      1.7700     78.3900
     75     -4.2110     11.5780      8.2980      0.0100     78.3900
     76     -4.1850     11.0000     10.3450      1.6800     78.3900
     77     -3.1840     10.9210     11.2940      1.7700     78.3900
     78     -2.4300     11.7130     11.2650      0.0100     78.3900
     79     -5.1620     10.0320     10.2670      1.7700     78.3900
     80     -6.0230     10.0190      9.3940      1.5900     78.3900
     81     -5.0910      9.0630     11.2290      1.6800     78.3900
     82     -5.8160      8.3610     11.1980      0.0100     78.3900
     83     -4.1210      8.9080     12.1920      1.7700     78.3900
     84     -4.1680      7.9500     12.9600      1.5900     78.3900
     85     -3.1110      9.9220     12.1830      1.7700     78.3900
     86     -2.3040      9.8610     12.9090      0.0100     78.3900
     87     -5.3340     13.0360      9.4260      1.7700     78.3900
     88     -6.2600     12.6170      9.8680      0.0100     78.3900
     89     -5.5740     13.5470      8.1440      1.5900     78.3900
     90     -4.9300     14.2490      8.0410      0.0100     78.3900
     91     -4.7210     14.1350     10.2760      1.7700     78.3900
     92     -4.6260     13.7990     11.3340      0.0100     78.3900
     93     -5.3580     15.4270     10.1390      1.5900     78.3900
     94     -6.5250     15.8430     11.1110      2.1000     78.3900
     95     -6.2740     15.2290     12.4370      1.5900     78.3900
     96     -6.6350     17.3160     11.0840      1.5900     78.3900
     97     -7.8410     15.2260     10.5020      1.5900     78.3900
     98     -9.1310     15.4900     11.1160      1.7700     78.3900
     99     -9.0940     16.3250     11.8580      0.0100     78.3900
    100     -9.4550     14.5790     11.6600      0.0100     78.3900
    101    -10.2200     15.8690     10.0920      1.7700     78.3900
    102    -11.1660     16.1440     10.6140      0.0100     78.3900
    103     -9.7860     17.0480      9.3550      1.5900     78.3900
    104    -10.1660     16.9360      7.9960      1.7700     78.3900
    105    -10.7770     17.8400      7.7720      0.0100     78.3900
    106     -9.0070     16.9350      7.1020      1.6800     78.3900
    107     -7.7280     17.1280      5.3240      1.7700     78.3900
    108     -6.8720     16.9000      6.3970      1.6800     78.3900
    109     -7.6790     16.7770      7.4250      1.7700     78.3900
    110     -7.3700     16.5580      8.4500      0.0100     78.3900
    111     -8.5760     17.5550      3.1470      1.6800     78.3900
    112     -9.7900     17.5260      3.7060      1.7700     78.3900
    113    -10.6240     17.7020      3.0180      0.0100     78.3900
    114    -10.1350     17.3580      4.9870      1.6800     78.3900
    115     -9.0450     17.1500      5.7480      1.7700     78.3900
    116     -7.4980     17.3410      3.9460      1.7700     78.3900
    117     -6.2700     17.3830      3.3980      1.6800     78.3900
    118     -5.4610     17.1060      3.9200      0.0100     78.3900
    119     -6.1720     17.4730      2.4070      0.0100     78.3900
    120    -11.0290     15.7030      7.8510      1.7700     78.3900
    121    -10.8820     15.1920      6.8780      0.0100     78.3900
    122    -12.3900     16.0630      8.0000      1.5900     78.3900
    123    -12.8890     15.2400      8.1160      0.0100     78.3900
    124    -10.5480     14.8320      9.0040      1.7700     78.3900
    125     -9.5690     14.3630      8.7330      0.0100     78.3900
    126    -11.5550     13.8900      9.4620      1.5900     78.3900
    127    -11.2240     12.3550      9.5060      2.1000     78.3900
    128     -9.7950     12.1860      9.8230      1.5900     78.3900
    129    -12.1870     11.6920     10.4130      1.5900     78.3900
    130    -11.4710     11.8450      8.0330      1.5900     78.3900
    131    -12.7070     12.0600      7.3250      1.7700     78.3900
    132    -13.2090     13.0120      7.6210      0.0100     78.3900
    133    -13.4000     11.2250      7.5600      0.0100     78.3900
    134    -12.4870     12.0960      5.8040      1.7700     78.3900
    135    -13.4520     12.1510      5.2620      0.0100     78.3900
    136    -11.7580     13.3140      5.4780      1.5900     78.3900
    137    -10.8240     13.0570      4.4490      1.7700     78.3900
    138    -11.0380     13.7830      3.6270      0.0100     78.3900
    139     -9.4600     13.2540      4.9310      1.6800     78.3900
    140     -7.3160     13.6790      5.1060      1.7700     78.3900
    141     -7.7700     13.3770      6.3680      1.6800     78.3900
    142     -9.0290     13.1240      6.2210      1.7700     78.3900
    143     -9.7000     12.8620      7.0350      0.0100     78.3900
    144     -5.9330     14.2690      3.2740      1.6800     78.3900
    145     -7.0260     14.1210      2.5170      1.7700     78.3900
    146     -6.8890     14.3090      1.4450      0.0100     78.3900
    147     -8.2820     13.8440      2.8900      1.6800     78.3900
    148     -8.3500     13.6060      4.2020      1.7700     78.3900
    149     -6.0480     14.0440      4.6090      1.7700     78.3900
    150     -4.9810     14.2140      5.4060      1.6800     78.3900
    151     -5.1000     13.9510      6.3670      0.0100     78.3900
    152     -4.0960     14.5130      5.0470      0.0100     78.3900
    153    -11.0630     11.6480      3.9630      1.7700     78.3900
    154    -10.1230     11.1470      3.6650      0.0100     78.3900
    155    -11.9780     11.6640      2.8830      1.5900     78.3900
    156    -12.0720     10.7480      2.5920      0.0100     78.3900
    157    -11.6460     10.9570      5.1960      1.7700     78.3900
    158    -10.8100     10.7260      5.8970      0.0100     78.3900
    159    -12.4660      9.8000      4.8700      1.5900     78.3900
    160    -12.6300      8.6490      5.9340      2.1000     78.3900
    161    -11.4220      8.5650      6.7730      1.5900     78.3900
    162    -13.9180      8.8520      6.6310      1.5900     78.3900
    163    -12.7490      7.3320      5.0720      1.5900     78.3900
    164    -11.5650      6.5260      4.8500      1.7700     78.3900
    165    -11.0490      6.2790      5.8080      0.0100     78.3900
    166    -10.8530      7.0850      4.2100      0.0100     78.3900
    167    -11.8760      5.2090      4.1230      1.7700     78.3900
    168    -10.9530      4.6130      3.9600      0.0100     78.3900
    169    -12.7770      4.3890      4.9220      1.5900     78.3900
    170    -13.7690      3.8170      4.0720      1.7700     78.3900
    171    -13.7180      2.7200      4.2730      0.0100     78.3900
    172    -15.1500      4.2840      4.3830      1.6800     78.3900
    173    -15.3460      5.3480      5.2340      1.7700     78.3900
    174    -14.4500      5.8230      5.6350      0.0100     78.3900
    175    -16.5750      5.7670      5.5550      1.7700     78.3900
    176    -16.7460      6.5940      6.2420      0.0100     78.3900
    177    -16.2540      3.6290      3.8330      1.7700     78.3900
    178    -16.0670      2.6710      3.0650      1.5900     78.3900
    179    -17.5060      4.0380      4.1460      1.6800     78.3900
    180    -17.6820      5.0790      4.9830      1.7700     78.3900
    181    -18.9180      5.4670      5.2890      1.6800     78.3900
    182    -19.6960      5.0020      4.8610      0.0100     78.3900
    183    -19.0980      6.2250      5.9180      0.0100     78.3900
    184    -13.3530      4.0820      2.6330      1.7700     78.3900
    185    -14.2200      4.2030      1.9460      0.0100     78.3900
    186    -12.5200      3.0280      2.1790      1.5900     78.3900
    187    -12.1350      3.2940      1.3280      0.0100     78.3900
    188    -12.5840      5.3890      2.7800      1.7700     78.3900
    189    -13.3010      6.2300      2.9230      0.0100     78.3900
    190    -11.6040      5.6350      1.7500      1.5900     78.3900
    191    -11.9510      6.5630      0.5300      2.1000     78.3900
    192    -11.7000      5.8080     -0.7150      1.5900     78.3900
    193    -13.3100      7.1300      0.6870      1.5900     78.3900
    194    -10.8780      7.7170      0.6620      1.5900     78.3900
    195    -11.0360      8.8740     -0.1990      1.7700     78.3900
    196    -11.9750      9.4180      0.0560      0.0100     78.3900
    197    -11.0810      8.5710     -1.2720      0.0100     78.3900
    198     -9.8710      9.8630     -0.0610      1.7700     78.3900
    199    -10.0180     10.7420     -0.7220      0.0100     78.3900
    200     -9.8150     10.3580      1.2970      1.5900     78.3900
    201     -8.4600     10.4990      1.6980      1.7700     78.3900
    202     -8.3290     11.5400      2.0480      0.0100     78.3900
    203     -8.1420      9.5950      2.8080      1.6800     78.3900
    204     -7.0340      9.6360      3.6090      1.7700     78.3900
    205     -4.0110     11.0610      4.4950      1.6800     78.3900
    206     -3.9280     11.8100      3.8420      0.0100     78.3900
    207     -3.3050     10.9270      5.1930      0.0100     78.3900
    208     -6.0200     10.5090      3.5100      1.6800     78.3900
    209     -5.0980     10.3180      4.4510      1.7700     78.3900
    210     -5.1910      9.3430      5.4110      1.6800     78.3900
    211     -4.4540      9.2780      6.0950      0.0100     78.3900
    212     -6.2290      8.4290      5.5430      1.7700     78.3900
    213     -6.2480      7.5790      6.4430      1.5900     78.3900
    214     -7.2050      8.6160      4.5270      1.7700     78.3900
    215     -8.3860      7.9320      4.2860      1.6800     78.3900
    216     -8.9170      8.5540      3.2630      1.7700     78.3900
    217     -9.8800      8.3230      2.7990      0.0100     78.3900
    218     -7.5980     10.2620      0.4880      1.7700     78.3900
    219     -6.6140      9.8190      0.7470      0.0100     78.3900
    220     -7.3960     11.4780     -0.2060      1.5900     78.3900
    221     -6.9510     11.2560     -1.0320      0.0100     78.3900
    222     -8.4670      9.2980     -0.3050      1.7700     78.3900
    223     -8.4630      8.2960      0.1850      0.0100     78.3900
    224     -8.1790      9.2670     -1.7220      1.5900     78.3900
    225     -7.3960      8.0220     -2.2860      2.1000     78.3900
    226     -7.8320      6.8000     -1.5870      1.5900     78.3900
    227     -7.4920      8.0160     -3.7660      1.5900     78.3900
    228     -5.9000      8.3050     -1.8700      1.5900     78.3900
    229     -5.2340      9.4910     -2.3630      1.7700     78.3900
    230     -5.8280     10.4140     -2.1700      0.0100     78.3900
    231     -5.0880      9.4120     -3.4620      0.0100     78.3900
    232     -3.8520      9.6680     -1.7240      1.7700     78.3900
    233     -3.2900     10.4970     -2.2060      0.0100     78.3900
    234     -4.0110     10.0180     -0.3220      1.5900     78.3900
    235     -3.0020      9.3650      0.4400      1.7700     78.3900
    236     -2.4630     10.1720      0.9890      0.0100     78.3900
    237     -3.5650      8.4040      1.4250      1.6800     78.3900
    238     -4.8300      7.8940      1.2480      1.7700     78.3900
    239     -5.3780      8.2670      0.3840      0.0100     78.3900
    240     -5.3610      7.0220      2.1120      1.7700     78.3900
    241     -6.3740      6.6430      2.0030      0.0100     78.3900
    242     -2.7930      7.9710      2.4980      1.7700     78.3900
    243     -1.6300      8.3860      2.6140      1.5900     78.3900
    244     -3.3140      7.0960      3.3880      1.6800     78.3900
    245     -4.5620      6.6220      3.2200      1.7700     78.3900
    246     -5.0510      5.7600      4.1080      1.6800     78.3900
    247     -4.4930      5.4820      4.8940      0.0100     78.3900
    248     -5.9830      5.4020      4.0320      0.0100     78.3900
    249     -2.0410      8.7030     -0.5360      1.7700     78.3900
    250     -1.6120      7.7620     -0.1300      0.0100     78.3900
    251     -1.0020      9.6070     -0.8790      1.5900     78.3900
    252     -0.4580      9.2080     -1.5800      0.0100     78.3900
    253     -2.9680      8.4130     -1.7110      1.7700     78.3900
    254     -3.6040      7.5280     -1.4880      0.0100     78.3900
    255     -2.2950      8.2570     -2.9730      1.5900     78.3900
    256     -1.7850      7.4260     -2.9750      0.0100     78.3900

     ----------------------------
     INPUT FOR TESSERA DEFINITION
     ----------------------------
     NTSALL  =        60     MTHALL  =         4
     MTHAUT  =         0     AUTFRE  =    2.0000
     NTSFRZ  =        60     KEEPSM  =         0
     AREAKP  =   10.0000     BONDRY  =    1.0000
     AREATL  =    0.0100

     SPHERE     INITS       METHOD
          1        60       FIXPVA
          2        60       FIXPVA
          3        60       FIXPVA
          4        60       FIXPVA
          5        60       FIXPVA
          6        60       FIXPVA
          7        60       FIXPVA
          8        60       FIXPVA
          9        60       FIXPVA
         10        60       FIXPVA
         11        60       FIXPVA
         12        60       FIXPVA
         13        60       FIXPVA
         14        60       FIXPVA
         15        60       FIXPVA
         16        60       FIXPVA
         17        60       FIXPVA
         18        60       FIXPVA
         19        60       FIXPVA
         20        60       FIXPVA
         21        60       FIXPVA
         22        60       FIXPVA
         23        60       FIXPVA
         24        60       FIXPVA
         25        60       FIXPVA
         26        60       FIXPVA
         27        60       FIXPVA
         28        60       FIXPVA
         29        60       FIXPVA
         30        60       FIXPVA
         31        60       FIXPVA
         32        60       FIXPVA
         33        60       FIXPVA
         34        60       FIXPVA
         35        60       FIXPVA
         36        60       FIXPVA
         37        60       FIXPVA
         38        60       FIXPVA
         39        60       FIXPVA
         40        60       FIXPVA
         41        60       FIXPVA
         42        60       FIXPVA
         43        60       FIXPVA
         44        60       FIXPVA
         45        60       FIXPVA
         46        60       FIXPVA
         47        60       FIXPVA
         48        60       FIXPVA
         49        60       FIXPVA
         50        60       FIXPVA
         51        60       FIXPVA
         52        60       FIXPVA
         53        60       FIXPVA
         54        60       FIXPVA
         55        60       FIXPVA
         56        60       FIXPVA
         57        60       FIXPVA
         58        60       FIXPVA
         59        60       FIXPVA
         60        60       FIXPVA
         61        60       FIXPVA
         62        60       FIXPVA
         63        60       FIXPVA
         64        60       FIXPVA
         65        60       FIXPVA
         66        60       FIXPVA
         67        60       FIXPVA
         68        60       FIXPVA
         69        60       FIXPVA
         70        60       FIXPVA
         71        60       FIXPVA
         72        60       FIXPVA
         73        60       FIXPVA
         74        60       FIXPVA
         75        60       FIXPVA
         76        60       FIXPVA
         77        60       FIXPVA
         78        60       FIXPVA
         79        60       FIXPVA
         80        60       FIXPVA
         81        60       FIXPVA
         82        60       FIXPVA
         83        60       FIXPVA
         84        60       FIXPVA
         85        60       FIXPVA
         86        60       FIXPVA
         87        60       FIXPVA
         88        60       FIXPVA
         89        60       FIXPVA
         90        60       FIXPVA
         91        60       FIXPVA
         92        60       FIXPVA
         93        60       FIXPVA
         94        60       FIXPVA
         95        60       FIXPVA
         96        60       FIXPVA
         97        60       FIXPVA
         98        60       FIXPVA
         99        60       FIXPVA
        100        60       FIXPVA
        101        60       FIXPVA
        102        60       FIXPVA
        103        60       FIXPVA
        104        60       FIXPVA
        105        60       FIXPVA
        106        60       FIXPVA
        107        60       FIXPVA
        108        60       FIXPVA
        109        60       FIXPVA
        110        60       FIXPVA
        111        60       FIXPVA
        112        60       FIXPVA
        113        60       FIXPVA
        114        60       FIXPVA
        115        60       FIXPVA
        116        60       FIXPVA
        117        60       FIXPVA
        118        60       FIXPVA
        119        60       FIXPVA
        120        60       FIXPVA
        121        60       FIXPVA
        122        60       FIXPVA
        123        60       FIXPVA
        124        60       FIXPVA
        125        60       FIXPVA
        126        60       FIXPVA
        127        60       FIXPVA
        128        60       FIXPVA
        129        60       FIXPVA
        130        60       FIXPVA
        131        60       FIXPVA
        132        60       FIXPVA
        133        60       FIXPVA
        134        60       FIXPVA
        135        60       FIXPVA
        136        60       FIXPVA
        137        60       FIXPVA
        138        60       FIXPVA
        139        60       FIXPVA
        140        60       FIXPVA
        141        60       FIXPVA
        142        60       FIXPVA
        143        60       FIXPVA
        144        60       FIXPVA
        145        60       FIXPVA
        146        60       FIXPVA
        147        60       FIXPVA
        148        60       FIXPVA
        149        60       FIXPVA
        150        60       FIXPVA
        151        60       FIXPVA
        152        60       FIXPVA
        153        60       FIXPVA
        154        60       FIXPVA
        155        60       FIXPVA
        156        60       FIXPVA
        157        60       FIXPVA
        158        60       FIXPVA
        159        60       FIXPVA
        160        60       FIXPVA
        161        60       FIXPVA
        162        60       FIXPVA
        163        60       FIXPVA
        164        60       FIXPVA
        165        60       FIXPVA
        166        60       FIXPVA
        167        60       FIXPVA
        168        60       FIXPVA
        169        60       FIXPVA
        170        60       FIXPVA
        171        60       FIXPVA
        172        60       FIXPVA
        173        60       FIXPVA
        174        60       FIXPVA
        175        60       FIXPVA
        176        60       FIXPVA
        177        60       FIXPVA
        178        60       FIXPVA
        179        60       FIXPVA
        180        60       FIXPVA
        181        60       FIXPVA
        182        60       FIXPVA
        183        60       FIXPVA
        184        60       FIXPVA
        185        60       FIXPVA
        186        60       FIXPVA
        187        60       FIXPVA
        188        60       FIXPVA
        189        60       FIXPVA
        190        60       FIXPVA
        191        60       FIXPVA
        192        60       FIXPVA
        193        60       FIXPVA
        194        60       FIXPVA
        195        60       FIXPVA
        196        60       FIXPVA
        197        60       FIXPVA
        198        60       FIXPVA
        199        60       FIXPVA
        200        60       FIXPVA
        201        60       FIXPVA
        202        60       FIXPVA
        203        60       FIXPVA
        204        60       FIXPVA
        205        60       FIXPVA
        206        60       FIXPVA
        207        60       FIXPVA
        208        60       FIXPVA
        209        60       FIXPVA
        210        60       FIXPVA
        211        60       FIXPVA
        212        60       FIXPVA
        213        60       FIXPVA
        214        60       FIXPVA
        215        60       FIXPVA
        216        60       FIXPVA
        217        60       FIXPVA
        218        60       FIXPVA
        219        60       FIXPVA
        220        60       FIXPVA
        221        60       FIXPVA
        222        60       FIXPVA
        223        60       FIXPVA
        224        60       FIXPVA
        225        60       FIXPVA
        226        60       FIXPVA
        227        60       FIXPVA
        228        60       FIXPVA
        229        60       FIXPVA
        230        60       FIXPVA
        231        60       FIXPVA
        232        60       FIXPVA
        233        60       FIXPVA
        234        60       FIXPVA
        235        60       FIXPVA
        236        60       FIXPVA
        237        60       FIXPVA
        238        60       FIXPVA
        239        60       FIXPVA
        240        60       FIXPVA
        241        60       FIXPVA
        242        60       FIXPVA
        243        60       FIXPVA
        244        60       FIXPVA
        245        60       FIXPVA
        246        60       FIXPVA
        247        60       FIXPVA
        248        60       FIXPVA
        249        60       FIXPVA
        250        60       FIXPVA
        251        60       FIXPVA
        252        60       FIXPVA
        253        60       FIXPVA
        254        60       FIXPVA
        255        60       FIXPVA
        256        60       FIXPVA

     ------------------------------
      FIXPVA TESSELLATION FOR PCM
         PEIFENG SU AND HUI LI
     UNIVERSITY OF NEBRASKA-LINCOLN
     ------------------------------


 PCM DIMENSIONS: MXSP=   256, MXTS=     10240, MEMORY=        105219

     INPUT FOR CAVITY DEFINITION 
     ---------------------------
   ATOM               COORDINATES                RADIUS       EPS
      1      0.8770      3.1190     13.0920      0.0100     78.3900
      2      1.0040      3.7850     12.3900      1.5900     78.3900
      3      2.4080      4.0780     12.3530      1.7700     78.3900
      4      2.9840      3.1310     12.2470      0.0100     78.3900
      5      2.7040      4.5420     13.3200      0.0100     78.3900
      6      2.7930      5.0260     11.2150      1.7700     78.3900
      7      3.8780      5.2610     11.2390      0.0100     78.3900
      8      2.5160      4.3970      9.9260      1.5900     78.3900
      9      2.0170      5.3820      9.0330      1.7700     78.3900
     10      2.6720      5.3590      8.1320      0.0100     78.3900
     11      0.6370      5.0920      8.6220      1.6800     78.3900
     12     -0.0030      5.6140      7.5300      1.7700     78.3900
     13      0.0050      7.6720      4.7520      1.6800     78.3900
     14      0.9130      8.0820      4.7900      0.0100     78.3900
     15     -0.6160      7.9260      4.0060      0.0100     78.3900
     16      0.5190      6.4940      6.6600      1.6800     78.3900
     17     -0.3320      6.8060      5.6860      1.7700     78.3900
     18     -1.5830      6.2580      5.5780      1.6800     78.3900
     19     -2.1620      6.5480      4.8050      0.0100     78.3900
     20     -2.1430      5.3330      6.4490      1.7700     78.3900
     21     -3.2800      4.8850      6.2690      1.5900     78.3900
     22     -1.2530      5.0250      7.5150      1.7700     78.3900
     23     -1.4080      4.1670      8.5980      1.6800     78.3900
     24     -0.2590      4.2410      9.2310      1.7700     78.3900
     25      0.0030      3.6930     10.1400      0.0100     78.3900
     26      2.1460      6.7260      9.7120      1.7700     78.3900
     27      1.3580      7.4410      9.4000      0.0100     78.3900
     28      3.4200      7.2740      9.4440      1.5900     78.3900
     29      3.4540      8.1180      9.9070      0.0100     78.3900
     30      2.0060      6.3450     11.1820      1.7700     78.3900
     31      0.9450      6.0970     11.4180      0.0100     78.3900
     32      2.5860      7.2800     12.1190      1.5900     78.3900
     33      1.7050      8.4410     12.7150      2.1000     78.3900
     34      0.4310      7.8760     13.1970      1.5900     78.3900
     35      2.5180      9.1980     13.6910      1.5900     78.3900
     36      1.4070      9.3480     11.4700      1.5900     78.3900
     37      2.4540     10.1470     10.8740      1.7700     78.3900
     38      3.3290      9.5240     10.5880      0.0100     78.3900
     39      2.8170     10.9130     11.5970      0.0100     78.3900
     40      1.9450     10.8850      9.6270      1.7700     78.3900
     41      2.7600     11.4860      9.1650      0.0100     78.3900
     42      1.4740      9.9370      8.6230      1.5900     78.3900
     43      0.3250     10.4830      7.9790      1.7700     78.3900
     44      0.5860     10.5120      6.8960      0.0100     78.3900
     45     -0.8990      9.6490      8.1440      1.6800     78.3900
     46     -1.0010      8.7680      9.1960      1.7700     78.3900
     47     -0.1520      8.7460      9.8790      0.0100     78.3900
     48     -2.0730      7.9770      9.3440      1.7700     78.3900
     49     -2.1560      7.2550     10.1540      0.0100     78.3900
     50     -1.9550      9.7690      7.2440      1.7700     78.3900
     51     -1.8730     10.5910      6.3190      1.5900     78.3900
     52     -3.0410      8.9760      7.3730      1.6800     78.3900
     53     -3.1180      8.0920      8.3800      1.7700     78.3900
     54     -4.1930      7.3110      8.4650      1.6800     78.3900
     55     -4.9260      7.4250      7.7900      0.0100     78.3900
     56     -4.2940      6.6110      9.1710      0.0100     78.3900
     57      0.1540     11.9060      8.4740      1.7700     78.3900
     58     -0.9060     12.2160      8.5030      0.0100     78.3900
     59      0.8880     12.7990      7.6550      1.5900     78.3900
     60      0.8660     13.6680      8.0880      0.0100     78.3900
     61      0.7470     11.8180      9.8740      1.7700     78.3900
     62      0.0490     11.2800     10.5570      0.0100     78.3900
     63      1.2090     13.0710     10.4210      1.5900     78.3900
     64      0.2230     13.9880     11.2370      2.1000     78.3900
     65     -0.4010     13.1630     12.2940      1.5900     78.3900
     66      0.9680     15.1840     11.6810      1.5900     78.3900
     67     -0.8840     14.4530     10.2140      1.5900     78.3900
     68     -2.2360     14.7250     10.6720      1.7700     78.3900
     69     -2.3790     15.8230     10.7660      0.0100     78.3900
     70     -2.4610     14.2800     11.6780      0.0100     78.3900
     71     -3.2970     14.2010      9.6930      1.7700     78.3900
     72     -3.2970     14.7970      8.7560      0.0100     78.3900
     73     -2.9990     12.8280      9.3300      1.5900     78.3900
     74     -4.1830     12.0590      9.3050      1.7700     78.3900
     75     -4.2110     11.5780      8.2980      0.0100     78.3900
     76     -4.1850     11.0000     10.3450      1.6800     78.3900
     77     -3.1840     10.9210     11.2940      1.7700     78.3900
     78     -2.4300     11.7130     11.2650      0.0100     78.3900
     79     -5.1620     10.0320     10.2670      1.7700     78.3900
     80     -6.0230     10.0190      9.3940      1.5900     78.3900
     81     -5.0910      9.0630     11.2290      1.6800     78.3900
     82     -5.8160      8.3610     11.1980      0.0100     78.3900
     83     -4.1210      8.9080     12.1920      1.7700     78.3900
     84     -4.1680      7.9500     12.9600      1.5900     78.3900
     85     -3.1110      9.9220     12.1830      1.7700     78.3900
     86     -2.3040      9.8610     12.9090      0.0100     78.3900
     87     -5.3340     13.0360      9.4260      1.7700     78.3900
     88     -6.2600     12.6170      9.8680      0.0100     78.3900
     89     -5.5740     13.5470      8.1440      1.5900     78.3900
     90     -4.9300     14.2490      8.0410      0.0100     78.3900
     91     -4.7210     14.1350     10.2760      1.7700     78.3900
     92     -4.6260     13.7990     11.3340      0.0100     78.3900
     93     -5.3580     15.4270     10.1390      1.5900     78.3900
     94     -6.5250     15.8430     11.1110      2.1000     78.3900
     95     -6.2740     15.2290     12.4370      1.5900     78.3900
     96     -6.6350     17.3160     11.0840      1.5900     78.3900
     97     -7.8410     15.2260     10.5020      1.5900     78.3900
     98     -9.1310     15.4900     11.1160      1.7700     78.3900
     99     -9.0940     16.3250     11.8580      0.0100     78.3900
    100     -9.4550     14.5790     11.6600      0.0100     78.3900
    101    -10.2200     15.8690     10.0920      1.7700     78.3900
    102    -11.1660     16.1440     10.6140      0.0100     78.3900
    103     -9.7860     17.0480      9.3550      1.5900     78.3900
    104    -10.1660     16.9360      7.9960      1.7700     78.3900
    105    -10.7770     17.8400      7.7720      0.0100     78.3900
    106     -9.0070     16.9350      7.1020      1.6800     78.3900
    107     -7.7280     17.1280      5.3240      1.7700     78.3900
    108     -6.8720     16.9000      6.3970      1.6800     78.3900
    109     -7.6790     16.7770      7.4250      1.7700     78.3900
    110     -7.3700     16.5580      8.4500      0.0100     78.3900
    111     -8.5760     17.5550      3.1470      1.6800     78.3900
    112     -9.7900     17.5260      3.7060      1.7700     78.3900
    113    -10.6240     17.7020      3.0180      0.0100     78.3900
    114    -10.1350     17.3580      4.9870      1.6800     78.3900
    115     -9.0450     17.1500      5.7480      1.7700     78.3900
    116     -7.4980     17.3410      3.9460      1.7700     78.3900
    117     -6.2700     17.3830      3.3980      1.6800     78.3900
    118     -5.4610     17.1060      3.9200      0.0100     78.3900
    119     -6.1720     17.4730      2.4070      0.0100     78.3900
    120    -11.0290     15.7030      7.8510      1.7700     78.3900
    121    -10.8820     15.1920      6.8780      0.0100     78.3900
    122    -12.3900     16.0630      8.0000      1.5900     78.3900
    123    -12.8890     15.2400      8.1160      0.0100     78.3900
    124    -10.5480     14.8320      9.0040      1.7700     78.3900
    125     -9.5690     14.3630      8.7330      0.0100     78.3900
    126    -11.5550     13.8900      9.4620      1.5900     78.3900
    127    -11.2240     12.3550      9.5060      2.1000     78.3900
    128     -9.7950     12.1860      9.8230      1.5900     78.3900
    129    -12.1870     11.6920     10.4130      1.5900     78.3900
    130    -11.4710     11.8450      8.0330      1.5900     78.3900
    131    -12.7070     12.0600      7.3250      1.7700     78.3900
    132    -13.2090     13.0120      7.6210      0.0100     78.3900
    133    -13.4000     11.2250      7.5600      0.0100     78.3900
    134    -12.4870     12.0960      5.8040      1.7700     78.3900
    135    -13.4520     12.1510      5.2620      0.0100     78.3900
    136    -11.7580     13.3140      5.4780      1.5900     78.3900
    137    -10.8240     13.0570      4.4490      1.7700     78.3900
    138    -11.0380     13.7830      3.6270      0.0100     78.3900
    139     -9.4600     13.2540      4.9310      1.6800     78.3900
    140     -7.3160     13.6790      5.1060      1.7700     78.3900
    141     -7.7700     13.3770      6.3680      1.6800     78.3900
    142     -9.0290     13.1240      6.2210      1.7700     78.3900
    143     -9.7000     12.8620      7.0350      0.0100     78.3900
    144     -5.9330     14.2690      3.2740      1.6800     78.3900
    145     -7.0260     14.1210      2.5170      1.7700     78.3900
    146     -6.8890     14.3090      1.4450      0.0100     78.3900
    147     -8.2820     13.8440      2.8900      1.6800     78.3900
    148     -8.3500     13.6060      4.2020      1.7700     78.3900
    149     -6.0480     14.0440      4.6090      1.7700     78.3900
    150     -4.9810     14.2140      5.4060      1.6800     78.3900
    151     -5.1000     13.9510      6.3670      0.0100     78.3900
    152     -4.0960     14.5130      5.0470      0.0100     78.3900
    153    -11.0630     11.6480      3.9630      1.7700     78.3900
    154    -10.1230     11.1470      3.6650      0.0100     78.3900
    155    -11.9780     11.6640      2.8830      1.5900     78.3900
    156    -12.0720     10.7480      2.5920      0.0100     78.3900
    157    -11.6460     10.9570      5.1960      1.7700     78.3900
    158    -10.8100     10.7260      5.8970      0.0100     78.3900
    159    -12.4660      9.8000      4.8700      1.5900     78.3900
    160    -12.6300      8.6490      5.9340      2.1000     78.3900
    161    -11.4220      8.5650      6.7730      1.5900     78.3900
    162    -13.9180      8.8520      6.6310      1.5900     78.3900
    163    -12.7490      7.3320      5.0720      1.5900     78.3900
    164    -11.5650      6.5260      4.8500      1.7700     78.3900
    165    -11.0490      6.2790      5.8080      0.0100     78.3900
    166    -10.8530      7.0850      4.2100      0.0100     78.3900
    167    -11.8760      5.2090      4.1230      1.7700     78.3900
    168    -10.9530      4.6130      3.9600      0.0100     78.3900
    169    -12.7770      4.3890      4.9220      1.5900     78.3900
    170    -13.7690      3.8170      4.0720      1.7700     78.3900
    171    -13.7180      2.7200      4.2730      0.0100     78.3900
    172    -15.1500      4.2840      4.3830      1.6800     78.3900
    173    -15.3460      5.3480      5.2340      1.7700     78.3900
    174    -14.4500      5.8230      5.6350      0.0100     78.3900
    175    -16.5750      5.7670      5.5550      1.7700     78.3900
    176    -16.7460      6.5940      6.2420      0.0100     78.3900
    177    -16.2540      3.6290      3.8330      1.7700     78.3900
    178    -16.0670      2.6710      3.0650      1.5900     78.3900
    179    -17.5060      4.0380      4.1460      1.6800     78.3900
    180    -17.6820      5.0790      4.9830      1.7700     78.3900
    181    -18.9180      5.4670      5.2890      1.6800     78.3900
    182    -19.6960      5.0020      4.8610      0.0100     78.3900
    183    -19.0980      6.2250      5.9180      0.0100     78.3900
    184    -13.3530      4.0820      2.6330      1.7700     78.3900
    185    -14.2200      4.2030      1.9460      0.0100     78.3900
    186    -12.5200      3.0280      2.1790      1.5900     78.3900
    187    -12.1350      3.2940      1.3280      0.0100     78.3900
    188    -12.5840      5.3890      2.7800      1.7700     78.3900
    189    -13.3010      6.2300      2.9230      0.0100     78.3900
    190    -11.6040      5.6350      1.7500      1.5900     78.3900
    191    -11.9510      6.5630      0.5300      2.1000     78.3900
    192    -11.7000      5.8080     -0.7150      1.5900     78.3900
    193    -13.3100      7.1300      0.6870      1.5900     78.3900
    194    -10.8780      7.7170      0.6620      1.5900     78.3900
    195    -11.0360      8.8740     -0.1990      1.7700     78.3900
    196    -11.9750      9.4180      0.0560      0.0100     78.3900
    197    -11.0810      8.5710     -1.2720      0.0100     78.3900
    198     -9.8710      9.8630     -0.0610      1.7700     78.3900
    199    -10.0180     10.7420     -0.7220      0.0100     78.3900
    200     -9.8150     10.3580      1.2970      1.5900     78.3900
    201     -8.4600     10.4990      1.6980      1.7700     78.3900
    202     -8.3290     11.5400      2.0480      0.0100     78.3900
    203     -8.1420      9.5950      2.8080      1.6800     78.3900
    204     -7.0340      9.6360      3.6090      1.7700     78.3900
    205     -4.0110     11.0610      4.4950      1.6800     78.3900
    206     -3.9280     11.8100      3.8420      0.0100     78.3900
    207     -3.3050     10.9270      5.1930      0.0100     78.3900
    208     -6.0200     10.5090      3.5100      1.6800     78.3900
    209     -5.0980     10.3180      4.4510      1.7700     78.3900
    210     -5.1910      9.3430      5.4110      1.6800     78.3900
    211     -4.4540      9.2780      6.0950      0.0100     78.3900
    212     -6.2290      8.4290      5.5430      1.7700     78.3900
    213     -6.2480      7.5790      6.4430      1.5900     78.3900
    214     -7.2050      8.6160      4.5270      1.7700     78.3900
    215     -8.3860      7.9320      4.2860      1.6800     78.3900
    216     -8.9170      8.5540      3.2630      1.7700     78.3900
    217     -9.8800      8.3230      2.7990      0.0100     78.3900
    218     -7.5980     10.2620      0.4880      1.7700     78.3900
    219     -6.6140      9.8190      0.7470      0.0100     78.3900
    220     -7.3960     11.4780     -0.2060      1.5900     78.3900
    221     -6.9510     11.2560     -1.0320      0.0100     78.3900
    222     -8.4670      9.2980     -0.3050      1.7700     78.3900
    223     -8.4630      8.2960      0.1850      0.0100     78.3900
    224     -8.1790      9.2670     -1.7220      1.5900     78.3900
    225     -7.3960      8.0220     -2.2860      2.1000     78.3900
    226     -7.8320      6.8000     -1.5870      1.5900     78.3900
    227     -7.4920      8.0160     -3.7660      1.5900     78.3900
    228     -5.9000      8.3050     -1.8700      1.5900     78.3900
    229     -5.2340      9.4910     -2.3630      1.7700     78.3900
    230     -5.8280     10.4140     -2.1700      0.0100     78.3900
    231     -5.0880      9.4120     -3.4620      0.0100     78.3900
    232     -3.8520      9.6680     -1.7240      1.7700     78.3900
    233     -3.2900     10.4970     -2.2060      0.0100     78.3900
    234     -4.0110     10.0180     -0.3220      1.5900     78.3900
    235     -3.0020      9.3650      0.4400      1.7700     78.3900
    236     -2.4630     10.1720      0.9890      0.0100     78.3900
    237     -3.5650      8.4040      1.4250      1.6800     78.3900
    238     -4.8300      7.8940      1.2480      1.7700     78.3900
    239     -5.3780      8.2670      0.3840      0.0100     78.3900
    240     -5.3610      7.0220      2.1120      1.7700     78.3900
    241     -6.3740      6.6430      2.0030      0.0100     78.3900
    242     -2.7930      7.9710      2.4980      1.7700     78.3900
    243     -1.6300      8.3860      2.6140      1.5900     78.3900
    244     -3.3140      7.0960      3.3880      1.6800     78.3900
    245     -4.5620      6.6220      3.2200      1.7700     78.3900
    246     -5.0510      5.7600      4.1080      1.6800     78.3900
    247     -4.4930      5.4820      4.8940      0.0100     78.3900
    248     -5.9830      5.4020      4.0320      0.0100     78.3900
    249     -2.0410      8.7030     -0.5360      1.7700     78.3900
    250     -1.6120      7.7620     -0.1300      0.0100     78.3900
    251     -1.0020      9.6070     -0.8790      1.5900     78.3900
    252     -0.4580      9.2080     -1.5800      0.0100     78.3900
    253     -2.9680      8.4130     -1.7110      1.7700     78.3900
    254     -3.6040      7.5280     -1.4880      0.0100     78.3900
    255     -2.2950      8.2570     -2.9730      1.5900     78.3900
    256     -1.7850      7.4260     -2.9750      0.0100     78.3900

 CREATION OF A NEW CAVITY WITH THE ORIGINAL SPHERE
 SIZES FOR THE COMPUTATION OF THE CAVITATION ENERGY.

     INPUT FOR CAVITY DEFINITION 
     ---------------------------
   ATOM               COORDINATES                RADIUS       EPS
      1      0.8770      3.1190     13.0920      0.0100     78.3900
      2      1.0040      3.7850     12.3900      1.5900     78.3900
      3      2.4080      4.0780     12.3530      1.7700     78.3900
      4      2.9840      3.1310     12.2470      0.0100     78.3900
      5      2.7040      4.5420     13.3200      0.0100     78.3900
      6      2.7930      5.0260     11.2150      1.7700     78.3900
      7      3.8780      5.2610     11.2390      0.0100     78.3900
      8      2.5160      4.3970      9.9260      1.5900     78.3900
      9      2.0170      5.3820      9.0330      1.7700     78.3900
     10      2.6720      5.3590      8.1320      0.0100     78.3900
     11      0.6370      5.0920      8.6220      1.6800     78.3900
     12     -0.0030      5.6140      7.5300      1.7700     78.3900
     13      0.0050      7.6720      4.7520      1.6800     78.3900
     14      0.9130      8.0820      4.7900      0.0100     78.3900
     15     -0.6160      7.9260      4.0060      0.0100     78.3900
     16      0.5190      6.4940      6.6600      1.6800     78.3900
     17     -0.3320      6.8060      5.6860      1.7700     78.3900
     18     -1.5830      6.2580      5.5780      1.6800     78.3900
     19     -2.1620      6.5480      4.8050      0.0100     78.3900
     20     -2.1430      5.3330      6.4490      1.7700     78.3900
     21     -3.2800      4.8850      6.2690      1.5900     78.3900
     22     -1.2530      5.0250      7.5150      1.7700     78.3900
     23     -1.4080      4.1670      8.5980      1.6800     78.3900
     24     -0.2590      4.2410      9.2310      1.7700     78.3900
     25      0.0030      3.6930     10.1400      0.0100     78.3900
     26      2.1460      6.7260      9.7120      1.7700     78.3900
     27      1.3580      7.4410      9.4000      0.0100     78.3900
     28      3.4200      7.2740      9.4440      1.5900     78.3900
     29      3.4540      8.1180      9.9070      0.0100     78.3900
     30      2.0060      6.3450     11.1820      1.7700     78.3900
     31      0.9450      6.0970     11.4180      0.0100     78.3900
     32      2.5860      7.2800     12.1190      1.5900     78.3900
     33      1.7050      8.4410     12.7150      2.1000     78.3900
     34      0.4310      7.8760     13.1970      1.5900     78.3900
     35      2.5180      9.1980     13.6910      1.5900     78.3900
     36      1.4070      9.3480     11.4700      1.5900     78.3900
     37      2.4540     10.1470     10.8740      1.7700     78.3900
     38      3.3290      9.5240     10.5880      0.0100     78.3900
     39      2.8170     10.9130     11.5970      0.0100     78.3900
     40      1.9450     10.8850      9.6270      1.7700     78.3900
     41      2.7600     11.4860      9.1650      0.0100     78.3900
     42      1.4740      9.9370      8.6230      1.5900     78.3900
     43      0.3250     10.4830      7.9790      1.7700     78.3900
     44      0.5860     10.5120      6.8960      0.0100     78.3900
     45     -0.8990      9.6490      8.1440      1.6800     78.3900
     46     -1.0010      8.7680      9.1960      1.7700     78.3900
     47     -0.1520      8.7460      9.8790      0.0100     78.3900
     48     -2.0730      7.9770      9.3440      1.7700     78.3900
     49     -2.1560      7.2550     10.1540      0.0100     78.3900
     50     -1.9550      9.7690      7.2440      1.7700     78.3900
     51     -1.8730     10.5910      6.3190      1.5900     78.3900
     52     -3.0410      8.9760      7.3730      1.6800     78.3900
     53     -3.1180      8.0920      8.3800      1.7700     78.3900
     54     -4.1930      7.3110      8.4650      1.6800     78.3900
     55     -4.9260      7.4250      7.7900      0.0100     78.3900
     56     -4.2940      6.6110      9.1710      0.0100     78.3900
     57      0.1540     11.9060      8.4740      1.7700     78.3900
     58     -0.9060     12.2160      8.5030      0.0100     78.3900
     59      0.8880     12.7990      7.6550      1.5900     78.3900
     60      0.8660     13.6680      8.0880      0.0100     78.3900
     61      0.7470     11.8180      9.8740      1.7700     78.3900
     62      0.0490     11.2800     10.5570      0.0100     78.3900
     63      1.2090     13.0710     10.4210      1.5900     78.3900
     64      0.2230     13.9880     11.2370      2.1000     78.3900
     65     -0.4010     13.1630     12.2940      1.5900     78.3900
     66      0.9680     15.1840     11.6810      1.5900     78.3900
     67     -0.8840     14.4530     10.2140      1.5900     78.3900
     68     -2.2360     14.7250     10.6720      1.7700     78.3900
     69     -2.3790     15.8230     10.7660      0.0100     78.3900
     70     -2.4610     14.2800     11.6780      0.0100     78.3900
     71     -3.2970     14.2010      9.6930      1.7700     78.3900
     72     -3.2970     14.7970      8.7560      0.0100     78.3900
     73     -2.9990     12.8280      9.3300      1.5900     78.3900
     74     -4.1830     12.0590      9.3050      1.7700     78.3900
     75     -4.2110     11.5780      8.2980      0.0100     78.3900
     76     -4.1850     11.0000     10.3450      1.6800     78.3900
     77     -3.1840     10.9210     11.2940      1.7700     78.3900
     78     -2.4300     11.7130     11.2650      0.0100     78.3900
     79     -5.1620     10.0320     10.2670      1.7700     78.3900
     80     -6.0230     10.0190      9.3940      1.5900     78.3900
     81     -5.0910      9.0630     11.2290      1.6800     78.3900
     82     -5.8160      8.3610     11.1980      0.0100     78.3900
     83     -4.1210      8.9080     12.1920      1.7700     78.3900
     84     -4.1680      7.9500     12.9600      1.5900     78.3900
     85     -3.1110      9.9220     12.1830      1.7700     78.3900
     86     -2.3040      9.8610     12.9090      0.0100     78.3900
     87     -5.3340     13.0360      9.4260      1.7700     78.3900
     88     -6.2600     12.6170      9.8680      0.0100     78.3900
     89     -5.5740     13.5470      8.1440      1.5900     78.3900
     90     -4.9300     14.2490      8.0410      0.0100     78.3900
     91     -4.7210     14.1350     10.2760      1.7700     78.3900
     92     -4.6260     13.7990     11.3340      0.0100     78.3900
     93     -5.3580     15.4270     10.1390      1.5900     78.3900
     94     -6.5250     15.8430     11.1110      2.1000     78.3900
     95     -6.2740     15.2290     12.4370      1.5900     78.3900
     96     -6.6350     17.3160     11.0840      1.5900     78.3900
     97     -7.8410     15.2260     10.5020      1.5900     78.3900
     98     -9.1310     15.4900     11.1160      1.7700     78.3900
     99     -9.0940     16.3250     11.8580      0.0100     78.3900
    100     -9.4550     14.5790     11.6600      0.0100     78.3900
    101    -10.2200     15.8690     10.0920      1.7700     78.3900
    102    -11.1660     16.1440     10.6140      0.0100     78.3900
    103     -9.7860     17.0480      9.3550      1.5900     78.3900
    104    -10.1660     16.9360      7.9960      1.7700     78.3900
    105    -10.7770     17.8400      7.7720      0.0100     78.3900
    106     -9.0070     16.9350      7.1020      1.6800     78.3900
    107     -7.7280     17.1280      5.3240      1.7700     78.3900
    108     -6.8720     16.9000      6.3970      1.6800     78.3900
    109     -7.6790     16.7770      7.4250      1.7700     78.3900
    110     -7.3700     16.5580      8.4500      0.0100     78.3900
    111     -8.5760     17.5550      3.1470      1.6800     78.3900
    112     -9.7900     17.5260      3.7060      1.7700     78.3900
    113    -10.6240     17.7020      3.0180      0.0100     78.3900
    114    -10.1350     17.3580      4.9870      1.6800     78.3900
    115     -9.0450     17.1500      5.7480      1.7700     78.3900
    116     -7.4980     17.3410      3.9460      1.7700     78.3900
    117     -6.2700     17.3830      3.3980      1.6800     78.3900
    118     -5.4610     17.1060      3.9200      0.0100     78.3900
    119     -6.1720     17.4730      2.4070      0.0100     78.3900
    120    -11.0290     15.7030      7.8510      1.7700     78.3900
    121    -10.8820     15.1920      6.8780      0.0100     78.3900
    122    -12.3900     16.0630      8.0000      1.5900     78.3900
    123    -12.8890     15.2400      8.1160      0.0100     78.3900
    124    -10.5480     14.8320      9.0040      1.7700     78.3900
    125     -9.5690     14.3630      8.7330      0.0100     78.3900
    126    -11.5550     13.8900      9.4620      1.5900     78.3900
    127    -11.2240     12.3550      9.5060      2.1000     78.3900
    128     -9.7950     12.1860      9.8230      1.5900     78.3900
    129    -12.1870     11.6920     10.4130      1.5900     78.3900
    130    -11.4710     11.8450      8.0330      1.5900     78.3900
    131    -12.7070     12.0600      7.3250      1.7700     78.3900
    132    -13.2090     13.0120      7.6210      0.0100     78.3900
    133    -13.4000     11.2250      7.5600      0.0100     78.3900
    134    -12.4870     12.0960      5.8040      1.7700     78.3900
    135    -13.4520     12.1510      5.2620      0.0100     78.3900
    136    -11.7580     13.3140      5.4780      1.5900     78.3900
    137    -10.8240     13.0570      4.4490      1.7700     78.3900
    138    -11.0380     13.7830      3.6270      0.0100     78.3900
    139     -9.4600     13.2540      4.9310      1.6800     78.3900
    140     -7.3160     13.6790      5.1060      1.7700     78.3900
    141     -7.7700     13.3770      6.3680      1.6800     78.3900
    142     -9.0290     13.1240      6.2210      1.7700     78.3900
    143     -9.7000     12.8620      7.0350      0.0100     78.3900
    144     -5.9330     14.2690      3.2740      1.6800     78.3900
    145     -7.0260     14.1210      2.5170      1.7700     78.3900
    146     -6.8890     14.3090      1.4450      0.0100     78.3900
    147     -8.2820     13.8440      2.8900      1.6800     78.3900
    148     -8.3500     13.6060      4.2020      1.7700     78.3900
    149     -6.0480     14.0440      4.6090      1.7700     78.3900
    150     -4.9810     14.2140      5.4060      1.6800     78.3900
    151     -5.1000     13.9510      6.3670      0.0100     78.3900
    152     -4.0960     14.5130      5.0470      0.0100     78.3900
    153    -11.0630     11.6480      3.9630      1.7700     78.3900
    154    -10.1230     11.1470      3.6650      0.0100     78.3900
    155    -11.9780     11.6640      2.8830      1.5900     78.3900
    156    -12.0720     10.7480      2.5920      0.0100     78.3900
    157    -11.6460     10.9570      5.1960      1.7700     78.3900
    158    -10.8100     10.7260      5.8970      0.0100     78.3900
    159    -12.4660      9.8000      4.8700      1.5900     78.3900
    160    -12.6300      8.6490      5.9340      2.1000     78.3900
    161    -11.4220      8.5650      6.7730      1.5900     78.3900
    162    -13.9180      8.8520      6.6310      1.5900     78.3900
    163    -12.7490      7.3320      5.0720      1.5900     78.3900
    164    -11.5650      6.5260      4.8500      1.7700     78.3900
    165    -11.0490      6.2790      5.8080      0.0100     78.3900
    166    -10.8530      7.0850      4.2100      0.0100     78.3900
    167    -11.8760      5.2090      4.1230      1.7700     78.3900
    168    -10.9530      4.6130      3.9600      0.0100     78.3900
    169    -12.7770      4.3890      4.9220      1.5900     78.3900
    170    -13.7690      3.8170      4.0720      1.7700     78.3900
    171    -13.7180      2.7200      4.2730      0.0100     78.3900
    172    -15.1500      4.2840      4.3830      1.6800     78.3900
    173    -15.3460      5.3480      5.2340      1.7700     78.3900
    174    -14.4500      5.8230      5.6350      0.0100     78.3900
    175    -16.5750      5.7670      5.5550      1.7700     78.3900
    176    -16.7460      6.5940      6.2420      0.0100     78.3900
    177    -16.2540      3.6290      3.8330      1.7700     78.3900
    178    -16.0670      2.6710      3.0650      1.5900     78.3900
    179    -17.5060      4.0380      4.1460      1.6800     78.3900
    180    -17.6820      5.0790      4.9830      1.7700     78.3900
    181    -18.9180      5.4670      5.2890      1.6800     78.3900
    182    -19.6960      5.0020      4.8610      0.0100     78.3900
    183    -19.0980      6.2250      5.9180      0.0100     78.3900
    184    -13.3530      4.0820      2.6330      1.7700     78.3900
    185    -14.2200      4.2030      1.9460      0.0100     78.3900
    186    -12.5200      3.0280      2.1790      1.5900     78.3900
    187    -12.1350      3.2940      1.3280      0.0100     78.3900
    188    -12.5840      5.3890      2.7800      1.7700     78.3900
    189    -13.3010      6.2300      2.9230      0.0100     78.3900
    190    -11.6040      5.6350      1.7500      1.5900     78.3900
    191    -11.9510      6.5630      0.5300      2.1000     78.3900
    192    -11.7000      5.8080     -0.7150      1.5900     78.3900
    193    -13.3100      7.1300      0.6870      1.5900     78.3900
    194    -10.8780      7.7170      0.6620      1.5900     78.3900
    195    -11.0360      8.8740     -0.1990      1.7700     78.3900
    196    -11.9750      9.4180      0.0560      0.0100     78.3900
    197    -11.0810      8.5710     -1.2720      0.0100     78.3900
    198     -9.8710      9.8630     -0.0610      1.7700     78.3900
    199    -10.0180     10.7420     -0.7220      0.0100     78.3900
    200     -9.8150     10.3580      1.2970      1.5900     78.3900
    201     -8.4600     10.4990      1.6980      1.7700     78.3900
    202     -8.3290     11.5400      2.0480      0.0100     78.3900
    203     -8.1420      9.5950      2.8080      1.6800     78.3900
    204     -7.0340      9.6360      3.6090      1.7700     78.3900
    205     -4.0110     11.0610      4.4950      1.6800     78.3900
    206     -3.9280     11.8100      3.8420      0.0100     78.3900
    207     -3.3050     10.9270      5.1930      0.0100     78.3900
    208     -6.0200     10.5090      3.5100      1.6800     78.3900
    209     -5.0980     10.3180      4.4510      1.7700     78.3900
    210     -5.1910      9.3430      5.4110      1.6800     78.3900
[...]
   240  -5.361000000   7.022000000   2.112000000   2.124000000   8.742601581
   241  -6.374000000   6.643000000   2.003000000   0.012000000   0.000000000
   242  -2.793000000   7.971000000   2.498000000   2.124000000   2.567066314
   243  -1.630000000   8.386000000   2.614000000   1.908000000   9.378237352
   244  -3.314000000   7.096000000   3.388000000   2.016000000   1.890009155
   245  -4.562000000   6.622000000   3.220000000   2.124000000   2.858005892
   246  -5.051000000   5.760000000   4.108000000   2.016000000  15.213560058
   247  -4.493000000   5.482000000   4.894000000   0.012000000   0.000000000
   248  -5.983000000   5.402000000   4.032000000   0.012000000   0.000000000
   249  -2.041000000   8.703000000  -0.536000000   2.124000000   4.966628791
   250  -1.612000000   7.762000000  -0.130000000   0.012000000   0.000000000
   251  -1.002000000   9.607000000  -0.879000000   1.908000000  20.884901699
   252  -0.458000000   9.208000000  -1.580000000   0.012000000   0.000000000
   253  -2.968000000   8.413000000  -1.711000000   2.124000000   6.383552621
   254  -3.604000000   7.528000000  -1.488000000   0.012000000   0.000000000
   255  -2.295000000   8.257000000  -2.973000000   1.908000000  21.206745005
   256  -1.785000000   7.426000000  -2.975000000   0.012000000   0.000000000

 TOTAL NUMBER OF TESSERAE=    1767
 SURFACE AREA=  1129.91078370(A**2)    CAVITY VOLUME=   2009.71132225 (A**3)
 CPU     0: STEP CPU TIME=     0.01 TOTAL CPU TIME=          0.2 (      0.0 MIN)
 TOTAL WALL CLOCK TIME=          0.3 SECONDS, CPU UTILIZATION IS    51.52%

          THE SOLUTE IS ENCLOSED IN ONE CAVITY
 DONE CHECKING SEPARATION.
 CPU     0: STEP CPU TIME=     0.00 TOTAL CPU TIME=          0.2 (      0.0 MIN)
 TOTAL WALL CLOCK TIME=          0.3 SECONDS, CPU UTILIZATION IS    51.52%

 You did not provide any valid data (r0bda/e0bda) for BDA corrections.

 Initialising fragments
 CPU     0: STEP CPU TIME=     0.00 TOTAL CPU TIME=          0.2 (      0.0 MIN)
 TOTAL WALL CLOCK TIME=          0.3 SECONDS, CPU UTILIZATION IS    50.00%
 CPU     0: STEP CPU TIME=     0.00 TOTAL CPU TIME=          0.2 (      0.0 MIN)
 TOTAL WALL CLOCK TIME=          0.3 SECONDS, CPU UTILIZATION IS    50.00%

 -----------------------------------------------------------------------
                  The Fragment Molecular Orbital (FMO) method.
                       The program is developed at the
                     Nanoscience Research Institute (NRI)
     (formerly, Research Institute for Computational Sciences, RICS)
 National Institute of Advanced Industrial Science and Technology (AIST)
     AIST Tsukuba Central 2, Umezono 1-1-1, Tsukuba, 305-8568, Japan.

                         Version 5.3
                    coded by D. G. Fedorov and K. Kitaura,
 with contributions from N. Asada, K.R. Brorsen, M. Chiba, C. Choi, N. Minezawa,
 T. Nagata, H. Nakata, Y. Nishimoto, S.R. Pruitt, C. Steinmann, and F. Zahariev.
       All publications using the FMO method in GAMESS should reference:
          D. G. Fedorov, K. Kitaura, J. Chem. Phys. 120, 6832 (2004).
 -----------------------------------------------------------------------

 Used memory (words):      5554715
 Number of fragments:      8
 Number of layers:         1
 N-body FMO method:        2
 Number of atoms:        256
 Total charge:            -7
 Total spin multiplicity:  1
 Number of basis sets:     1
 Number of LMO types:      2
 Number of boundaries:     7
 MonomerSCF convergence:   0.1000E-06
 Max monomerSCF iter:     30
 MonomerSCF criterion:     internal
 Max AOs per n-mer:      403      789
 Projection operator constant:  0.10E+07
 Layer electron correlation information
     nbody=  2
    SCFTYP=RHF     
    MPLEVL=  2
    DFTTYP=NONE    
     CITYP=NONE    
     CCTYP=NONE    
     TDDFT=NONE    
 FMO method: FMO2-MP2/PCM<1>

 Bond fragmentation scheme: HOP

 FMO approximations.
    Using point charge approximation for the 2e ESP with the VdW factor   2.00
    Using ES-dimer approximation with the VdW factor   2.00
    No dynamic correlation for dimers with the VdW factor    2.00
    The uniform distances will be used in ESPs.
    Van der Waals radii in Angstrom are:
       R(H  )=  1.2000
       R(O  )=  1.4000
       R(C  )=  1.5000
       R(N  )=  1.5000
       R(P  )=  1.8000

 FMO initial guess options.
    Using monomer density to form dimer guess.

 FMO extensions.

 FMO automation options.

 FMO SCF converger options.
    SCF convergers:
    833    833    833    833    833    833    833    833    833    833
    Fragment orbitals will be exchanged.

 FMO parallelisation options.
    Smart parallel load balancing: large jobs first.
    ESPs will be shell parallelised.
    Broadcast all fragments at once.
    Do the fragment initialisation in the reverse order.
    Layer 1, monomer(SCF,MP2,MCSCF) groups are:    1    0    0
    Layer 1,   dimer(SCF,ESD,MCSCF) groups are:    1    0    0

 FMO properties and print-out level.
    Interfragment CT method:    4
       Compact print-out level.
    Atomic charges will be printed.
    Pair interaction energy decomposition analysis (PIEDA) will be done (PL only).

 Array dimensions maxbnd,maxknd,maxcbs,maxcao,maxbbd are:
                      10     10     19      5     19

 --------------------------------------------------




 Starting layer 1 nbody=2
 SCFTYP=RHF     MPLEVL=2 DFTTYP=NONE    CITYP=NONE    CCTYP=NONE    TDDFT=NONE    


 CPU     0: STEP CPU TIME=     0.01 TOTAL CPU TIME=          0.2 (      0.0 MIN)
 TOTAL WALL CLOCK TIME=          0.4 SECONDS, CPU UTILIZATION IS    48.65%

 Running initial guess for monomer       8


          -------------
          GUESS OPTIONS
          -------------
          GUESS =HUCKEL            NORB  =       0          NORDER=       0
          MIX   =       F          PRTMO =       F          PUNMO =       F
          TOLZ  = 1.0E-08          TOLE  = 1.0E-05
          SYMDEN=       F          PURIFY=       F

 INITIAL GUESS ORBITALS GENERATED BY HUCKEL   ROUTINE.
 HUCKEL GUESS REQUIRES    560361 WORDS.

 SYMMETRIES FOR INITIAL GUESS ORBITALS FOLLOW.   BOTH SET(S).
    59 ORBITALS ARE OCCUPIED (   16 CORE ORBITALS).
    17=A       18=A       19=A       20=A       21=A       22=A       23=A   
    24=A       25=A       26=A       27=A       28=A       29=A       30=A   
    31=A       32=A       33=A       34=A       35=A       36=A       37=A   
    38=A       39=A       40=A       41=A       42=A       43=A       44=A   
    45=A       46=A       47=A       48=A       49=A       50=A       51=A   
    52=A       53=A       54=A       55=A       56=A       57=A       58=A   
    59=A       60=A       61=A       62=A       63=A       64=A       65=A   
    66=A       67=A       68=A       69=A   
 ...... END OF INITIAL ORBITAL SELECTION ......
 CPU     0: STEP CPU TIME=     0.08 TOTAL CPU TIME=          0.3 (      0.0 MIN)
 TOTAL WALL CLOCK TIME=          0.6 SECONDS, CPU UTILIZATION IS    44.83%

 Running initial guess for monomer       7


          -------------
          GUESS OPTIONS
          -------------
          GUESS =HUCKEL            NORB  =       0          NORDER=       0
          MIX   =       F          PRTMO =       F          PUNMO =       F
          TOLZ  = 1.0E-08          TOLE  = 1.0E-05
          SYMDEN=       F          PURIFY=       F

 INITIAL GUESS ORBITALS GENERATED BY HUCKEL   ROUTINE.
 HUCKEL GUESS REQUIRES   1174437 WORDS.

 SYMMETRIES FOR INITIAL GUESS ORBITALS FOLLOW.   BOTH SET(S).
    89 ORBITALS ARE OCCUPIED (   27 CORE ORBITALS).
    28=A       29=A       30=A       31=A       32=A       33=A       34=A   
    35=A       36=A       37=A       38=A       39=A       40=A       41=A   
    42=A       43=A       44=A       45=A       46=A       47=A       48=A   
    49=A       50=A       51=A       52=A       53=A       54=A       55=A   
    56=A       57=A       58=A       59=A       60=A       61=A       62=A   
    63=A       64=A       65=A       66=A       67=A       68=A       69=A   
    70=A       71=A       72=A       73=A       74=A       75=A       76=A   
    77=A       78=A       79=A       80=A       81=A       82=A       83=A   
    84=A       85=A       86=A       87=A       88=A       89=A       90=A   
    91=A       92=A       93=A       94=A       95=A       96=A       97=A   
    98=A       99=A   
 ...... END OF INITIAL ORBITAL SELECTION ......
 CPU     0: STEP CPU TIME=     0.24 TOTAL CPU TIME=          0.5 (      0.0 MIN)
 TOTAL WALL CLOCK TIME=          1.1 SECONDS, CPU UTILIZATION IS    43.86%

 Running initial guess for monomer       6


          -------------
          GUESS OPTIONS
          -------------
          GUESS =HUCKEL            NORB  =       0          NORDER=       0
          MIX   =       F          PRTMO =       F          PUNMO =       F
          TOLZ  = 1.0E-08          TOLE  = 1.0E-05
          SYMDEN=       F          PURIFY=       F

 INITIAL GUESS ORBITALS GENERATED BY HUCKEL   ROUTINE.
 HUCKEL GUESS REQUIRES    920598 WORDS.

 SYMMETRIES FOR INITIAL GUESS ORBITALS FOLLOW.   BOTH SET(S).
    79 ORBITALS ARE OCCUPIED (   24 CORE ORBITALS).
    25=A       26=A       27=A       28=A       29=A       30=A       31=A   
    32=A       33=A       34=A       35=A       36=A       37=A       38=A   
    39=A       40=A       41=A       42=A       43=A       44=A       45=A   
    46=A       47=A       48=A       49=A       50=A       51=A       52=A   
    53=A       54=A       55=A       56=A       57=A       58=A       59=A   
    60=A       61=A       62=A       63=A       64=A       65=A       66=A   
    67=A       68=A       69=A       70=A       71=A       72=A       73=A   
    74=A       75=A       76=A       77=A       78=A       79=A       80=A   
    81=A       82=A       83=A       84=A       85=A       86=A       87=A   
    88=A       89=A   
 ...... END OF INITIAL ORBITAL SELECTION ......
 CPU     0: STEP CPU TIME=     0.16 TOTAL CPU TIME=          0.7 (      0.0 MIN)
 TOTAL WALL CLOCK TIME=          1.5 SECONDS, CPU UTILIZATION IS    42.86%

 Running initial guess for monomer       5


          -------------
          GUESS OPTIONS
          -------------
          GUESS =HUCKEL            NORB  =       0          NORDER=       0
          MIX   =       F          PRTMO =       F          PUNMO =       F
          TOLZ  = 1.0E-08          TOLE  = 1.0E-05
          SYMDEN=       F          PURIFY=       F

 INITIAL GUESS ORBITALS GENERATED BY HUCKEL   ROUTINE.
 HUCKEL GUESS REQUIRES   1086374 WORDS.

 SYMMETRIES FOR INITIAL GUESS ORBITALS FOLLOW.   BOTH SET(S).
    85 ORBITALS ARE OCCUPIED (   26 CORE ORBITALS).
    27=A       28=A       29=A       30=A       31=A       32=A       33=A   
    34=A       35=A       36=A       37=A       38=A       39=A       40=A   
    41=A       42=A       43=A       44=A       45=A       46=A       47=A   
    48=A       49=A       50=A       51=A       52=A       53=A       54=A   
    55=A       56=A       57=A       58=A       59=A       60=A       61=A   
    62=A       63=A       64=A       65=A       66=A       67=A       68=A   
    69=A       70=A       71=A       72=A       73=A       74=A       75=A   
    76=A       77=A       78=A       79=A       80=A       81=A       82=A   
    83=A       84=A       85=A       86=A       87=A       88=A       89=A   
    90=A       91=A       92=A       93=A       94=A       95=A   
 ...... END OF INITIAL ORBITAL SELECTION ......
 CPU     0: STEP CPU TIME=     0.20 TOTAL CPU TIME=          0.9 (      0.0 MIN)
 TOTAL WALL CLOCK TIME=          2.1 SECONDS, CPU UTILIZATION IS    41.75%

 Running initial guess for monomer       4


          -------------
          GUESS OPTIONS
          -------------
          GUESS =HUCKEL            NORB  =       0          NORDER=       0
          MIX   =       F          PRTMO =       F          PUNMO =       F
          TOLZ  = 1.0E-08          TOLE  = 1.0E-05
          SYMDEN=       F          PURIFY=       F

 INITIAL GUESS ORBITALS GENERATED BY HUCKEL   ROUTINE.
 HUCKEL GUESS REQUIRES   1086374 WORDS.

 SYMMETRIES FOR INITIAL GUESS ORBITALS FOLLOW.   BOTH SET(S).
    85 ORBITALS ARE OCCUPIED (   26 CORE ORBITALS).
    27=A       28=A       29=A       30=A       31=A       32=A       33=A   
    34=A       35=A       36=A       37=A       38=A       39=A       40=A   
    41=A       42=A       43=A       44=A       45=A       46=A       47=A   
    48=A       49=A       50=A       51=A       52=A       53=A       54=A   
    55=A       56=A       57=A       58=A       59=A       60=A       61=A   
    62=A       63=A       64=A       65=A       66=A       67=A       68=A   
    69=A       70=A       71=A       72=A       73=A       74=A       75=A   
    76=A       77=A       78=A       79=A       80=A       81=A       82=A   
    83=A       84=A       85=A       86=A       87=A       88=A       89=A   
    90=A       91=A       92=A       93=A       94=A       95=A   
 ...... END OF INITIAL ORBITAL SELECTION ......
 CPU     0: STEP CPU TIME=     0.21 TOTAL CPU TIME=          1.1 (      0.0 MIN)
 TOTAL WALL CLOCK TIME=          2.6 SECONDS, CPU UTILIZATION IS    41.63%

 Running initial guess for monomer       3


          -------------
          GUESS OPTIONS
          -------------
          GUESS =HUCKEL            NORB  =       0          NORDER=       0
          MIX   =       F          PRTMO =       F          PUNMO =       F
          TOLZ  = 1.0E-08          TOLE  = 1.0E-05
          SYMDEN=       F          PURIFY=       F

 INITIAL GUESS ORBITALS GENERATED BY HUCKEL   ROUTINE.
 HUCKEL GUESS REQUIRES    909141 WORDS.

 SYMMETRIES FOR INITIAL GUESS ORBITALS FOLLOW.   BOTH SET(S).
    79 ORBITALS ARE OCCUPIED (   24 CORE ORBITALS).
    25=A       26=A       27=A       28=A       29=A       30=A       31=A   
    32=A       33=A       34=A       35=A       36=A       37=A       38=A   
    39=A       40=A       41=A       42=A       43=A       44=A       45=A   
    46=A       47=A       48=A       49=A       50=A       51=A       52=A   
    53=A       54=A       55=A       56=A       57=A       58=A       59=A   
    60=A       61=A       62=A       63=A       64=A       65=A       66=A   
    67=A       68=A       69=A       70=A       71=A       72=A       73=A   
    74=A       75=A       76=A       77=A       78=A       79=A       80=A   
    81=A       82=A       83=A       84=A       85=A       86=A       87=A   
    88=A       89=A   
 ...... END OF INITIAL ORBITAL SELECTION ......
 CPU     0: STEP CPU TIME=     0.16 TOTAL CPU TIME=          1.2 (      0.0 MIN)
 TOTAL WALL CLOCK TIME=          3.0 SECONDS, CPU UTILIZATION IS    41.55%

 Running initial guess for monomer       2


          -------------
          GUESS OPTIONS
          -------------
          GUESS =HUCKEL            NORB  =       0          NORDER=       0
          MIX   =       F          PRTMO =       F          PUNMO =       F
          TOLZ  = 1.0E-08          TOLE  = 1.0E-05
          SYMDEN=       F          PURIFY=       F

 INITIAL GUESS ORBITALS GENERATED BY HUCKEL   ROUTINE.
 HUCKEL GUESS REQUIRES    920598 WORDS.

 SYMMETRIES FOR INITIAL GUESS ORBITALS FOLLOW.   BOTH SET(S).
    79 ORBITALS ARE OCCUPIED (   24 CORE ORBITALS).
    25=A       26=A       27=A       28=A       29=A       30=A       31=A   
    32=A       33=A       34=A       35=A       36=A       37=A       38=A   
    39=A       40=A       41=A       42=A       43=A       44=A       45=A   
    46=A       47=A       48=A       49=A       50=A       51=A       52=A   
    53=A       54=A       55=A       56=A       57=A       58=A       59=A   
    60=A       61=A       62=A       63=A       64=A       65=A       66=A   
    67=A       68=A       69=A       70=A       71=A       72=A       73=A   
    74=A       75=A       76=A       77=A       78=A       79=A       80=A   
    81=A       82=A       83=A       84=A       85=A       86=A       87=A   
    88=A       89=A   
 ...... END OF INITIAL ORBITAL SELECTION ......
 CPU     0: STEP CPU TIME=     0.17 TOTAL CPU TIME=          1.4 (      0.0 MIN)
 TOTAL WALL CLOCK TIME=          3.3 SECONDS, CPU UTILIZATION IS    41.92%

 Running initial guess for monomer       1


          -------------
          GUESS OPTIONS
          -------------
          GUESS =HUCKEL            NORB  =       0          NORDER=       0
          MIX   =       F          PRTMO =       F          PUNMO =       F
          TOLZ  = 1.0E-08          TOLE  = 1.0E-05
          SYMDEN=       F          PURIFY=       F

 INITIAL GUESS ORBITALS GENERATED BY HUCKEL   ROUTINE.
 HUCKEL GUESS REQUIRES   1279373 WORDS.

 SYMMETRIES FOR INITIAL GUESS ORBITALS FOLLOW.   BOTH SET(S).
    94 ORBITALS ARE OCCUPIED (   28 CORE ORBITALS).
    29=A       30=A       31=A       32=A       33=A       34=A       35=A   
    36=A       37=A       38=A       39=A       40=A       41=A       42=A   
    43=A       44=A       45=A       46=A       47=A       48=A       49=A   
    50=A       51=A       52=A       53=A       54=A       55=A       56=A   
    57=A       58=A       59=A       60=A       61=A       62=A       63=A   
    64=A       65=A       66=A       67=A       68=A       69=A       70=A   
    71=A       72=A       73=A       74=A       75=A       76=A       77=A   
    78=A       79=A       80=A       81=A       82=A       83=A       84=A   
    85=A       86=A       87=A       88=A       89=A       90=A       91=A   
    92=A       93=A       94=A       95=A       96=A       97=A       98=A   
    99=A      100=A      101=A      102=A      103=A      104=A   
 ...... END OF INITIAL ORBITAL SELECTION ......
 CPU     0: STEP CPU TIME=     0.25 TOTAL CPU TIME=          1.6 (      0.0 MIN)
 TOTAL WALL CLOCK TIME=          4.0 SECONDS, CPU UTILIZATION IS    41.25%

 There are          11 separated and      17 SCF (      17 of them correlated) dimers.
 Estimate of max dimer size:  789 AOs,  178 occ. MOs

 Fragment statistics

      I  NAME     Q NAT0 NATB NA  NAO LAY MUL SCFTYP        NOP     MOL    CONV
 ==============================================================================
      1 F1       -1   36   1   94  403 1  1 G RHF             0      -1      -1
      2 F2       -1   31   1   79  341 1  1 G RHF             0      -1      -1
      3 F3       -1   30   1   79  339 1  1 G RHF             0      -1      -1
      4 F4       -1   33   1   85  371 1  1 G RHF             0      -1      -1
      5 F5       -1   33   1   85  371 1  1 G RHF             0      -1      -1
      6 F6       -1   31   1   79  341 1  1 G RHF             0      -1      -1
      7 F7       -1   34   1   89  386 1  1 G RHF             0      -1      -1
      8 F8        0   28   0   59  264 1  1 G RHF             0      -1      -1

 Close fragment pairs, distance relative to vdW radii

 CPU     0: STEP CPU TIME=     0.00 TOTAL CPU TIME=          1.6 (      0.0 MIN)
 TOTAL WALL CLOCK TIME=          4.0 SECONDS, CPU UTILIZATION IS    41.04%
 dmexch needs              3031310  words of memory.
 CPU     0: STEP CPU TIME=     0.02 TOTAL CPU TIME=          1.7 (      0.0 MIN)
 TOTAL WALL CLOCK TIME=          4.0 SECONDS, CPU UTILIZATION IS    41.34%

 Data exchange of   1004129 words took     0.0 s.

 RHF      monomer      1 corr= NONE       , L1=   403, L0=   378 ID=      1


 AO spaces for     1     0     0 n-mer: L1=   403, L0=   378

 DIRECT SCF CALCULATION, SCHWRZ=T   FDIFF=T,  DIRTHR=  0.00E+00 NITDIR=10

                                                                                   NONZERO     BLOCKS
 ITER EX DEM     TOTAL ENERGY        E CHANGE  DENSITY CHANGE     ORB. GRAD      INTEGRALS    SKIPPED
   1  0  0   852670.0776313685852670.0776313685   0.528518675   0.000000000     1041141261   21864761
          ---------------START SECOND ORDER SCF---------------
   2  1  0    -1551.9840078297*****************   0.419526208   0.111018416     1047690919   21867912
