‘4A4R_4_fmo_input.inp’ -> ‘/scratch/hazwong/822161/./4A4R_4_fmo_input.inp’
‘rungms’ -> ‘/scratch/hazwong/822161/./rungms’
‘gms-files.csh’ -> ‘/scratch/hazwong/822161/./gms-files.csh’
----- GAMESS execution script 'rungms' -----
This job is running on host gollum084.lsa.umich.edu
under operating system Linux at Fri Dec 6 11:57:22 EST 2019
Available scratch disk space (Kbyte units) at beginning of the job is
Filesystem     1K-blocks  Used Available Use% Mounted on
/dev/sda4      426933580 33428 426900152   1% /scratch
GAMESS temporary binary files will be written to /scratch/hazwong/822161/4A4R_4/usrc
GAMESS supplementary output files will be written to /scratch/hazwong/822161/4A4R_4/src
Copying input file 4A4R_4_fmo_input.inp to your run's scratch directory...
cp 4A4R_4_fmo_input.inp /scratch/hazwong/822161/4A4R_4/usrc/4A4R_4_fmo_input.F05
unset echo
This is a GDDI run, keeping various output files on local disks
setenv OUTPUT /scratch/hazwong/822161/4A4R_4/usrc/4A4R_4_fmo_input.F06
setenv PUNCH /scratch/hazwong/822161/4A4R_4/usrc/4A4R_4_fmo_input.F07
unset echo
 
Assuming a single but multicore node.
 
/export/apps/CentOS7/gamess/src/build//ddikick.x /export/apps/CentOS7/gamess/src/build//gamess.R3.x 4A4R_4_fmo_input -ddi 1 16 gollum084.lsa.umich.edu:cpus=16 -scr /scratch/hazwong/822161/4A4R_4/usrc

 Distributed Data Interface kickoff program.
 Initiating 16 compute processes on 1 nodes to run the following command:
 /export/apps/CentOS7/gamess/src/build//gamess.R3.x 4A4R_4_fmo_input 

          ******************************************************
          *         GAMESS VERSION = 30 SEP 2018 (R3)         *
          *             FROM IOWA STATE UNIVERSITY             *
          * M.W.SCHMIDT, K.K.BALDRIDGE, J.A.BOATZ, S.T.ELBERT, *
          *   M.S.GORDON, J.H.JENSEN, S.KOSEKI, N.MATSUNAGA,   *
          *          K.A.NGUYEN, S.J.SU, T.L.WINDUS,           *
          *       TOGETHER WITH M.DUPUIS, J.A.MONTGOMERY       *
          *         J.COMPUT.CHEM.  14, 1347-1363(1993)        *
          **************** 64 BIT LINUX VERSION ****************

  SINCE 1993, STUDENTS AND POSTDOCS WORKING AT IOWA STATE UNIVERSITY
  AND ALSO IN THEIR VARIOUS JOBS AFTER LEAVING ISU HAVE MADE IMPORTANT
  CONTRIBUTIONS TO THE CODE:
     IVANA ADAMOVIC, CHRISTINE AIKENS, YURI ALEXEEV, POOJA ARORA,
     ANDREY ASADCHEV, ROB BELL, PRADIPTA BANDYOPADHYAY, JONATHAN BENTZ,
     BRETT BODE, KURT BRORSEN, CALEB CARLIN, GALINA CHABAN, WEI CHEN,
     CHEOL HO CHOI, PAUL DAY, ALBERT DEFUSCO, NUWAN DESILVA, TIM DUDLEY,
     DMITRI FEDOROV, ALEX FINDLATER, GRAHAM FLETCHER, MARK FREITAG,
     KURT GLAESEMANN, ANASTASIA GUNINA,
     DAN KEMP, GRANT MERRILL, NORIYUKI MINEZAWA, JONATHAN MULLIN,
     TAKESHI NAGATA, SEAN NEDD, HEATHER NETZLOFF, BOSILJKA NJEGIC, RYAN OLSON,
     MIKE PAK, BUU PHAM,
     SPENCER PRUITT, LUKE ROSKOP, JIM SHOEMAKER, LYUDMILA SLIPCHENKO,
     TONY SMITH, SAROM SOK LEANG, JIE SONG, TETSUYA TAKETSUGU, SIMON WEBB,
     PENG XU, SOOHAENG YOO, FEDERICO ZAHARIEV

  ADDITIONAL CODE HAS BEEN PROVIDED BY COLLABORATORS IN OTHER GROUPS:
     IOWA STATE UNIVERSITY:
          JOE IVANIC, AARON WEST, LAIMUTIS BYTAUTAS, KLAUS RUEDENBERG
     UNIVERSITY OF TOKYO: KIMIHIKO HIRAO, TAKAHITO NAKAJIMA,
          TAKAO TSUNEDA, MUNEAKI KAMIYA, SUSUMU YANAGISAWA,
          KIYOSHI YAGI, MAHITO CHIBA, SEIKEN TOKURA, NAOAKI KAWAKAMI
     UNIVERSITY OF AARHUS: FRANK JENSEN
     UNIVERSITY OF IOWA: VISVALDAS KAIRYS, HUI LI
     NATIONAL INST. OF STANDARDS AND TECHNOLOGY: WALT STEVENS, DAVID GARMER
     UNIVERSITY OF PISA: BENEDETTA MENNUCCI, JACOPO TOMASI
     UNIVERSITY OF MEMPHIS: HENRY KURTZ, PRAKASHAN KORAMBATH
     UNIVERSITY OF ALBERTA: TOBY ZENG, MARIUSZ KLOBUKOWSKI
     UNIVERSITY OF NEW ENGLAND: MARK SPACKMAN
     MIE UNIVERSITY: HIROAKI UMEDA
     NAT. INST. OF ADVANCED INDUSTRIAL SCIENCE AND TECHNOLOGY: KAZUO KITAURA
     MICHIGAN STATE UNIVERSITY:
          KAROL KOWALSKI, MARTA WLOCH, JEFFREY GOUR, JESSE LUTZ,
          WEI LI, JUN SHEN, J. EMILIANO DEUSTUA, PIOTR PIECUCH
     UNIVERSITY OF MINNESOTA:
          YINAN SHU
     UNIVERSITY OF SILESIA: MONIKA MUSIAL, STANISLAW KUCHARSKI
     FACULTES UNIVERSITAIRES NOTRE-DAME DE LA PAIX:
          OLIVIER QUINET, BENOIT CHAMPAGNE
     UNIVERSITY OF CALIFORNIA - SANTA BARBARA: BERNARD KIRTMAN
     INSTITUTE FOR MOLECULAR SCIENCE:
          KAZUYA ISHIMURA, MICHIO KATOUDA, AND SHIGERU NAGASE
     UNIVERSITY OF NOTRE DAME: ANNA POMOGAEVA, DAN CHIPMAN
     KYUSHU UNIVERSITY:
          HARUYUKI NAKANO,
          FENG LONG GU, JACEK KORCHOWIEC, MARCIN MAKOWSKI, AND YURIKO AOKI,
          HIROTOSHI MORI AND EISAKU MIYOSHI
     PENNSYLVANIA STATE UNIVERSITY:
          TZVETELIN IORDANOV, CHET SWALINA, JONATHAN SKONE,
          SHARON HAMMES-SCHIFFER
     WASEDA UNIVERSITY:
          MASATO KOBAYASHI, TOMOKO AKAMA, TSUGUKI TOUMA,
          TAKESHI YOSHIKAWA, YASUHIRO IKABATA, JUNJI SEINO,
          YUYA NAKAJIMA, HIROMI NAKAI
     NANJING UNIVERSITY: SHUHUA LI
     UNIVERSITY OF NEBRASKA:
          PEIFENG SU, DEJUN SI, NANDUN THELLAMUREGE, YALI WANG, HUI LI
     UNIVERSITY OF ZURICH: ROBERTO PEVERATI, KIM BALDRIDGE
     N. COPERNICUS UNIVERSITY AND JACKSON STATE UNIVERSITY:
          MARIA BARYSZ
     UNIVERSITY OF COPENHAGEN: Jimmy Kromann, CASPER STEINMANN
     TOKYO INSTITUTE OF TECHNOLOGY: HIROYA NAKATA
     NAGOYA UNIVERSITY: YOSHIO NISHIMOTO, STEPHAN IRLE
     MOSCOW STATE UNIVERSITY: VLADIMIR MIRONOV


 PARALLEL VERSION RUNNING ON       16 PROCESSORS IN        1 NODES.

 EXECUTION OF GAMESS BEGUN Fri Dec  6 11:57:22 2019

            ECHO OF THE FIRST FEW INPUT CARDS -
 INPUT CARD>!*** FMO 5.3 (Gamess) INPUT generated by Facio 22.1.1.32 ***                    
 INPUT CARD> $CONTRL RUNTYP=ENERGY NPRINT=-5 ISPHER=1 MAXIT=200 $END                        
 INPUT CARD> $SYSTEM MWORDS=63 MEMDDI=63 $END                                               
 INPUT CARD> $GDDI NGROUP=1 $END                                                            
 INPUT CARD> $SCF DIRSCF=.TRUE. NPUNCH=0 $END                                               
 INPUT CARD>!*** NumCPU : 2  MemPerNode : 512MB                                             
 INPUT CARD> $PCM SOLVNT=WATER IEF=-10 ICOMP=2 ICAV=1 IDISP=1 IFMO=-1 $END                  
 INPUT CARD> $PCMCAV RADII=SUAHF $END                                                       
 INPUT CARD> $TESCAV NTSALL=60 $END                                                         
 INPUT CARD> $FMOPRP                                                                        
 INPUT CARD>    NAODIR=200                                                                  
 INPUT CARD>    NGRFMO(1)=1, 1, 0, 0, 0,   0, 0, 0, 0, 0                                    
 INPUT CARD>    IPIEDA=1                                                                    
 INPUT CARD>    NPRINT=9                                                                    
 INPUT CARD> $END                                                                           
 INPUT CARD> $FMO                                                                           
 INPUT CARD>      SCFTYP(1)=RHF                                                             
 INPUT CARD>      MODGRD=10                                                                 
 INPUT CARD>      MODMUL=0                                                                  
 INPUT CARD>      MAXCAO=5                                                                  
 INPUT CARD>      MAXBND=10                                                                 
 INPUT CARD>      NLAYER=1                                                                  
 INPUT CARD>      MPLEVL(1)=2                                                               
 INPUT CARD>      NFRAG=8                                                                   
 INPUT CARD>      ICHARG(1)=-1, -1, -1, -1, -1, -1, -1, 0                                   
 INPUT CARD>      FRGNAM(1)=F1, F2, F3, F4, F5, F6, F7, F8                                  
 INPUT CARD>      indat(1)=0                                                                
 INPUT CARD>               1   -36   0                                                      
 INPUT CARD>               37   -67   0                                                     
 INPUT CARD>               68   -97   0                                                     
 INPUT CARD>               98   -130   0                                                    
 INPUT CARD>               131   -163   0                                                   
 INPUT CARD>               164   -194   0                                                   
 INPUT CARD>               195   -228   0                                                   
 INPUT CARD>               229   -256   0                                                   
 INPUT CARD> $END                                                                           
 INPUT CARD>                                                                                
 INPUT CARD> $FMOBND                                                                        
 INPUT CARD>   -37   36       6-31G*    MINI                                                
 INPUT CARD>   -68   67       6-31G*    MINI                                                
 INPUT CARD>   -98   97       6-31G*    MINI                                                
 INPUT CARD>   -131   130       6-31G*    MINI                                              
 INPUT CARD>   -164   163       6-31G*    MINI                                              
 INPUT CARD>   -195   194       6-31G*    MINI                                              
 INPUT CARD>   -229   228       6-31G*    MINI                                              
 INPUT CARD> $END                                                                           
 INPUT CARD> $FMOHYB                                                                        
 INPUT CARD> 6-31G*      15   5                                                             
 INPUT CARD>   1 0  -0.065034   0.288264   0.000000   0.000000   0.604412                   
 INPUT CARD>         0.290129   0.000000   0.000000   0.319045  -0.017106                   


 -------------------------------------------------------------
 GROUP DDI, PROGRAMMED BY: RYAN M. OLSON AND DMITRI G. FEDOROV
        FEDOROV ET AL., J. COMPUT. CHEM., 25 (2004) 872.
 -------------------------------------------------------------

 -------------------------------------------------------
 GDDI: INITIALIZATION COMPLETED FOR GROUP     1 OF     1
 WITH    16 PROCESSES BALTYP=DLB   global rank=        0
 -------------------------------------------------------

   63000000 WORDS OF MEMORY AVAILABLE


     RUN TITLE
     ---------
  FMO calculation                                                                

 THE POINT GROUP OF THE MOLECULE IS C1      
 THE ORDER OF THE PRINCIPAL AXIS IS     0

 ATOM   ATOMIC CHARGE
 H.1-1       1.0
 O.1-1       8.0
 C.1-1       6.0
 N.1-1       7.0
 P.1-1      15.0

     ATOMIC BASIS SET LIBRARY
     ----------------
 THE CONTRACTED PRIMITIVE FUNCTIONS HAVE BEEN UNNORMALIZED
 THE CONTRACTED BASIS FUNCTIONS ARE NOW NORMALIZED TO UNITY

  SHELL TYPE  PRIMITIVE        EXPONENT          CONTRACTION COEFFICIENT(S)

 H.1-1     

      1   S       1            18.7311370    0.033494604338
      1   S       2             2.8253944    0.234726953484
      1   S       3             0.6401217    0.813757326146

      2   S       4             0.1612778    1.000000000000

 O.1-1     

      3   S       5          5484.6716600    0.001831074430
      3   S       6           825.2349460    0.013950172200
      3   S       7           188.0469580    0.068445078098
      3   S       8            52.9645000    0.232714335992
      3   S       9            16.8975704    0.470192897984
      3   S      10             5.7996353    0.358520852987

      4   L      11            15.5396162   -0.110777549525    0.070874268231
      4   L      12             3.5999336   -0.148026262701    0.339752839147
      4   L      13             1.0137618    1.130767015354    0.727158577316

      5   L      14             0.2700058    1.000000000000    1.000000000000

      6   D      15             0.8000000    1.000000000000

 C.1-1     

      7   S      16          3047.5248800    0.001834737132
      7   S      17           457.3695180    0.014037322813
      7   S      18           103.9486850    0.068842622264
      7   S      19            29.2101553    0.232184443216
      7   S      20             9.2866630    0.467941348435
      7   S      21             3.1639270    0.362311985337

      8   L      22             7.8682723   -0.119332419775    0.068999066591
      8   L      23             1.8812885   -0.160854151696    0.316423960957
      8   L      24             0.5442493    1.143456437840    0.744308290898

      9   L      25             0.1687145    1.000000000000    1.000000000000

     10   D      26             0.8000000    1.000000000000

 N.1-1     

     11   S      27          4173.5114600    0.001834772160
     11   S      28           627.4579110    0.013994627002
     11   S      29           142.9020930    0.068586551812
     11   S      30            40.2343293    0.232240873040
     11   S      31            12.8202129    0.469069948082
     11   S      32             4.3904370    0.360455199063

     12   L      33            11.6263619   -0.114961181702    0.067579743878
     12   L      34             2.7162798   -0.169117478561    0.323907295893
     12   L      35             0.7722184    1.145851947027    0.740895139755

     13   L      36             0.2120315    1.000000000000    1.000000000000

     14   D      37             0.8000000    1.000000000000

 P.1-1     

     15   S      38         19413.3000000    0.001851598923
     15   S      39          2909.4200000    0.014206191735
     15   S      40           661.3640000    0.069999459277
     15   S      41           185.7590000    0.240078860331
     15   S      42            59.1943000    0.484761717984
     15   S      43            20.0310000    0.335199804993

     16   L      44           339.4780000   -0.002782170105    0.004564616191
     16   L      45            81.0101000   -0.036049901354    0.033693571881
     16   L      46            25.8780000   -0.116631004382    0.139754883368
     16   L      47             9.4522100    0.096832803638    0.339361716786
     16   L      48             3.6656600    0.614418023082    0.450920623685
     16   L      49             1.4674600    0.403798015170    0.238585800889

     17   L      50             2.1562300   -0.252924113863   -0.017765312733
     17   L      51             0.7489970    0.032851844678    0.274058196433
     17   L      52             0.2831450    1.081254761783    0.785421562957

     18   L      53             0.0998317    1.000000000000    1.000000000000

     19   D      54             0.5500000    1.000000000000

 TOTAL NUMBER OF BASIS SET SHELLS             =   19
 NUMBER OF CARTESIAN GAUSSIAN BASIS FUNCTIONS =   66

     $CONTRL OPTIONS
     ---------------
 SCFTYP=RHF          RUNTYP=ENERGY       EXETYP=RUN     
 MPLEVL=       0     CITYP =NONE         CCTYP =NONE         VBTYP =NONE    
 DFTTYP=NONE         TDDFT =NONE    
 MULT  =       1     ICHARG=       0     NZVAR =       0     COORD =UNIQUE  
 PP    =NONE         RELWFN=NONE         LOCAL =NONE         NUMGRD=       F
 ISPHER=       1     NOSYM =       0     MAXIT =     200     UNITS =ANGS    
 PLTORB=       F     MOLPLT=       F     AIMPAC=       F     FRIEND=        
 NPRINT=      -5     IREST =       0     GEOM  =INPUT   
 NORMF =       0     NORMP =       0     ITOL  =      24     ICUT  =      12
 INTTYP=BEST         GRDTYP=BEST         QMTTOL= 1.0E-06

     $SYSTEM OPTIONS
     ---------------
  REPLICATED MEMORY=    63000000 WORDS (ON EVERY NODE).
 DISTRIBUTED MEMDDI=          63 MILLION WORDS IN AGGREGATE,
 MEMDDI DISTRIBUTED OVER  16 PROCESSORS IS     3937500 WORDS/PROCESSOR.
 TOTAL MEMORY REQUESTED ON EACH PROCESSOR=    66937500 WORDS.
 TIMLIM=      525600.00 MINUTES, OR     365.0 DAYS.
 PARALL= T  BALTYP=  DLB     KDIAG=    0  COREFL= F
 MXSEQ2=     300 MXSEQ3=     150  mem10=         0

 ** LOOKING UP INTERNALLY STORED DATA FOR SOLVENT=WATER    **
 OPTICAL AND PHYSICAL CONSTANTS:
 EPS= 78.390; EPSINF=  1.776; RSOLV=  1.385 A; VMOL=  18.070 ML/MOL;
 TCE= .25700E-03 1/K; STEN= 71.810 DYN/CM;  DSTEN=  0.6500; CMF=  1.2770


     -----------------------------------
     INPUT FOR PCM SOLVATION CALCULATION 
     -----------------------------------
     IEF   =     -10
     ICOMP =       2     IFIELD=       0     ICAV  =       1
     IDISP =       1     IREP  =       0     IDP   =       0

     SOLVNT=WATER        EPS   = 78.3900     EPSINF=  1.7760
     VMOL  = 18.0700     TCE   =  0.00025700 STEN  = 71.8100
     DSTEN =  0.6500     CMF   =  1.2770     RSOLV =  1.3850

     NESFP =       0
     OMEGA = 40.0000     RET   =100.0000     FRO   =  0.7000

     TABS  =298.0000     IPRINT=       0

     --------------------------------
     INPUT FOR ITERATIVE C-PCM METHOD 
     --------------------------------
     IPCMIT  =         1     MXDIIS  =        50
     MXITR1  =       200     MXITR2  =       200
     THRES   = 0.100E-09     IMUL    =         3
     RCUT(1) =   20.0000     RCUT(2) =   50.0000

     IDIRCT  =         1
     IMGABI  =         0     RABI    =    4.0000
     IMGASC  =         0     RASC    =   20.0000
     THRSLS  = 0.500E-03     DENSLS  =    0.0100
     IEFPOL  =         1     REFPOL  =    0.0000

     INPUT FOR ISOTROPIC DIELECTRICS
     -------------------------------
     EPS=    78.39

          ----------------
          PROPERTIES INPUT
          ----------------

     MOMENTS            FIELD           POTENTIAL          DENSITY
 IEMOM =       1   IEFLD =       0   IEPOT =       0   IEDEN =       0
 WHERE =COMASS     WHERE =NUCLEI     WHERE =NUCLEI     WHERE =NUCLEI  
 OUTPUT=BOTH       OUTPUT=BOTH       OUTPUT=NONE       OUTPUT=BOTH    
 IEMINT=       0   IEFINT=       0                     IEDINT=       0
                                                       MORB  =       0
          EXTRAPOLATION IN EFFECT
          SOSCF IN EFFECT
 ORBITAL PRINTING OPTION: NPREO=     1 32767     2     1

     -------------------------------
     INTEGRAL TRANSFORMATION OPTIONS
     -------------------------------
     NWORD  =            0
     CUTOFF = 1.0E-10     MPTRAN =       0
     DIRTRF =       T     AOINTS =DUP     

          ----------------------
          INTEGRAL INPUT OPTIONS
          ----------------------
 NOPK  =       1 NORDER=       0 SCHWRZ=       T

 ..... DONE SETTING UP THE RUN .....
 CPU     0: STEP CPU TIME=     0.04 TOTAL CPU TIME=          0.0 (      0.0 MIN)
 TOTAL WALL CLOCK TIME=          0.1 SECONDS, CPU UTILIZATION IS    66.67%
 CPU     0: STEP CPU TIME=     0.00 TOTAL CPU TIME=          0.0 (      0.0 MIN)
 TOTAL WALL CLOCK TIME=          0.1 SECONDS, CPU UTILIZATION IS    57.14%

                    ----------------------
                    AO INTEGRAL TECHNOLOGY
                    ----------------------
     S,P,L SHELL ROTATED AXIS INTEGRALS, REPROGRAMMED BY
        KAZUYA ISHIMURA (IMS) AND JOSE SIERRA (SYNSTAR).
     S,P,D,L SHELL ROTATED AXIS INTEGRALS PROGRAMMED BY
        KAZUYA ISHIMURA (INSTITUTE FOR MOLECULAR SCIENCE).
     S,P,D,F,G SHELL TO TOTAL QUARTET ANGULAR MOMENTUM SUM 5,
        ERIC PROGRAM BY GRAHAM FLETCHER (ELORET AND NASA ADVANCED
        SUPERCOMPUTING DIVISION, AMES RESEARCH CENTER).
     S,P,D,F,G,L SHELL GENERAL RYS QUADRATURE PROGRAMMED BY
        MICHEL DUPUIS (PACIFIC NORTHWEST NATIONAL LABORATORY).
 Setting modorb=1 flag...
 Setting modorb=1 flag...

          -----------------------
          MP2 CONTROL INFORMATION
          -----------------------
          NACORE =        8  NBCORE =        8
          LMOMP2 =        F  AOINTS = DUP     
          METHOD =        2  NWORD  =               0
          MP2PRP =        F  OSPT   = NONE    
          CUTOFF = 1.00E-12  CPHFBS = BASISAO 
          CODE   = IMS     

          NUMBER OF CORE -A-  ORBITALS =     8
          NUMBER OF CORE -B-  ORBITALS =     8
          NUMBER OF OCC. -A-  ORBITALS =    18
          NUMBER OF OCC. -B-  ORBITALS =    18
          NUMBER OF MOLECULAR ORBITALS =    66
          NUMBER OF   BASIS  FUNCTIONS =    66

 CPU     0: STEP CPU TIME=     0.02 TOTAL CPU TIME=          0.1 (      0.0 MIN)
 TOTAL WALL CLOCK TIME=          0.1 SECONDS, CPU UTILIZATION IS    60.00%
 CPU     0: STEP CPU TIME=     0.00 TOTAL CPU TIME=          0.1 (      0.0 MIN)
 TOTAL WALL CLOCK TIME=          0.1 SECONDS, CPU UTILIZATION IS    60.00%

     INPUT FOR CAVITY DEFINITION 
     ---------------------------
   ATOM               COORDINATES                RADIUS       EPS
      1     -0.8630      4.4290     16.0230      0.0100     78.3900
      2     -0.6150      4.8480     15.1780      1.5900     78.3900
      3      0.7600      5.2430     15.3030      1.7700     78.3900
      4      1.3790      4.3460     15.5360      0.0100     78.3900
      5      0.8540      5.9580     16.1520      0.0100     78.3900
      6      1.3130      5.9110     14.0410      1.7700     78.3900
      7      2.3650      6.2360     14.1910      0.0100     78.3900
      8      1.3070      4.9610     12.9360      1.5900     78.3900
      9      0.9640      5.6450     11.7410      1.7700     78.3900
     10      1.7840      5.4430     11.0110      0.0100     78.3900
     11     -0.2970      5.1440     11.1800      1.6800     78.3900
     12     -0.7350      5.3280      9.8980      1.7700     78.3900
     13     -0.2700      6.6450      6.7320      1.6800     78.3900
     14      0.6080      7.1130      6.8200      0.0100     78.3900
     15     -0.7420      6.6450      5.8470      0.0100     78.3900
     16     -0.0960      6.0200      8.9410      1.6800     78.3900
     17     -0.7480      6.0050      7.7820      1.7700     78.3900
     18     -1.9230      5.3260      7.5930      1.6800     78.3900
     19     -2.3460      5.3570      6.6790      0.0100     78.3900
     20     -2.6010      4.5900      8.5560      1.7700     78.3900
     21     -3.6560      4.0050      8.2870      1.5900     78.3900
     22     -1.9280      4.6340      9.8100      1.7700     78.3900
     23     -2.2510      4.0490     11.0310      1.6800     78.3900
     24     -1.2520      4.3820     11.8170      1.7700     78.3900
     25     -1.1450      4.0990     12.8680      0.0100     78.3900
     26      0.9160      7.1190     12.0560      1.7700     78.3900
     27      0.1860      7.6670     11.4260      0.0100     78.3900
     28      2.2050      7.6780     11.8900      1.5900     78.3900
     29      2.1500      8.5850     12.2130      0.0100     78.3900
     30      0.5010      7.1070     13.5220      1.7700     78.3900
     31     -0.5770      6.8420     13.6220      0.0100     78.3900
     32      0.8510      8.2910     14.2660      1.5900     78.3900
     33     -0.1370      9.5130     14.3220      2.1000     78.3900
     34     -1.4510      9.0370     14.8030      1.5900     78.3900
     35      0.5170     10.5840     15.1090      1.5900     78.3900
     36     -0.2690      9.9500     12.8150      1.5900     78.3900
     37      0.7980     10.7050     12.1920      1.7700     78.3900
     38      1.7660     10.1540     12.2200      0.0100     78.3900
     39      0.9610     11.6700     12.7280      0.0100     78.3900
     40      0.4710     11.0410     10.7350      1.7700     78.3900
     41      1.3160     11.5930     10.2610      0.0100     78.3900
     42      0.2400      9.8370      9.9540      1.5900     78.3900
     43     -0.7820     10.0940      8.9970      1.7700     78.3900
     44     -0.3150      9.9110      8.0010      0.0100     78.3900
     45     -1.9590      9.1890      9.1500      1.6800     78.3900
     46     -2.1940      8.5690     10.3570      1.7700     78.3900
     47     -1.4710      8.7740     11.1460      0.0100     78.3900
     48     -3.2240      7.7300     10.5230      1.7700     78.3900
     49     -3.3940      7.1950     11.4550      0.0100     78.3900
     50     -2.8520      9.0020      8.0960      1.7700     78.3900
     51     -2.6770      9.6150      7.0320      1.5900     78.3900
     52     -3.8910      8.1500      8.2430      1.6800     78.3900
     53     -4.0930      7.5210      9.4140      1.7700     78.3900
     54     -5.1160      6.6790      9.5250      1.6800     78.3900
     55     -5.7160      6.5240      8.7370      0.0100     78.3900
     56     -5.2700      6.1380     10.3510      0.0100     78.3900
     57     -1.1490     11.5650      9.1050      1.7700     78.3900
     58     -2.2250     11.7450      8.9120      0.0100     78.3900
     59     -0.3610     12.3380      8.2190      1.5900     78.3900
     60     -0.5780     13.2630      8.3900      0.0100     78.3900
     61     -0.8020     11.8640     10.5550      1.7700     78.3900
     62     -1.5720     11.4090     11.2240      0.0100     78.3900
     63     -0.5190     13.2500     10.8400      1.5900     78.3900
     64     -1.5300     14.1240     11.6640      2.1000     78.3900
     65     -2.3320     13.2540     12.5470      1.5900     78.3900
     66     -0.7690     15.2130     12.3180      1.5900     78.3900
     67     -2.4390     14.7180     10.5400      1.5900     78.3900
     68     -2.0250     15.6550      9.5430      1.7700     78.3900
     69     -2.2470     15.2140      8.5480      0.0100     78.3900
     70     -0.9320     15.8720      9.5770      0.0100     78.3900
     71     -2.8040     16.9690      9.6710      1.7700     78.3900
     72     -2.4760     17.5430     10.5640      0.0100     78.3900
     73     -2.5010     17.7640      8.4860      1.5900     78.3900
     74     -3.6840     18.3990      8.0090      1.7700     78.3900
     75     -3.4290     19.4790      7.9220      0.0100     78.3900
     76     -4.1120     17.8910      6.6700      1.6800     78.3900
     77     -3.4450     16.8510      6.0550      1.7700     78.3900
     78     -2.6170     16.4090      6.6160      0.0100     78.3900
     79     -5.1370     18.5470      6.0140      1.7700     78.3900
     80     -5.7210     19.5140      6.4940      1.5900     78.3900
     81     -5.4500     18.0510      4.7740      1.6800     78.3900
     82     -6.2160     18.5100      4.2990      0.0100     78.3900
     83     -4.8170     17.0290      4.0980      1.7700     78.3900
     84     -5.1720     16.7190      2.9600      1.5900     78.3900
     85     -3.7470     16.4200      4.8230      1.7700     78.3900
     86     -3.1760     15.6370      4.3370      0.0100     78.3900
     87     -4.7380     18.2190      9.0850      1.7700     78.3900
     88     -5.7670     18.1620      8.6720      0.0100     78.3900
     89     -4.6610     19.2830     10.0200      1.5900     78.3900
     90     -5.2260     19.0520     10.7760      0.0100     78.3900
     91     -4.3400     16.8830      9.6990      1.7700     78.3900
     92     -4.6240     16.0460      9.0210      0.0100     78.3900
     93     -4.8180     16.7140     11.0460      1.5900     78.3900
     94     -5.8140     15.5740     11.4610      2.1000     78.3900
     95     -5.9150     15.5760     12.9400      1.5900     78.3900
     96     -7.0910     15.8030     10.7500      1.5900     78.3900
     97     -5.1350     14.2320     11.0120      1.5900     78.3900
     98     -5.7570     12.9470     11.1600      1.7700     78.3900
     99     -6.0890     12.7770     12.2130      0.0100     78.3900
    100     -4.9900     12.1730     10.9400      0.0100     78.3900
    101     -6.9440     12.7820     10.1950      1.7700     78.3900
    102     -7.8300     13.2870     10.6340      0.0100     78.3900
    103     -6.6820     13.3910      8.8900      1.5900     78.3900
    104     -6.4060     12.3960      7.9410      1.7700     78.3900
    105     -7.2800     12.4030      7.2510      0.0100     78.3900
    106     -5.1750     12.7080      7.2220      1.6800     78.3900
    107     -3.7120     13.0470      5.6240      1.7700     78.3900
    108     -3.0710     13.3770      6.8120      1.6800     78.3900
    109     -3.9820     13.1620      7.7330      1.7700     78.3900
    110     -3.8440     13.3250      8.8080      0.0100     78.3900
    111     -4.2100     12.7410      3.3240      1.6800     78.3900
    112     -5.4470     12.4210      3.7150      1.7700     78.3900
    113     -6.1520     12.1740      2.9140      0.0100     78.3900
    114     -5.9450     12.3360      4.9500      1.6800     78.3900
    115     -5.0140     12.6560      5.8650      1.7700     78.3900
    116     -3.2970     13.0690      4.2740      1.7700     78.3900
    117     -2.0550     13.4070      3.8860      1.6800     78.3900
    118     -1.3300     13.6180      4.5450      0.0100     78.3900
    119     -1.8190     13.4050      2.9110      0.0100     78.3900
    120     -6.3560     11.0690      8.6660      1.7700     78.3900
    121     -5.3280     10.8600      9.0410      0.0100     78.3900
    122     -6.8000     10.0060      7.8500      1.5900     78.3900
    123     -7.7170      9.7800      8.1180      0.0100     78.3900
    124     -7.3010     11.3390      9.8470      1.7700     78.3900
    125     -7.0010     10.7080     10.7170      0.0100     78.3900
    126     -8.7210     11.2280      9.5620      1.5900     78.3900
    127     -9.4780      9.8840      9.8320      2.1000     78.3900
    128     -9.1010      8.9710      8.7340      1.5900     78.3900
    129     -9.2170      9.4500     11.2200      1.5900     78.3900
    130    -11.0040     10.2580      9.7150      1.5900     78.3900
    131    -11.8920      9.4260      8.9260      1.7700     78.3900
    132    -11.9820      8.4080      9.3730      0.0100     78.3900
    133    -11.4960      9.3120      7.8890      0.0100     78.3900
    134    -13.3100     10.0170      8.8160      1.7700     78.3900
    135    -13.8840      9.8580      9.7540      0.0100     78.3900
    136    -13.2420     11.4540      8.6030      1.5900     78.3900
    137    -14.2010     11.8410      7.6410      1.7700     78.3900
    138    -14.8040     12.6540      8.1060      0.0100     78.3900
    139    -13.5410     12.3570      6.4390      1.6800     78.3900
    140    -13.1410     13.3430      4.5180      1.7700     78.3900
    141    -11.9170     12.8700      4.9720      1.6800     78.3900
    142    -12.2050     12.3000      6.1140      1.7700     78.3900
    143    -11.4810     11.8170      6.7770      0.0100     78.3900
    144    -14.8310     14.3670      3.2080      1.6800     78.3900
    145    -15.6880     13.9800      4.1590      1.7700     78.3900
    146    -16.7330     14.2550      3.9860      0.0100     78.3900
    147    -15.4500     13.3370      5.3070      1.6800     78.3900
    148    -14.1470     13.0330      5.4150      1.7700     78.3900
    149    -13.5140     14.0660      3.3650      1.7700     78.3900
    150    -12.6340     14.4740      2.4320      1.6800     78.3900
    151    -11.6540     14.2720      2.4940      0.0100     78.3900
    152    -12.9650     14.9700      1.6280      0.0100     78.3900
    153    -15.0900     10.6420      7.3660      1.7700     78.3900
    154    -15.4660     10.6220      6.3200      0.0100     78.3900
    155    -16.1790     10.6210      8.2750      1.5900     78.3900
    156    -16.6440      9.7760      8.1610      0.0100     78.3900
    157    -14.1240      9.4910      7.6210      1.7700     78.3900
    158    -13.4130      9.3910      6.7680      0.0100     78.3900
    159    -14.7420      8.2360      7.9650      1.5900     78.3900
    160    -15.4430      7.3360      6.8790      2.1000     78.3900
    161    -14.9700      5.9520      7.0760      1.5900     78.3900
    162    -16.9070      7.5470      6.9380      1.5900     78.3900
    163    -14.9210      7.8560      5.4990      1.5900     78.3900
    164    -14.4830      6.9560      4.4530      1.7700     78.3900
    165    -15.2320      6.1520      4.2630      0.0100     78.3900
    166    -13.5340      6.4630      4.7680      0.0100     78.3900
    167    -14.2170      7.6920      3.1170      1.7700     78.3900
    168    -15.1450      7.7600      2.5100      0.0100     78.3900
    169    -13.7970      9.0680      3.3850      1.5900     78.3900
    170    -12.7400      9.4250      2.5300      1.7700     78.3900
    171    -13.0720     10.3690      2.0360      0.0100     78.3900
    172    -11.4760      9.6670      3.2760      1.6800     78.3900
    173    -11.2200      8.9890      4.4490      1.7700     78.3900
    174    -11.9900      8.2880      4.7790      0.0100     78.3900
    175    -10.1020      9.2140      5.1510      1.7700     78.3900
    176     -9.8870      8.7110      6.0920      0.0100     78.3900
    177    -10.5430     10.5750      2.7820      1.7700     78.3900
    178    -10.7870     11.1700      1.7210      1.5900     78.3900
    179     -9.3990     10.7990      3.4700      1.6800     78.3900
    180     -9.1810     10.1700      4.6350      1.7700     78.3900
    181     -8.0890     10.4590      5.3250      1.6800     78.3900
    182     -7.4300     11.1280      4.9640      0.0100     78.3900
    183     -7.8220      9.9940      6.1690      0.0100     78.3900
    184    -12.6160      8.3410      1.4800      1.7700     78.3900
    185    -11.5800      8.2360      1.1190      0.0100     78.3900
    186    -13.4590      8.6200      0.3810      1.5900     78.3900
    187    -13.4450      7.8420     -0.1990      0.0100     78.3900
    188    -13.0810      7.1030      2.2480      1.7700     78.3900
    189    -12.2800      6.7720      2.9480      0.0100     78.3900
    190    -13.5820      6.0200      1.4200      1.5900     78.3900
    191    -12.5520      4.9550      0.8620      2.1000     78.3900
    192    -11.8150      4.4240      2.0320      1.5900     78.3900
    193    -13.2840      3.9640      0.0400      1.5900     78.3900
    194    -11.5750      5.7480     -0.0830      1.5900     78.3900
    195    -10.2040      5.3090     -0.2790      1.7700     78.3900
    196    -10.0920      4.8540     -1.2890      0.0100     78.3900
    197     -9.8860      4.5380      0.4620      0.0100     78.3900
    198     -9.2110      6.4740     -0.1510      1.7700     78.3900
    199     -9.3020      7.1600     -1.0180      0.0100     78.3900
    200     -9.5160      7.2400      1.0390      1.5900     78.3900
    201     -8.3300      7.6920      1.6490      1.7700     78.3900
    202     -8.4170      8.7990      1.7400      0.0100     78.3900
    203     -8.1920      7.1040      2.9880      1.6800     78.3900
    204     -7.2250      7.4070      3.9030      1.7700     78.3900
    205     -4.4290      9.2230      4.8240      1.6800     78.3900
    206     -4.2580      9.7830      4.0200      0.0100     78.3900
    207     -3.8560      9.3280      5.6410      0.0100     78.3900
    208     -6.2160      8.2760      3.7230      1.6800     78.3900
    209     -5.4600      8.3990      4.8070      1.7700     78.3900
    210     -5.6760      7.6940      5.9610      1.6800     78.3900
    211     -5.0800      7.8870      6.7510      0.0100     78.3900
    212     -6.7130      6.7960      6.1800      1.7700     78.3900
    213     -6.8440      6.2000      7.2540      1.5900     78.3900
    214     -7.5220      6.6490      5.0220      1.7700     78.3900
    215     -8.6500      5.8630      4.8060      1.6800     78.3900
    216     -9.0180      6.1680      3.5830      1.7700     78.3900
    217     -9.8800      5.7500      3.0530      0.0100     78.3900
    218     -7.1850      7.3370      0.7250      1.7700     78.3900
    219     -6.2420      7.1180      1.2680      0.0100     78.3900
    220     -6.9690      8.3900     -0.1960      1.5900     78.3900
    221     -6.3480      8.0690     -0.8640      0.0100     78.3900
    222     -7.7380      6.0920      0.0400      1.7700     78.3900
    223     -7.7350      5.2420      0.7650      0.0100     78.3900
    224     -7.1310      5.7830     -1.2360      1.5900     78.3900
    225     -6.1650      4.5450     -1.3370      2.1000     78.3900
    226     -6.6760      3.4550     -0.4770      1.5900     78.3900
    227     -5.9230      4.2120     -2.7590      1.5900     78.3900
    228     -4.8310      5.1050     -0.7180      1.5900     78.3900
    229     -4.1020      6.1380     -1.4260      1.7700     78.3900
    230     -4.7470      7.0280     -1.6060      0.0100     78.3900
    231     -3.7470      5.7570     -2.4170      0.0100     78.3900
    232     -2.8760      6.6100     -0.6290      1.7700     78.3900
    233     -2.2780      7.3390     -1.2150      0.0100     78.3900
    234     -3.3090      7.2890      0.5870      1.5900     78.3900
    235     -2.4400      6.9330      1.6560      1.7700     78.3900
    236     -2.0510      7.8940      2.0650      0.0100     78.3900
    237     -3.1390      6.1900      2.7420      1.6800     78.3900
    238     -4.3280      5.5470      2.4850      1.7700     78.3900
    239     -4.7230      5.6580      1.4770      0.0100     78.3900
    240     -4.9760      4.8650      3.4360      1.7700     78.3900
    241     -5.9280      4.3720      3.2520      0.0100     78.3900
    242     -2.5730      6.1040      4.0100      1.7700     78.3900
    243     -1.4800      6.6500      4.2230      1.5900     78.3900
    244     -3.2150      5.4220      4.9860      1.6800     78.3900
    245     -4.3800      4.8030      4.7260      1.7700     78.3900
    246     -4.9950      4.1420      5.7030      1.6800     78.3900
    247     -4.5940      4.1320      6.6230      0.0100     78.3900
    248     -5.8760      3.6870      5.5640      0.0100     78.3900
    249     -1.2780      6.1480      1.0650      1.7700     78.3900
    250     -0.8930      5.3780      1.7670      0.0100     78.3900
    251     -0.2330      7.0350      0.6950      1.5900     78.3900
    252      0.4260      6.5450      0.1710      0.0100     78.3900
    253     -1.9390      5.4970     -0.1440      1.7700     78.3900
    254     -2.5630      4.6340      0.1710      0.0100     78.3900
    255     -1.0250      5.1070     -1.1840      1.5900     78.3900
    256     -0.4260      4.4130     -0.8530      0.0100     78.3900

     ----------------------------
     INPUT FOR TESSERA DEFINITION
     ----------------------------
     NTSALL  =        60     MTHALL  =         4
     MTHAUT  =         0     AUTFRE  =    2.0000
     NTSFRZ  =        60     KEEPSM  =         0
     AREAKP  =   10.0000     BONDRY  =    1.0000
     AREATL  =    0.0100

     SPHERE     INITS       METHOD
          1        60       FIXPVA
          2        60       FIXPVA
          3        60       FIXPVA
          4        60       FIXPVA
          5        60       FIXPVA
          6        60       FIXPVA
          7        60       FIXPVA
          8        60       FIXPVA
          9        60       FIXPVA
         10        60       FIXPVA
         11        60       FIXPVA
         12        60       FIXPVA
         13        60       FIXPVA
         14        60       FIXPVA
         15        60       FIXPVA
         16        60       FIXPVA
         17        60       FIXPVA
         18        60       FIXPVA
         19        60       FIXPVA
         20        60       FIXPVA
         21        60       FIXPVA
         22        60       FIXPVA
         23        60       FIXPVA
         24        60       FIXPVA
         25        60       FIXPVA
         26        60       FIXPVA
         27        60       FIXPVA
         28        60       FIXPVA
         29        60       FIXPVA
         30        60       FIXPVA
         31        60       FIXPVA
         32        60       FIXPVA
         33        60       FIXPVA
         34        60       FIXPVA
         35        60       FIXPVA
         36        60       FIXPVA
         37        60       FIXPVA
         38        60       FIXPVA
         39        60       FIXPVA
         40        60       FIXPVA
         41        60       FIXPVA
         42        60       FIXPVA
         43        60       FIXPVA
         44        60       FIXPVA
         45        60       FIXPVA
         46        60       FIXPVA
         47        60       FIXPVA
         48        60       FIXPVA
         49        60       FIXPVA
         50        60       FIXPVA
         51        60       FIXPVA
         52        60       FIXPVA
         53        60       FIXPVA
         54        60       FIXPVA
         55        60       FIXPVA
         56        60       FIXPVA
         57        60       FIXPVA
         58        60       FIXPVA
         59        60       FIXPVA
         60        60       FIXPVA
         61        60       FIXPVA
         62        60       FIXPVA
         63        60       FIXPVA
         64        60       FIXPVA
         65        60       FIXPVA
         66        60       FIXPVA
         67        60       FIXPVA
         68        60       FIXPVA
         69        60       FIXPVA
         70        60       FIXPVA
         71        60       FIXPVA
         72        60       FIXPVA
         73        60       FIXPVA
         74        60       FIXPVA
         75        60       FIXPVA
         76        60       FIXPVA
         77        60       FIXPVA
         78        60       FIXPVA
         79        60       FIXPVA
         80        60       FIXPVA
         81        60       FIXPVA
         82        60       FIXPVA
         83        60       FIXPVA
         84        60       FIXPVA
         85        60       FIXPVA
         86        60       FIXPVA
         87        60       FIXPVA
         88        60       FIXPVA
         89        60       FIXPVA
         90        60       FIXPVA
         91        60       FIXPVA
         92        60       FIXPVA
         93        60       FIXPVA
         94        60       FIXPVA
         95        60       FIXPVA
         96        60       FIXPVA
         97        60       FIXPVA
         98        60       FIXPVA
         99        60       FIXPVA
        100        60       FIXPVA
        101        60       FIXPVA
        102        60       FIXPVA
        103        60       FIXPVA
        104        60       FIXPVA
        105        60       FIXPVA
        106        60       FIXPVA
        107        60       FIXPVA
        108        60       FIXPVA
        109        60       FIXPVA
        110        60       FIXPVA
        111        60       FIXPVA
        112        60       FIXPVA
        113        60       FIXPVA
        114        60       FIXPVA
        115        60       FIXPVA
        116        60       FIXPVA
        117        60       FIXPVA
        118        60       FIXPVA
        119        60       FIXPVA
        120        60       FIXPVA
        121        60       FIXPVA
        122        60       FIXPVA
        123        60       FIXPVA
        124        60       FIXPVA
        125        60       FIXPVA
        126        60       FIXPVA
        127        60       FIXPVA
        128        60       FIXPVA
        129        60       FIXPVA
        130        60       FIXPVA
        131        60       FIXPVA
        132        60       FIXPVA
        133        60       FIXPVA
        134        60       FIXPVA
        135        60       FIXPVA
        136        60       FIXPVA
        137        60       FIXPVA
        138        60       FIXPVA
        139        60       FIXPVA
        140        60       FIXPVA
        141        60       FIXPVA
        142        60       FIXPVA
        143        60       FIXPVA
        144        60       FIXPVA
        145        60       FIXPVA
        146        60       FIXPVA
        147        60       FIXPVA
        148        60       FIXPVA
        149        60       FIXPVA
        150        60       FIXPVA
        151        60       FIXPVA
        152        60       FIXPVA
        153        60       FIXPVA
        154        60       FIXPVA
        155        60       FIXPVA
        156        60       FIXPVA
        157        60       FIXPVA
        158        60       FIXPVA
        159        60       FIXPVA
        160        60       FIXPVA
        161        60       FIXPVA
        162        60       FIXPVA
        163        60       FIXPVA
        164        60       FIXPVA
        165        60       FIXPVA
        166        60       FIXPVA
        167        60       FIXPVA
        168        60       FIXPVA
        169        60       FIXPVA
        170        60       FIXPVA
        171        60       FIXPVA
        172        60       FIXPVA
        173        60       FIXPVA
        174        60       FIXPVA
        175        60       FIXPVA
        176        60       FIXPVA
        177        60       FIXPVA
        178        60       FIXPVA
        179        60       FIXPVA
        180        60       FIXPVA
        181        60       FIXPVA
        182        60       FIXPVA
        183        60       FIXPVA
        184        60       FIXPVA
        185        60       FIXPVA
        186        60       FIXPVA
        187        60       FIXPVA
        188        60       FIXPVA
        189        60       FIXPVA
        190        60       FIXPVA
        191        60       FIXPVA
        192        60       FIXPVA
        193        60       FIXPVA
        194        60       FIXPVA
        195        60       FIXPVA
        196        60       FIXPVA
        197        60       FIXPVA
        198        60       FIXPVA
        199        60       FIXPVA
        200        60       FIXPVA
        201        60       FIXPVA
        202        60       FIXPVA
        203        60       FIXPVA
        204        60       FIXPVA
        205        60       FIXPVA
        206        60       FIXPVA
        207        60       FIXPVA
        208        60       FIXPVA
        209        60       FIXPVA
        210        60       FIXPVA
        211        60       FIXPVA
        212        60       FIXPVA
        213        60       FIXPVA
        214        60       FIXPVA
        215        60       FIXPVA
        216        60       FIXPVA
        217        60       FIXPVA
        218        60       FIXPVA
        219        60       FIXPVA
        220        60       FIXPVA
        221        60       FIXPVA
        222        60       FIXPVA
        223        60       FIXPVA
        224        60       FIXPVA
        225        60       FIXPVA
        226        60       FIXPVA
        227        60       FIXPVA
        228        60       FIXPVA
        229        60       FIXPVA
        230        60       FIXPVA
        231        60       FIXPVA
        232        60       FIXPVA
        233        60       FIXPVA
        234        60       FIXPVA
        235        60       FIXPVA
        236        60       FIXPVA
        237        60       FIXPVA
        238        60       FIXPVA
        239        60       FIXPVA
        240        60       FIXPVA
        241        60       FIXPVA
        242        60       FIXPVA
        243        60       FIXPVA
        244        60       FIXPVA
        245        60       FIXPVA
        246        60       FIXPVA
        247        60       FIXPVA
        248        60       FIXPVA
        249        60       FIXPVA
        250        60       FIXPVA
        251        60       FIXPVA
        252        60       FIXPVA
        253        60       FIXPVA
        254        60       FIXPVA
        255        60       FIXPVA
        256        60       FIXPVA

     ------------------------------
      FIXPVA TESSELLATION FOR PCM
         PEIFENG SU AND HUI LI
     UNIVERSITY OF NEBRASKA-LINCOLN
     ------------------------------


 PCM DIMENSIONS: MXSP=   256, MXTS=     10240, MEMORY=        105219

     INPUT FOR CAVITY DEFINITION 
     ---------------------------
   ATOM               COORDINATES                RADIUS       EPS
      1     -0.8630      4.4290     16.0230      0.0100     78.3900
      2     -0.6150      4.8480     15.1780      1.5900     78.3900
      3      0.7600      5.2430     15.3030      1.7700     78.3900
      4      1.3790      4.3460     15.5360      0.0100     78.3900
      5      0.8540      5.9580     16.1520      0.0100     78.3900
      6      1.3130      5.9110     14.0410      1.7700     78.3900
      7      2.3650      6.2360     14.1910      0.0100     78.3900
      8      1.3070      4.9610     12.9360      1.5900     78.3900
      9      0.9640      5.6450     11.7410      1.7700     78.3900
     10      1.7840      5.4430     11.0110      0.0100     78.3900
     11     -0.2970      5.1440     11.1800      1.6800     78.3900
     12     -0.7350      5.3280      9.8980      1.7700     78.3900
     13     -0.2700      6.6450      6.7320      1.6800     78.3900
     14      0.6080      7.1130      6.8200      0.0100     78.3900
     15     -0.7420      6.6450      5.8470      0.0100     78.3900
     16     -0.0960      6.0200      8.9410      1.6800     78.3900
     17     -0.7480      6.0050      7.7820      1.7700     78.3900
     18     -1.9230      5.3260      7.5930      1.6800     78.3900
     19     -2.3460      5.3570      6.6790      0.0100     78.3900
     20     -2.6010      4.5900      8.5560      1.7700     78.3900
     21     -3.6560      4.0050      8.2870      1.5900     78.3900
     22     -1.9280      4.6340      9.8100      1.7700     78.3900
     23     -2.2510      4.0490     11.0310      1.6800     78.3900
     24     -1.2520      4.3820     11.8170      1.7700     78.3900
     25     -1.1450      4.0990     12.8680      0.0100     78.3900
     26      0.9160      7.1190     12.0560      1.7700     78.3900
     27      0.1860      7.6670     11.4260      0.0100     78.3900
     28      2.2050      7.6780     11.8900      1.5900     78.3900
     29      2.1500      8.5850     12.2130      0.0100     78.3900
     30      0.5010      7.1070     13.5220      1.7700     78.3900
     31     -0.5770      6.8420     13.6220      0.0100     78.3900
     32      0.8510      8.2910     14.2660      1.5900     78.3900
     33     -0.1370      9.5130     14.3220      2.1000     78.3900
     34     -1.4510      9.0370     14.8030      1.5900     78.3900
     35      0.5170     10.5840     15.1090      1.5900     78.3900
     36     -0.2690      9.9500     12.8150      1.5900     78.3900
     37      0.7980     10.7050     12.1920      1.7700     78.3900
     38      1.7660     10.1540     12.2200      0.0100     78.3900
     39      0.9610     11.6700     12.7280      0.0100     78.3900
     40      0.4710     11.0410     10.7350      1.7700     78.3900
     41      1.3160     11.5930     10.2610      0.0100     78.3900
     42      0.2400      9.8370      9.9540      1.5900     78.3900
     43     -0.7820     10.0940      8.9970      1.7700     78.3900
     44     -0.3150      9.9110      8.0010      0.0100     78.3900
     45     -1.9590      9.1890      9.1500      1.6800     78.3900
     46     -2.1940      8.5690     10.3570      1.7700     78.3900
     47     -1.4710      8.7740     11.1460      0.0100     78.3900
     48     -3.2240      7.7300     10.5230      1.7700     78.3900
     49     -3.3940      7.1950     11.4550      0.0100     78.3900
     50     -2.8520      9.0020      8.0960      1.7700     78.3900
     51     -2.6770      9.6150      7.0320      1.5900     78.3900
     52     -3.8910      8.1500      8.2430      1.6800     78.3900
     53     -4.0930      7.5210      9.4140      1.7700     78.3900
     54     -5.1160      6.6790      9.5250      1.6800     78.3900
     55     -5.7160      6.5240      8.7370      0.0100     78.3900
     56     -5.2700      6.1380     10.3510      0.0100     78.3900
     57     -1.1490     11.5650      9.1050      1.7700     78.3900
     58     -2.2250     11.7450      8.9120      0.0100     78.3900
     59     -0.3610     12.3380      8.2190      1.5900     78.3900
     60     -0.5780     13.2630      8.3900      0.0100     78.3900
     61     -0.8020     11.8640     10.5550      1.7700     78.3900
     62     -1.5720     11.4090     11.2240      0.0100     78.3900
     63     -0.5190     13.2500     10.8400      1.5900     78.3900
     64     -1.5300     14.1240     11.6640      2.1000     78.3900
     65     -2.3320     13.2540     12.5470      1.5900     78.3900
     66     -0.7690     15.2130     12.3180      1.5900     78.3900
     67     -2.4390     14.7180     10.5400      1.5900     78.3900
     68     -2.0250     15.6550      9.5430      1.7700     78.3900
     69     -2.2470     15.2140      8.5480      0.0100     78.3900
     70     -0.9320     15.8720      9.5770      0.0100     78.3900
     71     -2.8040     16.9690      9.6710      1.7700     78.3900
     72     -2.4760     17.5430     10.5640      0.0100     78.3900
     73     -2.5010     17.7640      8.4860      1.5900     78.3900
     74     -3.6840     18.3990      8.0090      1.7700     78.3900
     75     -3.4290     19.4790      7.9220      0.0100     78.3900
     76     -4.1120     17.8910      6.6700      1.6800     78.3900
     77     -3.4450     16.8510      6.0550      1.7700     78.3900
     78     -2.6170     16.4090      6.6160      0.0100     78.3900
     79     -5.1370     18.5470      6.0140      1.7700     78.3900
     80     -5.7210     19.5140      6.4940      1.5900     78.3900
     81     -5.4500     18.0510      4.7740      1.6800     78.3900
     82     -6.2160     18.5100      4.2990      0.0100     78.3900
     83     -4.8170     17.0290      4.0980      1.7700     78.3900
     84     -5.1720     16.7190      2.9600      1.5900     78.3900
     85     -3.7470     16.4200      4.8230      1.7700     78.3900
     86     -3.1760     15.6370      4.3370      0.0100     78.3900
     87     -4.7380     18.2190      9.0850      1.7700     78.3900
     88     -5.7670     18.1620      8.6720      0.0100     78.3900
     89     -4.6610     19.2830     10.0200      1.5900     78.3900
     90     -5.2260     19.0520     10.7760      0.0100     78.3900
     91     -4.3400     16.8830      9.6990      1.7700     78.3900
     92     -4.6240     16.0460      9.0210      0.0100     78.3900
     93     -4.8180     16.7140     11.0460      1.5900     78.3900
     94     -5.8140     15.5740     11.4610      2.1000     78.3900
     95     -5.9150     15.5760     12.9400      1.5900     78.3900
     96     -7.0910     15.8030     10.7500      1.5900     78.3900
     97     -5.1350     14.2320     11.0120      1.5900     78.3900
     98     -5.7570     12.9470     11.1600      1.7700     78.3900
     99     -6.0890     12.7770     12.2130      0.0100     78.3900
    100     -4.9900     12.1730     10.9400      0.0100     78.3900
    101     -6.9440     12.7820     10.1950      1.7700     78.3900
    102     -7.8300     13.2870     10.6340      0.0100     78.3900
    103     -6.6820     13.3910      8.8900      1.5900     78.3900
    104     -6.4060     12.3960      7.9410      1.7700     78.3900
    105     -7.2800     12.4030      7.2510      0.0100     78.3900
    106     -5.1750     12.7080      7.2220      1.6800     78.3900
    107     -3.7120     13.0470      5.6240      1.7700     78.3900
    108     -3.0710     13.3770      6.8120      1.6800     78.3900
    109     -3.9820     13.1620      7.7330      1.7700     78.3900
    110     -3.8440     13.3250      8.8080      0.0100     78.3900
    111     -4.2100     12.7410      3.3240      1.6800     78.3900
    112     -5.4470     12.4210      3.7150      1.7700     78.3900
    113     -6.1520     12.1740      2.9140      0.0100     78.3900
    114     -5.9450     12.3360      4.9500      1.6800     78.3900
    115     -5.0140     12.6560      5.8650      1.7700     78.3900
    116     -3.2970     13.0690      4.2740      1.7700     78.3900
    117     -2.0550     13.4070      3.8860      1.6800     78.3900
    118     -1.3300     13.6180      4.5450      0.0100     78.3900
    119     -1.8190     13.4050      2.9110      0.0100     78.3900
    120     -6.3560     11.0690      8.6660      1.7700     78.3900
    121     -5.3280     10.8600      9.0410      0.0100     78.3900
    122     -6.8000     10.0060      7.8500      1.5900     78.3900
    123     -7.7170      9.7800      8.1180      0.0100     78.3900
    124     -7.3010     11.3390      9.8470      1.7700     78.3900
    125     -7.0010     10.7080     10.7170      0.0100     78.3900
    126     -8.7210     11.2280      9.5620      1.5900     78.3900
    127     -9.4780      9.8840      9.8320      2.1000     78.3900
    128     -9.1010      8.9710      8.7340      1.5900     78.3900
    129     -9.2170      9.4500     11.2200      1.5900     78.3900
    130    -11.0040     10.2580      9.7150      1.5900     78.3900
    131    -11.8920      9.4260      8.9260      1.7700     78.3900
    132    -11.9820      8.4080      9.3730      0.0100     78.3900
    133    -11.4960      9.3120      7.8890      0.0100     78.3900
    134    -13.3100     10.0170      8.8160      1.7700     78.3900
    135    -13.8840      9.8580      9.7540      0.0100     78.3900
    136    -13.2420     11.4540      8.6030      1.5900     78.3900
    137    -14.2010     11.8410      7.6410      1.7700     78.3900
    138    -14.8040     12.6540      8.1060      0.0100     78.3900
    139    -13.5410     12.3570      6.4390      1.6800     78.3900
    140    -13.1410     13.3430      4.5180      1.7700     78.3900
    141    -11.9170     12.8700      4.9720      1.6800     78.3900
    142    -12.2050     12.3000      6.1140      1.7700     78.3900
    143    -11.4810     11.8170      6.7770      0.0100     78.3900
    144    -14.8310     14.3670      3.2080      1.6800     78.3900
    145    -15.6880     13.9800      4.1590      1.7700     78.3900
    146    -16.7330     14.2550      3.9860      0.0100     78.3900
    147    -15.4500     13.3370      5.3070      1.6800     78.3900
    148    -14.1470     13.0330      5.4150      1.7700     78.3900
    149    -13.5140     14.0660      3.3650      1.7700     78.3900
    150    -12.6340     14.4740      2.4320      1.6800     78.3900
    151    -11.6540     14.2720      2.4940      0.0100     78.3900
    152    -12.9650     14.9700      1.6280      0.0100     78.3900
    153    -15.0900     10.6420      7.3660      1.7700     78.3900
    154    -15.4660     10.6220      6.3200      0.0100     78.3900
    155    -16.1790     10.6210      8.2750      1.5900     78.3900
    156    -16.6440      9.7760      8.1610      0.0100     78.3900
    157    -14.1240      9.4910      7.6210      1.7700     78.3900
    158    -13.4130      9.3910      6.7680      0.0100     78.3900
    159    -14.7420      8.2360      7.9650      1.5900     78.3900
    160    -15.4430      7.3360      6.8790      2.1000     78.3900
    161    -14.9700      5.9520      7.0760      1.5900     78.3900
    162    -16.9070      7.5470      6.9380      1.5900     78.3900
    163    -14.9210      7.8560      5.4990      1.5900     78.3900
    164    -14.4830      6.9560      4.4530      1.7700     78.3900
    165    -15.2320      6.1520      4.2630      0.0100     78.3900
    166    -13.5340      6.4630      4.7680      0.0100     78.3900
    167    -14.2170      7.6920      3.1170      1.7700     78.3900
    168    -15.1450      7.7600      2.5100      0.0100     78.3900
    169    -13.7970      9.0680      3.3850      1.5900     78.3900
    170    -12.7400      9.4250      2.5300      1.7700     78.3900
    171    -13.0720     10.3690      2.0360      0.0100     78.3900
    172    -11.4760      9.6670      3.2760      1.6800     78.3900
    173    -11.2200      8.9890      4.4490      1.7700     78.3900
    174    -11.9900      8.2880      4.7790      0.0100     78.3900
    175    -10.1020      9.2140      5.1510      1.7700     78.3900
    176     -9.8870      8.7110      6.0920      0.0100     78.3900
    177    -10.5430     10.5750      2.7820      1.7700     78.3900
    178    -10.7870     11.1700      1.7210      1.5900     78.3900
    179     -9.3990     10.7990      3.4700      1.6800     78.3900
    180     -9.1810     10.1700      4.6350      1.7700     78.3900
    181     -8.0890     10.4590      5.3250      1.6800     78.3900
    182     -7.4300     11.1280      4.9640      0.0100     78.3900
    183     -7.8220      9.9940      6.1690      0.0100     78.3900
    184    -12.6160      8.3410      1.4800      1.7700     78.3900
    185    -11.5800      8.2360      1.1190      0.0100     78.3900
    186    -13.4590      8.6200      0.3810      1.5900     78.3900
    187    -13.4450      7.8420     -0.1990      0.0100     78.3900
    188    -13.0810      7.1030      2.2480      1.7700     78.3900
    189    -12.2800      6.7720      2.9480      0.0100     78.3900
    190    -13.5820      6.0200      1.4200      1.5900     78.3900
    191    -12.5520      4.9550      0.8620      2.1000     78.3900
    192    -11.8150      4.4240      2.0320      1.5900     78.3900
    193    -13.2840      3.9640      0.0400      1.5900     78.3900
    194    -11.5750      5.7480     -0.0830      1.5900     78.3900
    195    -10.2040      5.3090     -0.2790      1.7700     78.3900
    196    -10.0920      4.8540     -1.2890      0.0100     78.3900
    197     -9.8860      4.5380      0.4620      0.0100     78.3900
    198     -9.2110      6.4740     -0.1510      1.7700     78.3900
    199     -9.3020      7.1600     -1.0180      0.0100     78.3900
    200     -9.5160      7.2400      1.0390      1.5900     78.3900
    201     -8.3300      7.6920      1.6490      1.7700     78.3900
    202     -8.4170      8.7990      1.7400      0.0100     78.3900
    203     -8.1920      7.1040      2.9880      1.6800     78.3900
    204     -7.2250      7.4070      3.9030      1.7700     78.3900
    205     -4.4290      9.2230      4.8240      1.6800     78.3900
    206     -4.2580      9.7830      4.0200      0.0100     78.3900
    207     -3.8560      9.3280      5.6410      0.0100     78.3900
    208     -6.2160      8.2760      3.7230      1.6800     78.3900
    209     -5.4600      8.3990      4.8070      1.7700     78.3900
    210     -5.6760      7.6940      5.9610      1.6800     78.3900
    211     -5.0800      7.8870      6.7510      0.0100     78.3900
    212     -6.7130      6.7960      6.1800      1.7700     78.3900
    213     -6.8440      6.2000      7.2540      1.5900     78.3900
    214     -7.5220      6.6490      5.0220      1.7700     78.3900
    215     -8.6500      5.8630      4.8060      1.6800     78.3900
    216     -9.0180      6.1680      3.5830      1.7700     78.3900
    217     -9.8800      5.7500      3.0530      0.0100     78.3900
    218     -7.1850      7.3370      0.7250      1.7700     78.3900
    219     -6.2420      7.1180      1.2680      0.0100     78.3900
    220     -6.9690      8.3900     -0.1960      1.5900     78.3900
    221     -6.3480      8.0690     -0.8640      0.0100     78.3900
    222     -7.7380      6.0920      0.0400      1.7700     78.3900
    223     -7.7350      5.2420      0.7650      0.0100     78.3900
    224     -7.1310      5.7830     -1.2360      1.5900     78.3900
    225     -6.1650      4.5450     -1.3370      2.1000     78.3900
    226     -6.6760      3.4550     -0.4770      1.5900     78.3900
    227     -5.9230      4.2120     -2.7590      1.5900     78.3900
    228     -4.8310      5.1050     -0.7180      1.5900     78.3900
    229     -4.1020      6.1380     -1.4260      1.7700     78.3900
    230     -4.7470      7.0280     -1.6060      0.0100     78.3900
    231     -3.7470      5.7570     -2.4170      0.0100     78.3900
    232     -2.8760      6.6100     -0.6290      1.7700     78.3900
    233     -2.2780      7.3390     -1.2150      0.0100     78.3900
    234     -3.3090      7.2890      0.5870      1.5900     78.3900
    235     -2.4400      6.9330      1.6560      1.7700     78.3900
    236     -2.0510      7.8940      2.0650      0.0100     78.3900
    237     -3.1390      6.1900      2.7420      1.6800     78.3900
    238     -4.3280      5.5470      2.4850      1.7700     78.3900
    239     -4.7230      5.6580      1.4770      0.0100     78.3900
    240     -4.9760      4.8650      3.4360      1.7700     78.3900
    241     -5.9280      4.3720      3.2520      0.0100     78.3900
    242     -2.5730      6.1040      4.0100      1.7700     78.3900
    243     -1.4800      6.6500      4.2230      1.5900     78.3900
    244     -3.2150      5.4220      4.9860      1.6800     78.3900
    245     -4.3800      4.8030      4.7260      1.7700     78.3900
    246     -4.9950      4.1420      5.7030      1.6800     78.3900
    247     -4.5940      4.1320      6.6230      0.0100     78.3900
    248     -5.8760      3.6870      5.5640      0.0100     78.3900
    249     -1.2780      6.1480      1.0650      1.7700     78.3900
    250     -0.8930      5.3780      1.7670      0.0100     78.3900
    251     -0.2330      7.0350      0.6950      1.5900     78.3900
    252      0.4260      6.5450      0.1710      0.0100     78.3900
    253     -1.9390      5.4970     -0.1440      1.7700     78.3900
    254     -2.5630      4.6340      0.1710      0.0100     78.3900
    255     -1.0250      5.1070     -1.1840      1.5900     78.3900
    256     -0.4260      4.4130     -0.8530      0.0100     78.3900

 CREATION OF A NEW CAVITY WITH THE ORIGINAL SPHERE
 SIZES FOR THE COMPUTATION OF THE CAVITATION ENERGY.

     INPUT FOR CAVITY DEFINITION 
     ---------------------------
   ATOM               COORDINATES                RADIUS       EPS
      1     -0.8630      4.4290     16.0230      0.0100     78.3900
      2     -0.6150      4.8480     15.1780      1.5900     78.3900
      3      0.7600      5.2430     15.3030      1.7700     78.3900
      4      1.3790      4.3460     15.5360      0.0100     78.3900
      5      0.8540      5.9580     16.1520      0.0100     78.3900
      6      1.3130      5.9110     14.0410      1.7700     78.3900
      7      2.3650      6.2360     14.1910      0.0100     78.3900
      8      1.3070      4.9610     12.9360      1.5900     78.3900
      9      0.9640      5.6450     11.7410      1.7700     78.3900
     10      1.7840      5.4430     11.0110      0.0100     78.3900
     11     -0.2970      5.1440     11.1800      1.6800     78.3900
     12     -0.7350      5.3280      9.8980      1.7700     78.3900
     13     -0.2700      6.6450      6.7320      1.6800     78.3900
     14      0.6080      7.1130      6.8200      0.0100     78.3900
     15     -0.7420      6.6450      5.8470      0.0100     78.3900
     16     -0.0960      6.0200      8.9410      1.6800     78.3900
     17     -0.7480      6.0050      7.7820      1.7700     78.3900
     18     -1.9230      5.3260      7.5930      1.6800     78.3900
     19     -2.3460      5.3570      6.6790      0.0100     78.3900
     20     -2.6010      4.5900      8.5560      1.7700     78.3900
     21     -3.6560      4.0050      8.2870      1.5900     78.3900
     22     -1.9280      4.6340      9.8100      1.7700     78.3900
     23     -2.2510      4.0490     11.0310      1.6800     78.3900
     24     -1.2520      4.3820     11.8170      1.7700     78.3900
     25     -1.1450      4.0990     12.8680      0.0100     78.3900
     26      0.9160      7.1190     12.0560      1.7700     78.3900
     27      0.1860      7.6670     11.4260      0.0100     78.3900
     28      2.2050      7.6780     11.8900      1.5900     78.3900
     29      2.1500      8.5850     12.2130      0.0100     78.3900
     30      0.5010      7.1070     13.5220      1.7700     78.3900
     31     -0.5770      6.8420     13.6220      0.0100     78.3900
     32      0.8510      8.2910     14.2660      1.5900     78.3900
     33     -0.1370      9.5130     14.3220      2.1000     78.3900
     34     -1.4510      9.0370     14.8030      1.5900     78.3900
     35      0.5170     10.5840     15.1090      1.5900     78.3900
     36     -0.2690      9.9500     12.8150      1.5900     78.3900
     37      0.7980     10.7050     12.1920      1.7700     78.3900
     38      1.7660     10.1540     12.2200      0.0100     78.3900
     39      0.9610     11.6700     12.7280      0.0100     78.3900
     40      0.4710     11.0410     10.7350      1.7700     78.3900
     41      1.3160     11.5930     10.2610      0.0100     78.3900
     42      0.2400      9.8370      9.9540      1.5900     78.3900
     43     -0.7820     10.0940      8.9970      1.7700     78.3900
     44     -0.3150      9.9110      8.0010      0.0100     78.3900
     45     -1.9590      9.1890      9.1500      1.6800     78.3900
     46     -2.1940      8.5690     10.3570      1.7700     78.3900
     47     -1.4710      8.7740     11.1460      0.0100     78.3900
     48     -3.2240      7.7300     10.5230      1.7700     78.3900
     49     -3.3940      7.1950     11.4550      0.0100     78.3900
     50     -2.8520      9.0020      8.0960      1.7700     78.3900
     51     -2.6770      9.6150      7.0320      1.5900     78.3900
     52     -3.8910      8.1500      8.2430      1.6800     78.3900
     53     -4.0930      7.5210      9.4140      1.7700     78.3900
     54     -5.1160      6.6790      9.5250      1.6800     78.3900
     55     -5.7160      6.5240      8.7370      0.0100     78.3900
     56     -5.2700      6.1380     10.3510      0.0100     78.3900
     57     -1.1490     11.5650      9.1050      1.7700     78.3900
     58     -2.2250     11.7450      8.9120      0.0100     78.3900
     59     -0.3610     12.3380      8.2190      1.5900     78.3900
     60     -0.5780     13.2630      8.3900      0.0100     78.3900
     61     -0.8020     11.8640     10.5550      1.7700     78.3900
     62     -1.5720     11.4090     11.2240      0.0100     78.3900
     63     -0.5190     13.2500     10.8400      1.5900     78.3900
     64     -1.5300     14.1240     11.6640      2.1000     78.3900
     65     -2.3320     13.2540     12.5470      1.5900     78.3900
     66     -0.7690     15.2130     12.3180      1.5900     78.3900
     67     -2.4390     14.7180     10.5400      1.5900     78.3900
     68     -2.0250     15.6550      9.5430      1.7700     78.3900
     69     -2.2470     15.2140      8.5480      0.0100     78.3900
     70     -0.9320     15.8720      9.5770      0.0100     78.3900
     71     -2.8040     16.9690      9.6710      1.7700     78.3900
     72     -2.4760     17.5430     10.5640      0.0100     78.3900
     73     -2.5010     17.7640      8.4860      1.5900     78.3900
     74     -3.6840     18.3990      8.0090      1.7700     78.3900
     75     -3.4290     19.4790      7.9220      0.0100     78.3900
     76     -4.1120     17.8910      6.6700      1.6800     78.3900
     77     -3.4450     16.8510      6.0550      1.7700     78.3900
     78     -2.6170     16.4090      6.6160      0.0100     78.3900
     79     -5.1370     18.5470      6.0140      1.7700     78.3900
     80     -5.7210     19.5140      6.4940      1.5900     78.3900
     81     -5.4500     18.0510      4.7740      1.6800     78.3900
     82     -6.2160     18.5100      4.2990      0.0100     78.3900
     83     -4.8170     17.0290      4.0980      1.7700     78.3900
     84     -5.1720     16.7190      2.9600      1.5900     78.3900
     85     -3.7470     16.4200      4.8230      1.7700     78.3900
     86     -3.1760     15.6370      4.3370      0.0100     78.3900
     87     -4.7380     18.2190      9.0850      1.7700     78.3900
     88     -5.7670     18.1620      8.6720      0.0100     78.3900
     89     -4.6610     19.2830     10.0200      1.5900     78.3900
     90     -5.2260     19.0520     10.7760      0.0100     78.3900
     91     -4.3400     16.8830      9.6990      1.7700     78.3900
     92     -4.6240     16.0460      9.0210      0.0100     78.3900
     93     -4.8180     16.7140     11.0460      1.5900     78.3900
     94     -5.8140     15.5740     11.4610      2.1000     78.3900
     95     -5.9150     15.5760     12.9400      1.5900     78.3900
     96     -7.0910     15.8030     10.7500      1.5900     78.3900
     97     -5.1350     14.2320     11.0120      1.5900     78.3900
     98     -5.7570     12.9470     11.1600      1.7700     78.3900
     99     -6.0890     12.7770     12.2130      0.0100     78.3900
    100     -4.9900     12.1730     10.9400      0.0100     78.3900
    101     -6.9440     12.7820     10.1950      1.7700     78.3900
    102     -7.8300     13.2870     10.6340      0.0100     78.3900
    103     -6.6820     13.3910      8.8900      1.5900     78.3900
    104     -6.4060     12.3960      7.9410      1.7700     78.3900
    105     -7.2800     12.4030      7.2510      0.0100     78.3900
    106     -5.1750     12.7080      7.2220      1.6800     78.3900
    107     -3.7120     13.0470      5.6240      1.7700     78.3900
    108     -3.0710     13.3770      6.8120      1.6800     78.3900
    109     -3.9820     13.1620      7.7330      1.7700     78.3900
    110     -3.8440     13.3250      8.8080      0.0100     78.3900
    111     -4.2100     12.7410      3.3240      1.6800     78.3900
    112     -5.4470     12.4210      3.7150      1.7700     78.3900
    113     -6.1520     12.1740      2.9140      0.0100     78.3900
    114     -5.9450     12.3360      4.9500      1.6800     78.3900
    115     -5.0140     12.6560      5.8650      1.7700     78.3900
    116     -3.2970     13.0690      4.2740      1.7700     78.3900
    117     -2.0550     13.4070      3.8860      1.6800     78.3900
    118     -1.3300     13.6180      4.5450      0.0100     78.3900
    119     -1.8190     13.4050      2.9110      0.0100     78.3900
    120     -6.3560     11.0690      8.6660      1.7700     78.3900
    121     -5.3280     10.8600      9.0410      0.0100     78.3900
    122     -6.8000     10.0060      7.8500      1.5900     78.3900
    123     -7.7170      9.7800      8.1180      0.0100     78.3900
    124     -7.3010     11.3390      9.8470      1.7700     78.3900
    125     -7.0010     10.7080     10.7170      0.0100     78.3900
    126     -8.7210     11.2280      9.5620      1.5900     78.3900
    127     -9.4780      9.8840      9.8320      2.1000     78.3900
    128     -9.1010      8.9710      8.7340      1.5900     78.3900
    129     -9.2170      9.4500     11.2200      1.5900     78.3900
    130    -11.0040     10.2580      9.7150      1.5900     78.3900
    131    -11.8920      9.4260      8.9260      1.7700     78.3900
    132    -11.9820      8.4080      9.3730      0.0100     78.3900
    133    -11.4960      9.3120      7.8890      0.0100     78.3900
    134    -13.3100     10.0170      8.8160      1.7700     78.3900
    135    -13.8840      9.8580      9.7540      0.0100     78.3900
    136    -13.2420     11.4540      8.6030      1.5900     78.3900
    137    -14.2010     11.8410      7.6410      1.7700     78.3900
    138    -14.8040     12.6540      8.1060      0.0100     78.3900
    139    -13.5410     12.3570      6.4390      1.6800     78.3900
    140    -13.1410     13.3430      4.5180      1.7700     78.3900
    141    -11.9170     12.8700      4.9720      1.6800     78.3900
    142    -12.2050     12.3000      6.1140      1.7700     78.3900
    143    -11.4810     11.8170      6.7770      0.0100     78.3900
    144    -14.8310     14.3670      3.2080      1.6800     78.3900
    145    -15.6880     13.9800      4.1590      1.7700     78.3900
    146    -16.7330     14.2550      3.9860      0.0100     78.3900
    147    -15.4500     13.3370      5.3070      1.6800     78.3900
    148    -14.1470     13.0330      5.4150      1.7700     78.3900
    149    -13.5140     14.0660      3.3650      1.7700     78.3900
    150    -12.6340     14.4740      2.4320      1.6800     78.3900
    151    -11.6540     14.2720      2.4940      0.0100     78.3900
    152    -12.9650     14.9700      1.6280      0.0100     78.3900
    153    -15.0900     10.6420      7.3660      1.7700     78.3900
    154    -15.4660     10.6220      6.3200      0.0100     78.3900
    155    -16.1790     10.6210      8.2750      1.5900     78.3900
    156    -16.6440      9.7760      8.1610      0.0100     78.3900
    157    -14.1240      9.4910      7.6210      1.7700     78.3900
    158    -13.4130      9.3910      6.7680      0.0100     78.3900
    159    -14.7420      8.2360      7.9650      1.5900     78.3900
    160    -15.4430      7.3360      6.8790      2.1000     78.3900
    161    -14.9700      5.9520      7.0760      1.5900     78.3900
    162    -16.9070      7.5470      6.9380      1.5900     78.3900
    163    -14.9210      7.8560      5.4990      1.5900     78.3900
    164    -14.4830      6.9560      4.4530      1.7700     78.3900
    165    -15.2320      6.1520      4.2630      0.0100     78.3900
    166    -13.5340      6.4630      4.7680      0.0100     78.3900
    167    -14.2170      7.6920      3.1170      1.7700     78.3900
    168    -15.1450      7.7600      2.5100      0.0100     78.3900
    169    -13.7970      9.0680      3.3850      1.5900     78.3900
    170    -12.7400      9.4250      2.5300      1.7700     78.3900
    171    -13.0720     10.3690      2.0360      0.0100     78.3900
    172    -11.4760      9.6670      3.2760      1.6800     78.3900
    173    -11.2200      8.9890      4.4490      1.7700     78.3900
    174    -11.9900      8.2880      4.7790      0.0100     78.3900
    175    -10.1020      9.2140      5.1510      1.7700     78.3900
    176     -9.8870      8.7110      6.0920      0.0100     78.3900
    177    -10.5430     10.5750      2.7820      1.7700     78.3900
    178    -10.7870     11.1700      1.7210      1.5900     78.3900
    179     -9.3990     10.7990      3.4700      1.6800     78.3900
    180     -9.1810     10.1700      4.6350      1.7700     78.3900
    181     -8.0890     10.4590      5.3250      1.6800     78.3900
    182     -7.4300     11.1280      4.9640      0.0100     78.3900
    183     -7.8220      9.9940      6.1690      0.0100     78.3900
    184    -12.6160      8.3410      1.4800      1.7700     78.3900
    185    -11.5800      8.2360      1.1190      0.0100     78.3900
    186    -13.4590      8.6200      0.3810      1.5900     78.3900
    187    -13.4450      7.8420     -0.1990      0.0100     78.3900
    188    -13.0810      7.1030      2.2480      1.7700     78.3900
    189    -12.2800      6.7720      2.9480      0.0100     78.3900
    190    -13.5820      6.0200      1.4200      1.5900     78.3900
    191    -12.5520      4.9550      0.8620      2.1000     78.3900
    192    -11.8150      4.4240      2.0320      1.5900     78.3900
    193    -13.2840      3.9640      0.0400      1.5900     78.3900
    194    -11.5750      5.7480     -0.0830      1.5900     78.3900
    195    -10.2040      5.3090     -0.2790      1.7700     78.3900
    196    -10.0920      4.8540     -1.2890      0.0100     78.3900
    197     -9.8860      4.5380      0.4620      0.0100     78.3900
    198     -9.2110      6.4740     -0.1510      1.7700     78.3900
    199     -9.3020      7.1600     -1.0180      0.0100     78.3900
    200     -9.5160      7.2400      1.0390      1.5900     78.3900
    201     -8.3300      7.6920      1.6490      1.7700     78.3900
    202     -8.4170      8.7990      1.7400      0.0100     78.3900
    203     -8.1920      7.1040      2.9880      1.6800     78.3900
    204     -7.2250      7.4070      3.9030      1.7700     78.3900
    205     -4.4290      9.2230      4.8240      1.6800     78.3900
    206     -4.2580      9.7830      4.0200      0.0100     78.3900
    207     -3.8560      9.3280      5.6410      0.0100     78.3900
    208     -6.2160      8.2760      3.7230      1.6800     78.3900
    209     -5.4600      8.3990      4.8070      1.7700     78.3900
    210     -5.6760      7.6940      5.9610      1.6800     78.3900
[...]
   241  -5.928000000   4.372000000   3.252000000   0.012000000   0.000000000
   242  -2.573000000   6.104000000   4.010000000   2.124000000   2.342903431
   243  -1.480000000   6.650000000   4.223000000   1.908000000  10.217130323
   244  -3.215000000   5.422000000   4.986000000   2.016000000   1.707418449
   245  -4.380000000   4.803000000   4.726000000   2.124000000   1.432126726
   246  -4.995000000   4.142000000   5.703000000   2.016000000  12.575626349
   247  -4.594000000   4.132000000   6.623000000   0.012000000   0.000000000
   248  -5.876000000   3.687000000   5.564000000   0.012000000   0.000000000
   249  -1.278000000   6.148000000   1.065000000   2.124000000   7.373218549
   250  -0.893000000   5.378000000   1.767000000   0.012000000   0.000000000
   251  -0.233000000   7.035000000   0.695000000   1.908000000  20.032560306
   252   0.426000000   6.545000000   0.171000000   0.012000000   0.000000000
   253  -1.939000000   5.497000000  -0.144000000   2.124000000   5.130360350
   254  -2.563000000   4.634000000   0.171000000   0.012000000   0.000000000
   255  -1.025000000   5.107000000  -1.184000000   1.908000000  22.592928812
   256  -0.426000000   4.413000000  -0.853000000   0.012000000   0.000000000

 TOTAL NUMBER OF TESSERAE=    1848
 SURFACE AREA=  1120.07314981(A**2)    CAVITY VOLUME=   1940.58576950 (A**3)
 CPU     0: STEP CPU TIME=     0.01 TOTAL CPU TIME=          0.2 (      0.0 MIN)
 TOTAL WALL CLOCK TIME=          0.3 SECONDS, CPU UTILIZATION IS    54.84%

          THE SOLUTE IS ENCLOSED IN ONE CAVITY
 DONE CHECKING SEPARATION.
 CPU     0: STEP CPU TIME=     0.01 TOTAL CPU TIME=          0.2 (      0.0 MIN)
 TOTAL WALL CLOCK TIME=          0.3 SECONDS, CPU UTILIZATION IS    56.25%

 You did not provide any valid data (r0bda/e0bda) for BDA corrections.

 Initialising fragments
 CPU     0: STEP CPU TIME=     0.00 TOTAL CPU TIME=          0.2 (      0.0 MIN)
 TOTAL WALL CLOCK TIME=          0.3 SECONDS, CPU UTILIZATION IS    54.55%
 CPU     0: STEP CPU TIME=     0.00 TOTAL CPU TIME=          0.2 (      0.0 MIN)
 TOTAL WALL CLOCK TIME=          0.3 SECONDS, CPU UTILIZATION IS    54.55%

 -----------------------------------------------------------------------
                  The Fragment Molecular Orbital (FMO) method.
                       The program is developed at the
                     Nanoscience Research Institute (NRI)
     (formerly, Research Institute for Computational Sciences, RICS)
 National Institute of Advanced Industrial Science and Technology (AIST)
     AIST Tsukuba Central 2, Umezono 1-1-1, Tsukuba, 305-8568, Japan.

                         Version 5.3
                    coded by D. G. Fedorov and K. Kitaura,
 with contributions from N. Asada, K.R. Brorsen, M. Chiba, C. Choi, N. Minezawa,
 T. Nagata, H. Nakata, Y. Nishimoto, S.R. Pruitt, C. Steinmann, and F. Zahariev.
       All publications using the FMO method in GAMESS should reference:
          D. G. Fedorov, K. Kitaura, J. Chem. Phys. 120, 6832 (2004).
 -----------------------------------------------------------------------

 Used memory (words):      5554715
 Number of fragments:      8
 Number of layers:         1
 N-body FMO method:        2
 Number of atoms:        256
 Total charge:            -7
 Total spin multiplicity:  1
 Number of basis sets:     1
 Number of LMO types:      2
 Number of boundaries:     7
 MonomerSCF convergence:   0.1000E-06
 Max monomerSCF iter:     30
 MonomerSCF criterion:     internal
 Max AOs per n-mer:      403      789
 Projection operator constant:  0.10E+07
 Layer electron correlation information
     nbody=  2
    SCFTYP=RHF     
    MPLEVL=  2
    DFTTYP=NONE    
     CITYP=NONE    
     CCTYP=NONE    
     TDDFT=NONE    
 FMO method: FMO2-MP2/PCM<1>

 Bond fragmentation scheme: HOP

 FMO approximations.
    Using point charge approximation for the 2e ESP with the VdW factor   2.00
    Using ES-dimer approximation with the VdW factor   2.00
    No dynamic correlation for dimers with the VdW factor    2.00
    The uniform distances will be used in ESPs.
    Van der Waals radii in Angstrom are:
       R(H  )=  1.2000
       R(O  )=  1.4000
       R(C  )=  1.5000
       R(N  )=  1.5000
       R(P  )=  1.8000

 FMO initial guess options.
    Using monomer density to form dimer guess.

 FMO extensions.

 FMO automation options.

 FMO SCF converger options.
    SCF convergers:
    833    833    833    833    833    833    833    833    833    833
    Fragment orbitals will be exchanged.

 FMO parallelisation options.
    Smart parallel load balancing: large jobs first.
    ESPs will be shell parallelised.
    Broadcast all fragments at once.
    Do the fragment initialisation in the reverse order.
    Layer 1, monomer(SCF,MP2,MCSCF) groups are:    1    0    0
    Layer 1,   dimer(SCF,ESD,MCSCF) groups are:    1    0    0

 FMO properties and print-out level.
    Interfragment CT method:    4
       Compact print-out level.
    Atomic charges will be printed.
    Pair interaction energy decomposition analysis (PIEDA) will be done (PL only).

 Array dimensions maxbnd,maxknd,maxcbs,maxcao,maxbbd are:
                      10     10     19      5     19

 --------------------------------------------------




 Starting layer 1 nbody=2
 SCFTYP=RHF     MPLEVL=2 DFTTYP=NONE    CITYP=NONE    CCTYP=NONE    TDDFT=NONE    


 CPU     0: STEP CPU TIME=     0.00 TOTAL CPU TIME=          0.2 (      0.0 MIN)
 TOTAL WALL CLOCK TIME=          0.3 SECONDS, CPU UTILIZATION IS    51.43%

 Running initial guess for monomer       8


          -------------
          GUESS OPTIONS
          -------------
          GUESS =HUCKEL            NORB  =       0          NORDER=       0
          MIX   =       F          PRTMO =       F          PUNMO =       F
          TOLZ  = 1.0E-08          TOLE  = 1.0E-05
          SYMDEN=       F          PURIFY=       F

 INITIAL GUESS ORBITALS GENERATED BY HUCKEL   ROUTINE.
 HUCKEL GUESS REQUIRES    560361 WORDS.

 SYMMETRIES FOR INITIAL GUESS ORBITALS FOLLOW.   BOTH SET(S).
    59 ORBITALS ARE OCCUPIED (   16 CORE ORBITALS).
    17=A       18=A       19=A       20=A       21=A       22=A       23=A   
    24=A       25=A       26=A       27=A       28=A       29=A       30=A   
    31=A       32=A       33=A       34=A       35=A       36=A       37=A   
    38=A       39=A       40=A       41=A       42=A       43=A       44=A   
    45=A       46=A       47=A       48=A       49=A       50=A       51=A   
    52=A       53=A       54=A       55=A       56=A       57=A       58=A   
    59=A       60=A       61=A       62=A       63=A       64=A       65=A   
    66=A       67=A       68=A       69=A   
 ...... END OF INITIAL ORBITAL SELECTION ......
 CPU     0: STEP CPU TIME=     0.08 TOTAL CPU TIME=          0.3 (      0.0 MIN)
 TOTAL WALL CLOCK TIME=          0.6 SECONDS, CPU UTILIZATION IS    45.61%

 Running initial guess for monomer       7


          -------------
          GUESS OPTIONS
          -------------
          GUESS =HUCKEL            NORB  =       0          NORDER=       0
          MIX   =       F          PRTMO =       F          PUNMO =       F
          TOLZ  = 1.0E-08          TOLE  = 1.0E-05
          SYMDEN=       F          PURIFY=       F

 INITIAL GUESS ORBITALS GENERATED BY HUCKEL   ROUTINE.
 HUCKEL GUESS REQUIRES   1174437 WORDS.

 SYMMETRIES FOR INITIAL GUESS ORBITALS FOLLOW.   BOTH SET(S).
    89 ORBITALS ARE OCCUPIED (   27 CORE ORBITALS).
    28=A       29=A       30=A       31=A       32=A       33=A       34=A   
    35=A       36=A       37=A       38=A       39=A       40=A       41=A   
    42=A       43=A       44=A       45=A       46=A       47=A       48=A   
    49=A       50=A       51=A       52=A       53=A       54=A       55=A   
    56=A       57=A       58=A       59=A       60=A       61=A       62=A   
    63=A       64=A       65=A       66=A       67=A       68=A       69=A   
    70=A       71=A       72=A       73=A       74=A       75=A       76=A   
    77=A       78=A       79=A       80=A       81=A       82=A       83=A   
    84=A       85=A       86=A       87=A       88=A       89=A       90=A   
    91=A       92=A       93=A       94=A       95=A       96=A       97=A   
    98=A       99=A   
 ...... END OF INITIAL ORBITAL SELECTION ......
 CPU     0: STEP CPU TIME=     0.23 TOTAL CPU TIME=          0.5 (      0.0 MIN)
 TOTAL WALL CLOCK TIME=          1.1 SECONDS, CPU UTILIZATION IS    43.75%

 Running initial guess for monomer       6


          -------------
          GUESS OPTIONS
          -------------
          GUESS =HUCKEL            NORB  =       0          NORDER=       0
          MIX   =       F          PRTMO =       F          PUNMO =       F
          TOLZ  = 1.0E-08          TOLE  = 1.0E-05
          SYMDEN=       F          PURIFY=       F

 INITIAL GUESS ORBITALS GENERATED BY HUCKEL   ROUTINE.
 HUCKEL GUESS REQUIRES    920598 WORDS.

 SYMMETRIES FOR INITIAL GUESS ORBITALS FOLLOW.   BOTH SET(S).
    79 ORBITALS ARE OCCUPIED (   24 CORE ORBITALS).
    25=A       26=A       27=A       28=A       29=A       30=A       31=A   
    32=A       33=A       34=A       35=A       36=A       37=A       38=A   
    39=A       40=A       41=A       42=A       43=A       44=A       45=A   
    46=A       47=A       48=A       49=A       50=A       51=A       52=A   
    53=A       54=A       55=A       56=A       57=A       58=A       59=A   
    60=A       61=A       62=A       63=A       64=A       65=A       66=A   
    67=A       68=A       69=A       70=A       71=A       72=A       73=A   
    74=A       75=A       76=A       77=A       78=A       79=A       80=A   
    81=A       82=A       83=A       84=A       85=A       86=A       87=A   
    88=A       89=A   
 ...... END OF INITIAL ORBITAL SELECTION ......
 CPU     0: STEP CPU TIME=     0.17 TOTAL CPU TIME=          0.7 (      0.0 MIN)
 TOTAL WALL CLOCK TIME=          1.5 SECONDS, CPU UTILIZATION IS    43.14%

 Running initial guess for monomer       5


          -------------
          GUESS OPTIONS
          -------------
          GUESS =HUCKEL            NORB  =       0          NORDER=       0
          MIX   =       F          PRTMO =       F          PUNMO =       F
          TOLZ  = 1.0E-08          TOLE  = 1.0E-05
          SYMDEN=       F          PURIFY=       F

 INITIAL GUESS ORBITALS GENERATED BY HUCKEL   ROUTINE.
 HUCKEL GUESS REQUIRES   1086374 WORDS.

 SYMMETRIES FOR INITIAL GUESS ORBITALS FOLLOW.   BOTH SET(S).
    85 ORBITALS ARE OCCUPIED (   26 CORE ORBITALS).
    27=A       28=A       29=A       30=A       31=A       32=A       33=A   
    34=A       35=A       36=A       37=A       38=A       39=A       40=A   
    41=A       42=A       43=A       44=A       45=A       46=A       47=A   
    48=A       49=A       50=A       51=A       52=A       53=A       54=A   
    55=A       56=A       57=A       58=A       59=A       60=A       61=A   
    62=A       63=A       64=A       65=A       66=A       67=A       68=A   
    69=A       70=A       71=A       72=A       73=A       74=A       75=A   
    76=A       77=A       78=A       79=A       80=A       81=A       82=A   
    83=A       84=A       85=A       86=A       87=A       88=A       89=A   
    90=A       91=A       92=A       93=A       94=A       95=A   
 ...... END OF INITIAL ORBITAL SELECTION ......
 CPU     0: STEP CPU TIME=     0.19 TOTAL CPU TIME=          0.8 (      0.0 MIN)
 TOTAL WALL CLOCK TIME=          2.0 SECONDS, CPU UTILIZATION IS    41.87%

 Running initial guess for monomer       4


          -------------
          GUESS OPTIONS
          -------------
          GUESS =HUCKEL            NORB  =       0          NORDER=       0
          MIX   =       F          PRTMO =       F          PUNMO =       F
          TOLZ  = 1.0E-08          TOLE  = 1.0E-05
          SYMDEN=       F          PURIFY=       F

 INITIAL GUESS ORBITALS GENERATED BY HUCKEL   ROUTINE.
 HUCKEL GUESS REQUIRES   1086374 WORDS.

 SYMMETRIES FOR INITIAL GUESS ORBITALS FOLLOW.   BOTH SET(S).
    85 ORBITALS ARE OCCUPIED (   26 CORE ORBITALS).
    27=A       28=A       29=A       30=A       31=A       32=A       33=A   
    34=A       35=A       36=A       37=A       38=A       39=A       40=A   
    41=A       42=A       43=A       44=A       45=A       46=A       47=A   
    48=A       49=A       50=A       51=A       52=A       53=A       54=A   
    55=A       56=A       57=A       58=A       59=A       60=A       61=A   
    62=A       63=A       64=A       65=A       66=A       67=A       68=A   
    69=A       70=A       71=A       72=A       73=A       74=A       75=A   
    76=A       77=A       78=A       79=A       80=A       81=A       82=A   
    83=A       84=A       85=A       86=A       87=A       88=A       89=A   
    90=A       91=A       92=A       93=A       94=A       95=A   
 ...... END OF INITIAL ORBITAL SELECTION ......
 CPU     0: STEP CPU TIME=     0.21 TOTAL CPU TIME=          1.1 (      0.0 MIN)
 TOTAL WALL CLOCK TIME=          2.5 SECONDS, CPU UTILIZATION IS    41.90%

 Running initial guess for monomer       3


          -------------
          GUESS OPTIONS
          -------------
          GUESS =HUCKEL            NORB  =       0          NORDER=       0
          MIX   =       F          PRTMO =       F          PUNMO =       F
          TOLZ  = 1.0E-08          TOLE  = 1.0E-05
          SYMDEN=       F          PURIFY=       F

 INITIAL GUESS ORBITALS GENERATED BY HUCKEL   ROUTINE.
 HUCKEL GUESS REQUIRES    909141 WORDS.

 SYMMETRIES FOR INITIAL GUESS ORBITALS FOLLOW.   BOTH SET(S).
    79 ORBITALS ARE OCCUPIED (   24 CORE ORBITALS).
    25=A       26=A       27=A       28=A       29=A       30=A       31=A   
    32=A       33=A       34=A       35=A       36=A       37=A       38=A   
    39=A       40=A       41=A       42=A       43=A       44=A       45=A   
    46=A       47=A       48=A       49=A       50=A       51=A       52=A   
    53=A       54=A       55=A       56=A       57=A       58=A       59=A   
    60=A       61=A       62=A       63=A       64=A       65=A       66=A   
    67=A       68=A       69=A       70=A       71=A       72=A       73=A   
    74=A       75=A       76=A       77=A       78=A       79=A       80=A   
    81=A       82=A       83=A       84=A       85=A       86=A       87=A   
    88=A       89=A   
 ...... END OF INITIAL ORBITAL SELECTION ......
 CPU     0: STEP CPU TIME=     0.16 TOTAL CPU TIME=          1.2 (      0.0 MIN)
 TOTAL WALL CLOCK TIME=          2.9 SECONDS, CPU UTILIZATION IS    41.50%

 Running initial guess for monomer       2


          -------------
          GUESS OPTIONS
          -------------
          GUESS =HUCKEL            NORB  =       0          NORDER=       0
          MIX   =       F          PRTMO =       F          PUNMO =       F
          TOLZ  = 1.0E-08          TOLE  = 1.0E-05
          SYMDEN=       F          PURIFY=       F

 INITIAL GUESS ORBITALS GENERATED BY HUCKEL   ROUTINE.
 HUCKEL GUESS REQUIRES    920598 WORDS.

 SYMMETRIES FOR INITIAL GUESS ORBITALS FOLLOW.   BOTH SET(S).
    79 ORBITALS ARE OCCUPIED (   24 CORE ORBITALS).
    25=A       26=A       27=A       28=A       29=A       30=A       31=A   
    32=A       33=A       34=A       35=A       36=A       37=A       38=A   
    39=A       40=A       41=A       42=A       43=A       44=A       45=A   
    46=A       47=A       48=A       49=A       50=A       51=A       52=A   
    53=A       54=A       55=A       56=A       57=A       58=A       59=A   
    60=A       61=A       62=A       63=A       64=A       65=A       66=A   
    67=A       68=A       69=A       70=A       71=A       72=A       73=A   
    74=A       75=A       76=A       77=A       78=A       79=A       80=A   
    81=A       82=A       83=A       84=A       85=A       86=A       87=A   
    88=A       89=A   
 ...... END OF INITIAL ORBITAL SELECTION ......
 CPU     0: STEP CPU TIME=     0.15 TOTAL CPU TIME=          1.4 (      0.0 MIN)
 TOTAL WALL CLOCK TIME=          3.3 SECONDS, CPU UTILIZATION IS    41.02%

 Running initial guess for monomer       1


          -------------
          GUESS OPTIONS
          -------------
          GUESS =HUCKEL            NORB  =       0          NORDER=       0
          MIX   =       F          PRTMO =       F          PUNMO =       F
          TOLZ  = 1.0E-08          TOLE  = 1.0E-05
          SYMDEN=       F          PURIFY=       F

 INITIAL GUESS ORBITALS GENERATED BY HUCKEL   ROUTINE.
 HUCKEL GUESS REQUIRES   1279373 WORDS.

 SYMMETRIES FOR INITIAL GUESS ORBITALS FOLLOW.   BOTH SET(S).
    94 ORBITALS ARE OCCUPIED (   28 CORE ORBITALS).
    29=A       30=A       31=A       32=A       33=A       34=A       35=A   
    36=A       37=A       38=A       39=A       40=A       41=A       42=A   
    43=A       44=A       45=A       46=A       47=A       48=A       49=A   
    50=A       51=A       52=A       53=A       54=A       55=A       56=A   
    57=A       58=A       59=A       60=A       61=A       62=A       63=A   
    64=A       65=A       66=A       67=A       68=A       69=A       70=A   
    71=A       72=A       73=A       74=A       75=A       76=A       77=A   
    78=A       79=A       80=A       81=A       82=A       83=A       84=A   
    85=A       86=A       87=A       88=A       89=A       90=A       91=A   
    92=A       93=A       94=A       95=A       96=A       97=A       98=A   
    99=A      100=A      101=A      102=A      103=A      104=A   
 ...... END OF INITIAL ORBITAL SELECTION ......
 CPU     0: STEP CPU TIME=     0.26 TOTAL CPU TIME=          1.6 (      0.0 MIN)
 TOTAL WALL CLOCK TIME=          4.0 SECONDS, CPU UTILIZATION IS    41.16%

 There are          12 separated and      16 SCF (      16 of them correlated) dimers.
 Estimate of max dimer size:  789 AOs,  178 occ. MOs

 Fragment statistics

      I  NAME     Q NAT0 NATB NA  NAO LAY MUL SCFTYP        NOP     MOL    CONV
 ==============================================================================
      1 F1       -1   36   1   94  403 1  1 G RHF             0      -1      -1
      2 F2       -1   31   1   79  341 1  1 G RHF             0      -1      -1
      3 F3       -1   30   1   79  339 1  1 G RHF             0      -1      -1
      4 F4       -1   33   1   85  371 1  1 G RHF             0      -1      -1
      5 F5       -1   33   1   85  371 1  1 G RHF             0      -1      -1
      6 F6       -1   31   1   79  341 1  1 G RHF             0      -1      -1
      7 F7       -1   34   1   89  386 1  1 G RHF             0      -1      -1
      8 F8        0   28   0   59  264 1  1 G RHF             0      -1      -1

 Close fragment pairs, distance relative to vdW radii

 CPU     0: STEP CPU TIME=     0.00 TOTAL CPU TIME=          1.6 (      0.0 MIN)
 TOTAL WALL CLOCK TIME=          4.0 SECONDS, CPU UTILIZATION IS    40.95%
 dmexch needs              3031310  words of memory.
 CPU     0: STEP CPU TIME=     0.02 TOTAL CPU TIME=          1.7 (      0.0 MIN)
 TOTAL WALL CLOCK TIME=          4.0 SECONDS, CPU UTILIZATION IS    41.25%

 Data exchange of   1004129 words took     0.0 s.

 RHF      monomer      1 corr= NONE       , L1=   403, L0=   378 ID=      1


 AO spaces for     1     0     0 n-mer: L1=   403, L0=   378

 DIRECT SCF CALCULATION, SCHWRZ=T   FDIFF=T,  DIRTHR=  0.00E+00 NITDIR=10

                                                                                   NONZERO     BLOCKS
 ITER EX DEM     TOTAL ENERGY        E CHANGE  DENSITY CHANGE     ORB. GRAD      INTEGRALS    SKIPPED
   1  0  0   849005.0129190919849005.0129190919   0.527607933   0.000000000     1036983746   21824479
          ---------------START SECOND ORDER SCF---------------
   2  1  0    -1549.9974777097*****************   0.418748000   0.112464388     1043164465   21824647
   3  2  0    -1550.2290245448    -0.2315468351   0.178458622   0.101874019     1035869453   22132410
