‘4A4S_6_fmo_input.inp’ -> ‘/scratch/hazwong/824069/./4A4S_6_fmo_input.inp’
‘rungms’ -> ‘/scratch/hazwong/824069/./rungms’
‘gms-files.csh’ -> ‘/scratch/hazwong/824069/./gms-files.csh’
----- GAMESS execution script 'rungms' -----
This job is running on host gollum087.lsa.umich.edu
under operating system Linux at Sat Dec 7 00:01:51 EST 2019
Available scratch disk space (Kbyte units) at beginning of the job is
Filesystem     1K-blocks  Used Available Use% Mounted on
/dev/sda4      426933580 33424 426900156   1% /scratch
GAMESS temporary binary files will be written to /scratch/hazwong/824069/4A4S_6/usrc
GAMESS supplementary output files will be written to /scratch/hazwong/824069/4A4S_6/src
Copying input file 4A4S_6_fmo_input.inp to your run's scratch directory...
cp 4A4S_6_fmo_input.inp /scratch/hazwong/824069/4A4S_6/usrc/4A4S_6_fmo_input.F05
unset echo
This is a GDDI run, keeping various output files on local disks
setenv OUTPUT /scratch/hazwong/824069/4A4S_6/usrc/4A4S_6_fmo_input.F06
setenv PUNCH /scratch/hazwong/824069/4A4S_6/usrc/4A4S_6_fmo_input.F07
unset echo
 
Assuming a single but multicore node.
 
/export/apps/CentOS7/gamess/src/build//ddikick.x /export/apps/CentOS7/gamess/src/build//gamess.R3.x 4A4S_6_fmo_input -ddi 1 16 gollum087.lsa.umich.edu:cpus=16 -scr /scratch/hazwong/824069/4A4S_6/usrc

 Distributed Data Interface kickoff program.
 Initiating 16 compute processes on 1 nodes to run the following command:
 /export/apps/CentOS7/gamess/src/build//gamess.R3.x 4A4S_6_fmo_input 

          ******************************************************
          *         GAMESS VERSION = 30 SEP 2018 (R3)         *
          *             FROM IOWA STATE UNIVERSITY             *
          * M.W.SCHMIDT, K.K.BALDRIDGE, J.A.BOATZ, S.T.ELBERT, *
          *   M.S.GORDON, J.H.JENSEN, S.KOSEKI, N.MATSUNAGA,   *
          *          K.A.NGUYEN, S.J.SU, T.L.WINDUS,           *
          *       TOGETHER WITH M.DUPUIS, J.A.MONTGOMERY       *
          *         J.COMPUT.CHEM.  14, 1347-1363(1993)        *
          **************** 64 BIT LINUX VERSION ****************

  SINCE 1993, STUDENTS AND POSTDOCS WORKING AT IOWA STATE UNIVERSITY
  AND ALSO IN THEIR VARIOUS JOBS AFTER LEAVING ISU HAVE MADE IMPORTANT
  CONTRIBUTIONS TO THE CODE:
     IVANA ADAMOVIC, CHRISTINE AIKENS, YURI ALEXEEV, POOJA ARORA,
     ANDREY ASADCHEV, ROB BELL, PRADIPTA BANDYOPADHYAY, JONATHAN BENTZ,
     BRETT BODE, KURT BRORSEN, CALEB CARLIN, GALINA CHABAN, WEI CHEN,
     CHEOL HO CHOI, PAUL DAY, ALBERT DEFUSCO, NUWAN DESILVA, TIM DUDLEY,
     DMITRI FEDOROV, ALEX FINDLATER, GRAHAM FLETCHER, MARK FREITAG,
     KURT GLAESEMANN, ANASTASIA GUNINA,
     DAN KEMP, GRANT MERRILL, NORIYUKI MINEZAWA, JONATHAN MULLIN,
     TAKESHI NAGATA, SEAN NEDD, HEATHER NETZLOFF, BOSILJKA NJEGIC, RYAN OLSON,
     MIKE PAK, BUU PHAM,
     SPENCER PRUITT, LUKE ROSKOP, JIM SHOEMAKER, LYUDMILA SLIPCHENKO,
     TONY SMITH, SAROM SOK LEANG, JIE SONG, TETSUYA TAKETSUGU, SIMON WEBB,
     PENG XU, SOOHAENG YOO, FEDERICO ZAHARIEV

  ADDITIONAL CODE HAS BEEN PROVIDED BY COLLABORATORS IN OTHER GROUPS:
     IOWA STATE UNIVERSITY:
          JOE IVANIC, AARON WEST, LAIMUTIS BYTAUTAS, KLAUS RUEDENBERG
     UNIVERSITY OF TOKYO: KIMIHIKO HIRAO, TAKAHITO NAKAJIMA,
          TAKAO TSUNEDA, MUNEAKI KAMIYA, SUSUMU YANAGISAWA,
          KIYOSHI YAGI, MAHITO CHIBA, SEIKEN TOKURA, NAOAKI KAWAKAMI
     UNIVERSITY OF AARHUS: FRANK JENSEN
     UNIVERSITY OF IOWA: VISVALDAS KAIRYS, HUI LI
     NATIONAL INST. OF STANDARDS AND TECHNOLOGY: WALT STEVENS, DAVID GARMER
     UNIVERSITY OF PISA: BENEDETTA MENNUCCI, JACOPO TOMASI
     UNIVERSITY OF MEMPHIS: HENRY KURTZ, PRAKASHAN KORAMBATH
     UNIVERSITY OF ALBERTA: TOBY ZENG, MARIUSZ KLOBUKOWSKI
     UNIVERSITY OF NEW ENGLAND: MARK SPACKMAN
     MIE UNIVERSITY: HIROAKI UMEDA
     NAT. INST. OF ADVANCED INDUSTRIAL SCIENCE AND TECHNOLOGY: KAZUO KITAURA
     MICHIGAN STATE UNIVERSITY:
          KAROL KOWALSKI, MARTA WLOCH, JEFFREY GOUR, JESSE LUTZ,
          WEI LI, JUN SHEN, J. EMILIANO DEUSTUA, PIOTR PIECUCH
     UNIVERSITY OF MINNESOTA:
          YINAN SHU
     UNIVERSITY OF SILESIA: MONIKA MUSIAL, STANISLAW KUCHARSKI
     FACULTES UNIVERSITAIRES NOTRE-DAME DE LA PAIX:
          OLIVIER QUINET, BENOIT CHAMPAGNE
     UNIVERSITY OF CALIFORNIA - SANTA BARBARA: BERNARD KIRTMAN
     INSTITUTE FOR MOLECULAR SCIENCE:
          KAZUYA ISHIMURA, MICHIO KATOUDA, AND SHIGERU NAGASE
     UNIVERSITY OF NOTRE DAME: ANNA POMOGAEVA, DAN CHIPMAN
     KYUSHU UNIVERSITY:
          HARUYUKI NAKANO,
          FENG LONG GU, JACEK KORCHOWIEC, MARCIN MAKOWSKI, AND YURIKO AOKI,
          HIROTOSHI MORI AND EISAKU MIYOSHI
     PENNSYLVANIA STATE UNIVERSITY:
          TZVETELIN IORDANOV, CHET SWALINA, JONATHAN SKONE,
          SHARON HAMMES-SCHIFFER
     WASEDA UNIVERSITY:
          MASATO KOBAYASHI, TOMOKO AKAMA, TSUGUKI TOUMA,
          TAKESHI YOSHIKAWA, YASUHIRO IKABATA, JUNJI SEINO,
          YUYA NAKAJIMA, HIROMI NAKAI
     NANJING UNIVERSITY: SHUHUA LI
     UNIVERSITY OF NEBRASKA:
          PEIFENG SU, DEJUN SI, NANDUN THELLAMUREGE, YALI WANG, HUI LI
     UNIVERSITY OF ZURICH: ROBERTO PEVERATI, KIM BALDRIDGE
     N. COPERNICUS UNIVERSITY AND JACKSON STATE UNIVERSITY:
          MARIA BARYSZ
     UNIVERSITY OF COPENHAGEN: Jimmy Kromann, CASPER STEINMANN
     TOKYO INSTITUTE OF TECHNOLOGY: HIROYA NAKATA
     NAGOYA UNIVERSITY: YOSHIO NISHIMOTO, STEPHAN IRLE
     MOSCOW STATE UNIVERSITY: VLADIMIR MIRONOV


 PARALLEL VERSION RUNNING ON       16 PROCESSORS IN        1 NODES.

 EXECUTION OF GAMESS BEGUN Sat Dec  7 00:01:51 2019

            ECHO OF THE FIRST FEW INPUT CARDS -
 INPUT CARD>!*** FMO 5.3 (Gamess) INPUT generated by Facio 22.1.1.32 ***                    
 INPUT CARD> $CONTRL RUNTYP=ENERGY NPRINT=-5 ISPHER=1 MAXIT=200 $END                        
 INPUT CARD> $SYSTEM MWORDS=63 MEMDDI=63 $END                                               
 INPUT CARD> $GDDI NGROUP=1 $END                                                            
 INPUT CARD> $SCF DIRSCF=.TRUE. NPUNCH=0 $END                                               
 INPUT CARD>!*** NumCPU : 2  MemPerNode : 512MB                                             
 INPUT CARD> $PCM SOLVNT=WATER IEF=-10 ICOMP=2 ICAV=1 IDISP=1 IFMO=-1 $END                  
 INPUT CARD> $PCMCAV RADII=SUAHF $END                                                       
 INPUT CARD> $TESCAV NTSALL=60 $END                                                         
 INPUT CARD> $FMOPRP                                                                        
 INPUT CARD>    NAODIR=200                                                                  
 INPUT CARD>    NGRFMO(1)=1, 1, 0, 0, 0,   0, 0, 0, 0, 0                                    
 INPUT CARD>    IPIEDA=1                                                                    
 INPUT CARD>    NPRINT=9                                                                    
 INPUT CARD> $END                                                                           
 INPUT CARD> $FMO                                                                           
 INPUT CARD>      SCFTYP(1)=RHF                                                             
 INPUT CARD>      MODGRD=10                                                                 
 INPUT CARD>      MODMUL=0                                                                  
 INPUT CARD>      MAXCAO=5                                                                  
 INPUT CARD>      MAXBND=10                                                                 
 INPUT CARD>      NLAYER=1                                                                  
 INPUT CARD>      MPLEVL(1)=2                                                               
 INPUT CARD>      NFRAG=8                                                                   
 INPUT CARD>      ICHARG(1)=-1, -1, -1, -1, -1, -1, -1, 0                                   
 INPUT CARD>      FRGNAM(1)=F1, F2, F3, F4, F5, F6, F7, F8                                  
 INPUT CARD>      indat(1)=0                                                                
 INPUT CARD>               1   -36   0                                                      
 INPUT CARD>               37   -67   0                                                     
 INPUT CARD>               68   -97   0                                                     
 INPUT CARD>               98   -128   0                                                    
 INPUT CARD>               129   -161   0                                                   
 INPUT CARD>               162   -192   0                                                   
 INPUT CARD>               193   -226   0                                                   
 INPUT CARD>               227   -254   0                                                   
 INPUT CARD> $END                                                                           
 INPUT CARD>                                                                                
 INPUT CARD> $FMOBND                                                                        
 INPUT CARD>   -37   36       6-31G*    MINI                                                
 INPUT CARD>   -68   67       6-31G*    MINI                                                
 INPUT CARD>   -98   97       6-31G*    MINI                                                
 INPUT CARD>   -129   128       6-31G*    MINI                                              
 INPUT CARD>   -162   161       6-31G*    MINI                                              
 INPUT CARD>   -193   192       6-31G*    MINI                                              
 INPUT CARD>   -227   226       6-31G*    MINI                                              
 INPUT CARD> $END                                                                           
 INPUT CARD> $FMOHYB                                                                        
 INPUT CARD> 6-31G*      15   5                                                             
 INPUT CARD>   1 0  -0.065034   0.288264   0.000000   0.000000   0.604412                   
 INPUT CARD>         0.290129   0.000000   0.000000   0.319045  -0.017106                   


 -------------------------------------------------------------
 GROUP DDI, PROGRAMMED BY: RYAN M. OLSON AND DMITRI G. FEDOROV
        FEDOROV ET AL., J. COMPUT. CHEM., 25 (2004) 872.
 -------------------------------------------------------------

 -------------------------------------------------------
 GDDI: INITIALIZATION COMPLETED FOR GROUP     1 OF     1
 WITH    16 PROCESSES BALTYP=DLB   global rank=        0
 -------------------------------------------------------

   63000000 WORDS OF MEMORY AVAILABLE


     RUN TITLE
     ---------
  FMO calculation                                                                

 THE POINT GROUP OF THE MOLECULE IS C1      
 THE ORDER OF THE PRINCIPAL AXIS IS     0

 ATOM   ATOMIC CHARGE
 H.1-1       1.0
 O.1-1       8.0
 C.1-1       6.0
 N.1-1       7.0
 P.1-1      15.0

     ATOMIC BASIS SET LIBRARY
     ----------------
 THE CONTRACTED PRIMITIVE FUNCTIONS HAVE BEEN UNNORMALIZED
 THE CONTRACTED BASIS FUNCTIONS ARE NOW NORMALIZED TO UNITY

  SHELL TYPE  PRIMITIVE        EXPONENT          CONTRACTION COEFFICIENT(S)

 H.1-1     

      1   S       1            18.7311370    0.033494604338
      1   S       2             2.8253944    0.234726953484
      1   S       3             0.6401217    0.813757326146

      2   S       4             0.1612778    1.000000000000

 O.1-1     

      3   S       5          5484.6716600    0.001831074430
      3   S       6           825.2349460    0.013950172200
      3   S       7           188.0469580    0.068445078098
      3   S       8            52.9645000    0.232714335992
      3   S       9            16.8975704    0.470192897984
      3   S      10             5.7996353    0.358520852987

      4   L      11            15.5396162   -0.110777549525    0.070874268231
      4   L      12             3.5999336   -0.148026262701    0.339752839147
      4   L      13             1.0137618    1.130767015354    0.727158577316

      5   L      14             0.2700058    1.000000000000    1.000000000000

      6   D      15             0.8000000    1.000000000000

 C.1-1     

      7   S      16          3047.5248800    0.001834737132
      7   S      17           457.3695180    0.014037322813
      7   S      18           103.9486850    0.068842622264
      7   S      19            29.2101553    0.232184443216
      7   S      20             9.2866630    0.467941348435
      7   S      21             3.1639270    0.362311985337

      8   L      22             7.8682723   -0.119332419775    0.068999066591
      8   L      23             1.8812885   -0.160854151696    0.316423960957
      8   L      24             0.5442493    1.143456437840    0.744308290898

      9   L      25             0.1687145    1.000000000000    1.000000000000

     10   D      26             0.8000000    1.000000000000

 N.1-1     

     11   S      27          4173.5114600    0.001834772160
     11   S      28           627.4579110    0.013994627002
     11   S      29           142.9020930    0.068586551812
     11   S      30            40.2343293    0.232240873040
     11   S      31            12.8202129    0.469069948082
     11   S      32             4.3904370    0.360455199063

     12   L      33            11.6263619   -0.114961181702    0.067579743878
     12   L      34             2.7162798   -0.169117478561    0.323907295893
     12   L      35             0.7722184    1.145851947027    0.740895139755

     13   L      36             0.2120315    1.000000000000    1.000000000000

     14   D      37             0.8000000    1.000000000000

 P.1-1     

     15   S      38         19413.3000000    0.001851598923
     15   S      39          2909.4200000    0.014206191735
     15   S      40           661.3640000    0.069999459277
     15   S      41           185.7590000    0.240078860331
     15   S      42            59.1943000    0.484761717984
     15   S      43            20.0310000    0.335199804993

     16   L      44           339.4780000   -0.002782170105    0.004564616191
     16   L      45            81.0101000   -0.036049901354    0.033693571881
     16   L      46            25.8780000   -0.116631004382    0.139754883368
     16   L      47             9.4522100    0.096832803638    0.339361716786
     16   L      48             3.6656600    0.614418023082    0.450920623685
     16   L      49             1.4674600    0.403798015170    0.238585800889

     17   L      50             2.1562300   -0.252924113863   -0.017765312733
     17   L      51             0.7489970    0.032851844678    0.274058196433
     17   L      52             0.2831450    1.081254761783    0.785421562957

     18   L      53             0.0998317    1.000000000000    1.000000000000

     19   D      54             0.5500000    1.000000000000

 TOTAL NUMBER OF BASIS SET SHELLS             =   19
 NUMBER OF CARTESIAN GAUSSIAN BASIS FUNCTIONS =   66

     $CONTRL OPTIONS
     ---------------
 SCFTYP=RHF          RUNTYP=ENERGY       EXETYP=RUN     
 MPLEVL=       0     CITYP =NONE         CCTYP =NONE         VBTYP =NONE    
 DFTTYP=NONE         TDDFT =NONE    
 MULT  =       1     ICHARG=       0     NZVAR =       0     COORD =UNIQUE  
 PP    =NONE         RELWFN=NONE         LOCAL =NONE         NUMGRD=       F
 ISPHER=       1     NOSYM =       0     MAXIT =     200     UNITS =ANGS    
 PLTORB=       F     MOLPLT=       F     AIMPAC=       F     FRIEND=        
 NPRINT=      -5     IREST =       0     GEOM  =INPUT   
 NORMF =       0     NORMP =       0     ITOL  =      24     ICUT  =      12
 INTTYP=BEST         GRDTYP=BEST         QMTTOL= 1.0E-06

     $SYSTEM OPTIONS
     ---------------
  REPLICATED MEMORY=    63000000 WORDS (ON EVERY NODE).
 DISTRIBUTED MEMDDI=          63 MILLION WORDS IN AGGREGATE,
 MEMDDI DISTRIBUTED OVER  16 PROCESSORS IS     3937500 WORDS/PROCESSOR.
 TOTAL MEMORY REQUESTED ON EACH PROCESSOR=    66937500 WORDS.
 TIMLIM=      525600.00 MINUTES, OR     365.0 DAYS.
 PARALL= T  BALTYP=  DLB     KDIAG=    0  COREFL= F
 MXSEQ2=     300 MXSEQ3=     150  mem10=         0

 ** LOOKING UP INTERNALLY STORED DATA FOR SOLVENT=WATER    **
 OPTICAL AND PHYSICAL CONSTANTS:
 EPS= 78.390; EPSINF=  1.776; RSOLV=  1.385 A; VMOL=  18.070 ML/MOL;
 TCE= .25700E-03 1/K; STEN= 71.810 DYN/CM;  DSTEN=  0.6500; CMF=  1.2770


     -----------------------------------
     INPUT FOR PCM SOLVATION CALCULATION 
     -----------------------------------
     IEF   =     -10
     ICOMP =       2     IFIELD=       0     ICAV  =       1
     IDISP =       1     IREP  =       0     IDP   =       0

     SOLVNT=WATER        EPS   = 78.3900     EPSINF=  1.7760
     VMOL  = 18.0700     TCE   =  0.00025700 STEN  = 71.8100
     DSTEN =  0.6500     CMF   =  1.2770     RSOLV =  1.3850

     NESFP =       0
     OMEGA = 40.0000     RET   =100.0000     FRO   =  0.7000

     TABS  =298.0000     IPRINT=       0

     --------------------------------
     INPUT FOR ITERATIVE C-PCM METHOD 
     --------------------------------
     IPCMIT  =         1     MXDIIS  =        50
     MXITR1  =       200     MXITR2  =       200
     THRES   = 0.100E-09     IMUL    =         3
     RCUT(1) =   20.0000     RCUT(2) =   50.0000

     IDIRCT  =         1
     IMGABI  =         0     RABI    =    4.0000
     IMGASC  =         0     RASC    =   20.0000
     THRSLS  = 0.500E-03     DENSLS  =    0.0100
     IEFPOL  =         1     REFPOL  =    0.0000

     INPUT FOR ISOTROPIC DIELECTRICS
     -------------------------------
     EPS=    78.39

          ----------------
          PROPERTIES INPUT
          ----------------

     MOMENTS            FIELD           POTENTIAL          DENSITY
 IEMOM =       1   IEFLD =       0   IEPOT =       0   IEDEN =       0
 WHERE =COMASS     WHERE =NUCLEI     WHERE =NUCLEI     WHERE =NUCLEI  
 OUTPUT=BOTH       OUTPUT=BOTH       OUTPUT=NONE       OUTPUT=BOTH    
 IEMINT=       0   IEFINT=       0                     IEDINT=       0
                                                       MORB  =       0
          EXTRAPOLATION IN EFFECT
          SOSCF IN EFFECT
 ORBITAL PRINTING OPTION: NPREO=     1 32767     2     1

     -------------------------------
     INTEGRAL TRANSFORMATION OPTIONS
     -------------------------------
     NWORD  =            0
     CUTOFF = 1.0E-10     MPTRAN =       0
     DIRTRF =       T     AOINTS =DUP     

          ----------------------
          INTEGRAL INPUT OPTIONS
          ----------------------
 NOPK  =       1 NORDER=       0 SCHWRZ=       T

 ..... DONE SETTING UP THE RUN .....
 CPU     0: STEP CPU TIME=     0.06 TOTAL CPU TIME=          0.1 (      0.0 MIN)
 TOTAL WALL CLOCK TIME=          0.1 SECONDS, CPU UTILIZATION IS    40.00%
 CPU     0: STEP CPU TIME=     0.00 TOTAL CPU TIME=          0.1 (      0.0 MIN)
 TOTAL WALL CLOCK TIME=          0.1 SECONDS, CPU UTILIZATION IS    40.00%

                    ----------------------
                    AO INTEGRAL TECHNOLOGY
                    ----------------------
     S,P,L SHELL ROTATED AXIS INTEGRALS, REPROGRAMMED BY
        KAZUYA ISHIMURA (IMS) AND JOSE SIERRA (SYNSTAR).
     S,P,D,L SHELL ROTATED AXIS INTEGRALS PROGRAMMED BY
        KAZUYA ISHIMURA (INSTITUTE FOR MOLECULAR SCIENCE).
     S,P,D,F,G SHELL TO TOTAL QUARTET ANGULAR MOMENTUM SUM 5,
        ERIC PROGRAM BY GRAHAM FLETCHER (ELORET AND NASA ADVANCED
        SUPERCOMPUTING DIVISION, AMES RESEARCH CENTER).
     S,P,D,F,G,L SHELL GENERAL RYS QUADRATURE PROGRAMMED BY
        MICHEL DUPUIS (PACIFIC NORTHWEST NATIONAL LABORATORY).
 Setting modorb=1 flag...
 Setting modorb=1 flag...

          -----------------------
          MP2 CONTROL INFORMATION
          -----------------------
          NACORE =        8  NBCORE =        8
          LMOMP2 =        F  AOINTS = DUP     
          METHOD =        2  NWORD  =               0
          MP2PRP =        F  OSPT   = NONE    
          CUTOFF = 1.00E-12  CPHFBS = BASISAO 
          CODE   = IMS     

          NUMBER OF CORE -A-  ORBITALS =     8
          NUMBER OF CORE -B-  ORBITALS =     8
          NUMBER OF OCC. -A-  ORBITALS =    18
          NUMBER OF OCC. -B-  ORBITALS =    18
          NUMBER OF MOLECULAR ORBITALS =    66
          NUMBER OF   BASIS  FUNCTIONS =    66

 CPU     0: STEP CPU TIME=     0.03 TOTAL CPU TIME=          0.1 (      0.0 MIN)
 TOTAL WALL CLOCK TIME=          0.2 SECONDS, CPU UTILIZATION IS    47.37%
 CPU     0: STEP CPU TIME=     0.00 TOTAL CPU TIME=          0.1 (      0.0 MIN)
 TOTAL WALL CLOCK TIME=          0.2 SECONDS, CPU UTILIZATION IS    47.37%

     INPUT FOR CAVITY DEFINITION 
     ---------------------------
   ATOM               COORDINATES                RADIUS       EPS
      1     -6.0660     -7.4840      8.4360      0.0100     78.3900
      2     -6.2510     -6.5340      8.5560      1.5900     78.3900
      3     -5.9480     -6.2340      9.9270      1.7700     78.3900
      4     -4.8850     -6.4950     10.1290      0.0100     78.3900
      5     -6.5850     -6.8650     10.5880      0.0100     78.3900
      6     -6.1760     -4.7630     10.2840      1.7700     78.3900
      7     -5.9760     -4.5860     11.3630      0.0100     78.3900
      8     -5.2650     -3.9130      9.5320      1.5900     78.3900
      9     -5.9060     -2.6760      9.2670      1.7700     78.3900
     10     -5.2850     -1.8840      9.7430      0.0100     78.3900
     11     -6.0010     -2.4230      7.8240      1.6800     78.3900
     12     -6.0310     -1.1900      7.2370      1.7700     78.3900
     13     -6.0180      2.2510      7.5140      1.6800     78.3900
     14     -5.9370      2.3940      8.4970      0.0100     78.3900
     15     -6.0700      3.0450      6.9010      0.0100     78.3900
     16     -5.9850     -0.0150      7.8820      1.6800     78.3900
     17     -6.0550      1.0190      7.0500      1.7700     78.3900
     18     -6.1170      0.8860      5.6860      1.6800     78.3900
     19     -6.1890      1.7220      5.1260      0.0100     78.3900
     20     -6.1270     -0.3130      4.9840      1.7700     78.3900
     21     -6.1680     -0.3330      3.7480      1.5900     78.3900
     22     -6.1080     -1.4280      5.8760      1.7700     78.3900
     23     -6.1580     -2.7950      5.6190      1.6800     78.3900
     24     -6.0940     -3.3480      6.8100      1.7700     78.3900
     25     -6.0920     -4.4230      7.0140      0.0100     78.3900
     26     -7.2730     -2.7100      9.9200      1.7700     78.3900
     27     -8.0360     -2.1650      9.3300      0.0100     78.3900
     28     -7.2110     -2.1650     11.2230      1.5900     78.3900
     29     -8.0740     -2.3220     11.6290      0.0100     78.3900
     30     -7.5630     -4.2050      9.9530      1.7700     78.3900
     31     -7.8140     -4.5740      8.9320      0.0100     78.3900
     32     -8.5120     -4.6190     10.9630      1.5900     78.3900
     33    -10.0240     -4.7750     10.5550      2.1000     78.3900
     34    -10.0790     -5.4280      9.2290      1.5900     78.3900
     35    -10.7490     -5.4390     11.6630      1.5900     78.3900
     36    -10.5030     -3.2860     10.4120      1.5900     78.3900
     37    -10.7160     -2.4560     11.5740      1.7700     78.3900
     38     -9.7600     -2.2510     12.1090      0.0100     78.3900
     39    -11.4010     -2.9510     12.2960      0.0100     78.3900
     40    -11.3610     -1.1230     11.1880      1.7700     78.3900
     41    -11.7040     -0.5690     12.0890      0.0100     78.3900
     42    -10.3550     -0.2900     10.5440      1.5900     78.3900
     43    -10.9690      0.4460      9.4970      1.7700     78.3900
     44    -10.7670      1.5200      9.7240      0.0100     78.3900
     45    -10.4210      0.0930      8.1680      1.6800     78.3900
     46     -9.9620     -1.1800      7.9180      1.7700     78.3900
     47     -9.9920     -1.8640      8.7630      0.0100     78.3900
     48     -9.4680     -1.5250      6.7230      1.7700     78.3900
     49     -9.0790     -2.5190      6.5120      0.0100     78.3900
     50    -10.4610      1.0210      7.1420      1.7700     78.3900
     51    -10.9410      2.1450      7.3620      1.5900     78.3900
     52     -9.9590      0.6970      5.9390      1.6800     78.3900
     53     -9.4790     -0.5330      5.7030      1.7700     78.3900
     54     -9.0460     -0.8120      4.4800      1.6800     78.3900
     55     -9.1120     -0.0790      3.7990      0.0100     78.3900
     56     -8.7130     -1.7140      4.2070      0.0100     78.3900
     57    -12.4620      0.2060      9.5690      1.7700     78.3900
     58    -12.9280      0.2120      8.5640      0.0100     78.3900
     59    -13.0880      1.1650     10.4020      1.5900     78.3900
     60    -13.9990      0.8660     10.5270      0.0100     78.3900
     61    -12.5190     -1.1850     10.1760      1.7700     78.3900
     62    -12.2410     -1.9330      9.3960      0.0100     78.3900
     63    -13.7620     -1.4910     10.8500      1.5900     78.3900
     64    -14.7840     -2.4780     10.1640      2.1000     78.3900
     65    -15.8690     -2.7760     11.1250      1.5900     78.3900
     66    -14.0540     -3.6300      9.5920      1.5900     78.3900
     67    -15.3520     -1.6340      8.9820      1.5900     78.3900
     68    -16.1240     -0.4320      9.1260      1.7700     78.3900
     69    -15.6900      0.2420      9.8990      0.0100     78.3900
     70    -17.1590     -0.6960      9.4350      0.0100     78.3900
     71    -16.2150      0.3510      7.8050      1.7700     78.3900
     72    -16.8390      1.2600      7.9300      0.0100     78.3900
     73    -14.8860      0.7940      7.3980      1.5900     78.3900
     74    -14.7730      0.7400      5.9880      1.7700     78.3900
     75    -14.4660      1.7640      5.6760      0.0100     78.3900
     76    -13.7680     -0.2680      5.5590      1.6800     78.3900
     77    -13.6140     -1.4420      6.2470      1.7700     78.3900
     78    -14.2140     -1.5290      7.1410      0.0100     78.3900
     79    -13.0160     -0.0180      4.4400      1.7700     78.3900
     80    -13.1080      1.0360      3.8100      1.5900     78.3900
     81    -12.1560     -1.0210      4.0620      1.6800     78.3900
     82    -11.6200     -0.8550      3.2300      0.0100     78.3900
     83    -11.9640     -2.2280      4.7160      1.7700     78.3900
     84    -11.1240     -3.0350      4.3200      1.5900     78.3900
     85    -12.7620     -2.4050      5.8870      1.7700     78.3900
     86    -12.6470     -3.3120      6.4760      0.0100     78.3900
     87    -16.1690      0.4460      5.4520      1.7700     78.3900
     88    -16.1470     -0.1220      4.4950      0.0100     78.3900
     89    -16.8770      1.6730      5.2910      1.5900     78.3900
     90    -16.7460      1.9530      4.3640      0.0100     78.3900
     91    -16.7370     -0.4090      6.5790      1.7700     78.3900
     92    -16.2340     -1.4030      6.5920      0.0100     78.3900
     93    -18.1790     -0.5090      6.6000      1.5900     78.3900
     94    -18.8560     -1.8970      6.2840      2.1000     78.3900
     95    -18.4720     -2.8810      7.3080      1.5900     78.3900
     96    -20.3090     -1.6720      6.0890      1.5900     78.3900
     97    -18.2220     -2.3220      4.9040      1.5900     78.3900
     98    -18.4360     -3.6450      4.3640      1.7700     78.3900
     99    -19.3390     -4.1480      4.7910      0.0100     78.3900
    100    -17.5540     -4.2780      4.6090      0.0100     78.3900
    101    -18.5840     -3.6260      2.8330      1.7700     78.3900
    102    -18.4830     -4.6560      2.4210      0.0100     78.3900
    103    -19.9250     -3.1550      2.5050      1.5900     78.3900
    104    -19.8720     -2.2730      1.3910      1.7700     78.3900
    105    -20.5660     -2.7040      0.6350      0.0100     78.3900
    106    -20.3060     -0.8870      1.7120      1.6800     78.3900
    107    -20.0900     -0.4110      2.9810      1.7700     78.3900
    108    -19.6370     -1.1140      3.6720      0.0100     78.3900
    109    -20.4430      0.8250      3.3380      1.7700     78.3900
    110    -20.3200      1.1880      4.3570      0.0100     78.3900
    111    -20.8380     -0.0370      0.7440      1.7700     78.3900
    112    -20.9580     -0.4480     -0.4290      1.5900     78.3900
    113    -21.2280      1.2120      1.0900      1.6800     78.3900
    114    -21.0340      1.6550      2.3490      1.7700     78.3900
    115    -21.4220      2.8850      2.6680      1.6800     78.3900
    116    -21.9010      3.4320      1.9800      0.0100     78.3900
    117    -21.3800      3.2260      3.6100      0.0100     78.3900
    118    -18.4700     -2.3130      0.8450      1.7700     78.3900
    119    -18.1510     -1.3240      0.5000      0.0100     78.3900
    120    -18.3700     -3.2620     -0.2020      1.5900     78.3900
    121    -18.4340     -4.1520      0.1740      0.0100     78.3900
    122    -17.6390     -2.6820      2.0660      1.7700     78.3900
    123    -17.4880     -1.7730      2.6950      0.0100     78.3900
    124    -16.3980     -3.3480      1.7550      1.5900     78.3900
    125    -15.0740     -2.5080      1.5720      2.1000     78.3900
    126    -14.0440     -3.4010      0.9900      1.5900     78.3900
    127    -14.7770     -1.8830      2.8700      1.5900     78.3900
    128    -15.3970     -1.3660      0.5330      1.5900     78.3900
    129    -15.5590     -1.6660     -0.8740      1.7700     78.3900
    130    -16.2160     -2.5500     -1.0400      0.0100     78.3900
    131    -14.5770     -1.9210     -1.3280      0.0100     78.3900
    132    -16.1470     -0.4780     -1.6590      1.7700     78.3900
    133    -16.4460     -0.7830     -2.6840      0.0100     78.3900
    134    -17.3270      0.0650     -0.9980      1.5900     78.3900
    135    -17.3140      1.4670     -1.0300      1.7700     78.3900
    136    -18.2820      1.7870     -1.4870      0.0100     78.3900
    137    -17.2040      2.0450      0.3220      1.6800     78.3900
    138    -17.3350      3.4030      2.0550      1.7700     78.3900
    139    -16.7840      2.2270      2.5250      1.6800     78.3900
    140    -16.7260      1.4530      1.4690      1.7700     78.3900
    141    -16.3540      0.4300      1.4820      0.0100     78.3900
    142    -18.2350      5.5840      1.9390      1.6800     78.3900
    143    -18.4050      5.3540      0.6340      1.7700     78.3900
    144    -18.8480      6.1840      0.0760      0.0100     78.3900
    145    -18.1270      4.2600     -0.0840      1.6800     78.3900
    146    -17.5970      3.3090      0.6970      1.7700     78.3900
    147    -17.6790      4.6100      2.7010      1.7700     78.3900
    148    -17.5030      4.8350      4.0220      1.6800     78.3900
    149    -17.1150      4.1480      4.6340      0.0100     78.3900
    150    -17.6680      5.7510      4.3910      0.0100     78.3900
    151    -16.1800      1.8600     -1.9340      1.7700     78.3900
    152    -15.7150      2.8030     -1.6110      0.0100     78.3900
    153    -16.6470      1.9480     -3.2680      1.5900     78.3900
    154    -15.8670      2.0070     -3.8340      0.0100     78.3900
    155    -15.1960      0.7110     -1.7660      1.7700     78.3900
    156    -14.6710      0.7870     -0.7850      0.0100     78.3900
    157    -14.2940      0.5230     -2.8790      1.5900     78.3900
    158    -12.8740      1.2110     -2.8670      2.1000     78.3900
    159    -12.2210      0.9680     -4.1710      1.5900     78.3900
    160    -12.1420      0.7730     -1.6610      1.5900     78.3900
    161    -13.1780      2.7470     -2.7470      1.5900     78.3900
    162    -13.7120      3.5180     -3.8460      1.7700     78.3900
    163    -14.5950      3.0200     -4.3070      0.0100     78.3900
    164    -12.9430      3.6280     -4.6450      0.0100     78.3900
    165    -14.1330      4.9280     -3.4020      1.7700     78.3900
    166    -14.5910      5.4900     -4.2440      0.0100     78.3900
    167    -15.1300      4.8460     -2.3450      1.5900     78.3900
    168    -14.8990      5.8420     -1.3730      1.7700     78.3900
    169    -15.8500      6.4250     -1.3200      0.0100     78.3900
    170    -14.5880      5.2860     -0.0130      1.6800     78.3900
    171    -13.9830      4.0590      0.1180      1.7700     78.3900
    172    -13.7320      3.5640     -0.8110      0.0100     78.3900
    173    -13.7550      3.5060      1.3150      1.7700     78.3900
    174    -13.3130      2.5180      1.4320      0.0100     78.3900
    175    -14.8860      6.0180      1.1310      1.7700     78.3900
    176    -15.4120      7.1380      1.0000      1.5900     78.3900
    177    -14.6500      5.4870      2.3580      1.6800     78.3900
    178    -14.1430      4.2430      2.4670      1.7700     78.3900
    179    -14.0160      3.7060      3.6800      1.6800     78.3900
    180    -13.7170      2.7520      3.7890      0.0100     78.3900
    181    -14.3010      4.2330      4.4770      0.0100     78.3900
    182    -13.8170      6.7350     -1.9230      1.7700     78.3900
    183    -13.2270      7.1500     -1.1170      0.0100     78.3900
    184    -14.3590      7.8110     -2.6650      1.5900     78.3900
    185    -13.6210      8.2460     -3.1170      0.0100     78.3900
    186    -13.0130      5.7830     -2.8040      1.7700     78.3900
    187    -12.3840      5.1050     -2.1800      0.0100     78.3900
    188    -12.2730      6.4300     -3.8580      1.5900     78.3900
    189    -10.7180      6.6440     -3.7650      2.1000     78.3900
    190    -10.3630      7.7330     -4.7020      1.5900     78.3900
    191    -10.0460      5.3400     -3.9710      1.5900     78.3900
    192    -10.4820      7.1150     -2.2830      1.5900     78.3900
    193    -10.8940      8.4360     -1.8600      1.7700     78.3900
    194    -11.9100      8.6990     -2.2290      0.0100     78.3900
    195    -10.1980      9.1990     -2.2680      0.0100     78.3900
    196    -10.9020      8.5530     -0.3210      1.7700     78.3900
    197    -11.3770      9.5060     -0.0080      0.0100     78.3900
    198    -11.6500      7.4760      0.3040      1.5900     78.3900
    199    -11.0900      7.1500      1.5490      1.7700     78.3900
    200    -11.9130      7.3030      2.2930      0.0100     78.3900
    201    -10.6460      5.7640      1.5930      1.6800     78.3900
    202    -10.6250      4.9830      2.7100      1.7700     78.3900
    203    -11.1340      4.5650      6.1040      1.6800     78.3900
    204    -11.5320      5.4350      6.3910      0.0100     78.3900
    205    -11.1160      3.7920      6.7440      0.0100     78.3900
    206    -11.0080      5.3570      3.9420      1.6800     78.3900
    207    -10.8610      4.3750      4.8290      1.7700     78.3900
    208    -10.4180      3.1220      4.4910      1.6800     78.3900
    209    -10.3780      2.4080      5.2040      0.0100     78.3900
    210    -10.0310      2.7050      3.2250      1.7700     78.3900
    211     -9.6370      1.5580      2.9930      1.5900     78.3900
    212    -10.1420      3.7590      2.2860      1.7700     78.3900
    213     -9.8490      3.7830      0.9300      1.6800     78.3900
    214    -10.1690      4.9990      0.5570      1.7700     78.3900
    215    -10.0980      5.4000     -0.4560      0.0100     78.3900
    216     -9.9690      8.1250      1.7900      1.7700     78.3900
    217     -9.1270      7.6830      2.3650      0.0100     78.3900
    218    -10.4850      9.2620      2.4600      1.5900     78.3900
    219     -9.8370      9.9740      2.3650      0.0100     78.3900
    220     -9.5470      8.4610      0.3610      1.7700     78.3900
    221     -9.0260      7.5950     -0.1120      0.0100     78.3900
    222     -8.8440      9.7120      0.2180      1.5900     78.3900
    223     -7.2790      9.6680      0.1040      2.1000     78.3900
    224     -6.7760     11.0580      0.0100      1.5900     78.3900
    225     -6.8970      8.7620     -0.9990      1.5900     78.3900
    226     -6.8270      9.0280      1.4680      1.5900     78.3900
    227     -7.0320      9.7900      2.6880      1.7700     78.3900
    228     -8.1110      9.9870      2.8620      0.0100     78.3900
    229     -6.5160     10.7800      2.6370      0.0100     78.3900
    230     -6.5000      9.0350      3.9090      1.7700     78.3900
    231     -6.6560      9.6140      4.8450      0.0100     78.3900
    232     -7.2060      7.7770      4.0490      1.5900     78.3900
    233     -6.3310      6.7970      4.5680      1.7700     78.3900
    234     -6.6680      6.6670      5.6220      0.0100     78.3900
    235     -6.4400      5.5100      3.8480      1.6800     78.3900
    236     -6.5650      5.4940      2.4780      1.7700     78.3900
    237     -6.6220      6.4750      1.9940      0.0100     78.3900
    238     -6.6530      4.3360      1.8080      1.7700     78.3900
    239     -6.7770      4.2960      0.7260      0.0100     78.3900
    240     -6.3500      4.3150      4.5470      1.7700     78.3900
    241     -6.1900      4.3490      5.7800      1.5900     78.3900
    242     -6.4290      3.1420      3.8940      1.6800     78.3900
    243     -6.5800      3.1220      2.5560      1.7700     78.3900
    244     -6.6470      1.9410      1.9480      1.6800     78.3900
    245     -6.6220      1.1180      2.5190      0.0100     78.3900
    246     -6.8370      1.8510      0.9700      0.0100     78.3900
    247     -4.9040      7.3490      4.5890      1.7700     78.3900
    248     -4.2030      6.6690      4.0590      0.0100     78.3900
    249     -4.4670      7.5390      5.9230      1.5900     78.3900
    250     -3.6220      8.0220      5.9160      0.0100     78.3900
    251     -5.0250      8.6610      3.8030      1.7700     78.3900
    252     -4.8140      8.4660      2.7350      0.0100     78.3900
    253     -4.1900      9.7400      4.2650      1.5900     78.3900
    254     -3.2470      9.5170      4.1410      0.0100     78.3900

     ----------------------------
     INPUT FOR TESSERA DEFINITION
     ----------------------------
     NTSALL  =        60     MTHALL  =         4
     MTHAUT  =         0     AUTFRE  =    2.0000
     NTSFRZ  =        60     KEEPSM  =         0
     AREAKP  =   10.0000     BONDRY  =    1.0000
     AREATL  =    0.0100

     SPHERE     INITS       METHOD
          1        60       FIXPVA
          2        60       FIXPVA
          3        60       FIXPVA
          4        60       FIXPVA
          5        60       FIXPVA
          6        60       FIXPVA
          7        60       FIXPVA
          8        60       FIXPVA
          9        60       FIXPVA
         10        60       FIXPVA
         11        60       FIXPVA
         12        60       FIXPVA
         13        60       FIXPVA
         14        60       FIXPVA
         15        60       FIXPVA
         16        60       FIXPVA
         17        60       FIXPVA
         18        60       FIXPVA
         19        60       FIXPVA
         20        60       FIXPVA
         21        60       FIXPVA
         22        60       FIXPVA
         23        60       FIXPVA
         24        60       FIXPVA
         25        60       FIXPVA
         26        60       FIXPVA
         27        60       FIXPVA
         28        60       FIXPVA
         29        60       FIXPVA
         30        60       FIXPVA
         31        60       FIXPVA
         32        60       FIXPVA
         33        60       FIXPVA
         34        60       FIXPVA
         35        60       FIXPVA
         36        60       FIXPVA
         37        60       FIXPVA
         38        60       FIXPVA
         39        60       FIXPVA
         40        60       FIXPVA
         41        60       FIXPVA
         42        60       FIXPVA
         43        60       FIXPVA
         44        60       FIXPVA
         45        60       FIXPVA
         46        60       FIXPVA
         47        60       FIXPVA
         48        60       FIXPVA
         49        60       FIXPVA
         50        60       FIXPVA
         51        60       FIXPVA
         52        60       FIXPVA
         53        60       FIXPVA
         54        60       FIXPVA
         55        60       FIXPVA
         56        60       FIXPVA
         57        60       FIXPVA
         58        60       FIXPVA
         59        60       FIXPVA
         60        60       FIXPVA
         61        60       FIXPVA
         62        60       FIXPVA
         63        60       FIXPVA
         64        60       FIXPVA
         65        60       FIXPVA
         66        60       FIXPVA
         67        60       FIXPVA
         68        60       FIXPVA
         69        60       FIXPVA
         70        60       FIXPVA
         71        60       FIXPVA
         72        60       FIXPVA
         73        60       FIXPVA
         74        60       FIXPVA
         75        60       FIXPVA
         76        60       FIXPVA
         77        60       FIXPVA
         78        60       FIXPVA
         79        60       FIXPVA
         80        60       FIXPVA
         81        60       FIXPVA
         82        60       FIXPVA
         83        60       FIXPVA
         84        60       FIXPVA
         85        60       FIXPVA
         86        60       FIXPVA
         87        60       FIXPVA
         88        60       FIXPVA
         89        60       FIXPVA
         90        60       FIXPVA
         91        60       FIXPVA
         92        60       FIXPVA
         93        60       FIXPVA
         94        60       FIXPVA
         95        60       FIXPVA
         96        60       FIXPVA
         97        60       FIXPVA
         98        60       FIXPVA
         99        60       FIXPVA
        100        60       FIXPVA
        101        60       FIXPVA
        102        60       FIXPVA
        103        60       FIXPVA
        104        60       FIXPVA
        105        60       FIXPVA
        106        60       FIXPVA
        107        60       FIXPVA
        108        60       FIXPVA
        109        60       FIXPVA
        110        60       FIXPVA
        111        60       FIXPVA
        112        60       FIXPVA
        113        60       FIXPVA
        114        60       FIXPVA
        115        60       FIXPVA
        116        60       FIXPVA
        117        60       FIXPVA
        118        60       FIXPVA
        119        60       FIXPVA
        120        60       FIXPVA
        121        60       FIXPVA
        122        60       FIXPVA
        123        60       FIXPVA
        124        60       FIXPVA
        125        60       FIXPVA
        126        60       FIXPVA
        127        60       FIXPVA
        128        60       FIXPVA
        129        60       FIXPVA
        130        60       FIXPVA
        131        60       FIXPVA
        132        60       FIXPVA
        133        60       FIXPVA
        134        60       FIXPVA
        135        60       FIXPVA
        136        60       FIXPVA
        137        60       FIXPVA
        138        60       FIXPVA
        139        60       FIXPVA
        140        60       FIXPVA
        141        60       FIXPVA
        142        60       FIXPVA
        143        60       FIXPVA
        144        60       FIXPVA
        145        60       FIXPVA
        146        60       FIXPVA
        147        60       FIXPVA
        148        60       FIXPVA
        149        60       FIXPVA
        150        60       FIXPVA
        151        60       FIXPVA
        152        60       FIXPVA
        153        60       FIXPVA
        154        60       FIXPVA
        155        60       FIXPVA
        156        60       FIXPVA
        157        60       FIXPVA
        158        60       FIXPVA
        159        60       FIXPVA
        160        60       FIXPVA
        161        60       FIXPVA
        162        60       FIXPVA
        163        60       FIXPVA
        164        60       FIXPVA
        165        60       FIXPVA
        166        60       FIXPVA
        167        60       FIXPVA
        168        60       FIXPVA
        169        60       FIXPVA
        170        60       FIXPVA
        171        60       FIXPVA
        172        60       FIXPVA
        173        60       FIXPVA
        174        60       FIXPVA
        175        60       FIXPVA
        176        60       FIXPVA
        177        60       FIXPVA
        178        60       FIXPVA
        179        60       FIXPVA
        180        60       FIXPVA
        181        60       FIXPVA
        182        60       FIXPVA
        183        60       FIXPVA
        184        60       FIXPVA
        185        60       FIXPVA
        186        60       FIXPVA
        187        60       FIXPVA
        188        60       FIXPVA
        189        60       FIXPVA
        190        60       FIXPVA
        191        60       FIXPVA
        192        60       FIXPVA
        193        60       FIXPVA
        194        60       FIXPVA
        195        60       FIXPVA
        196        60       FIXPVA
        197        60       FIXPVA
        198        60       FIXPVA
        199        60       FIXPVA
        200        60       FIXPVA
        201        60       FIXPVA
        202        60       FIXPVA
        203        60       FIXPVA
        204        60       FIXPVA
        205        60       FIXPVA
        206        60       FIXPVA
        207        60       FIXPVA
        208        60       FIXPVA
        209        60       FIXPVA
        210        60       FIXPVA
        211        60       FIXPVA
        212        60       FIXPVA
        213        60       FIXPVA
        214        60       FIXPVA
        215        60       FIXPVA
        216        60       FIXPVA
        217        60       FIXPVA
        218        60       FIXPVA
        219        60       FIXPVA
        220        60       FIXPVA
        221        60       FIXPVA
        222        60       FIXPVA
        223        60       FIXPVA
        224        60       FIXPVA
        225        60       FIXPVA
        226        60       FIXPVA
        227        60       FIXPVA
        228        60       FIXPVA
        229        60       FIXPVA
        230        60       FIXPVA
        231        60       FIXPVA
        232        60       FIXPVA
        233        60       FIXPVA
        234        60       FIXPVA
        235        60       FIXPVA
        236        60       FIXPVA
        237        60       FIXPVA
        238        60       FIXPVA
        239        60       FIXPVA
        240        60       FIXPVA
        241        60       FIXPVA
        242        60       FIXPVA
        243        60       FIXPVA
        244        60       FIXPVA
        245        60       FIXPVA
        246        60       FIXPVA
        247        60       FIXPVA
        248        60       FIXPVA
        249        60       FIXPVA
        250        60       FIXPVA
        251        60       FIXPVA
        252        60       FIXPVA
        253        60       FIXPVA
        254        60       FIXPVA

     ------------------------------
      FIXPVA TESSELLATION FOR PCM
         PEIFENG SU AND HUI LI
     UNIVERSITY OF NEBRASKA-LINCOLN
     ------------------------------


 PCM DIMENSIONS: MXSP=   254, MXTS=     10160, MEMORY=        104397

     INPUT FOR CAVITY DEFINITION 
     ---------------------------
   ATOM               COORDINATES                RADIUS       EPS
      1     -6.0660     -7.4840      8.4360      0.0100     78.3900
      2     -6.2510     -6.5340      8.5560      1.5900     78.3900
      3     -5.9480     -6.2340      9.9270      1.7700     78.3900
      4     -4.8850     -6.4950     10.1290      0.0100     78.3900
      5     -6.5850     -6.8650     10.5880      0.0100     78.3900
      6     -6.1760     -4.7630     10.2840      1.7700     78.3900
      7     -5.9760     -4.5860     11.3630      0.0100     78.3900
      8     -5.2650     -3.9130      9.5320      1.5900     78.3900
      9     -5.9060     -2.6760      9.2670      1.7700     78.3900
     10     -5.2850     -1.8840      9.7430      0.0100     78.3900
     11     -6.0010     -2.4230      7.8240      1.6800     78.3900
     12     -6.0310     -1.1900      7.2370      1.7700     78.3900
     13     -6.0180      2.2510      7.5140      1.6800     78.3900
     14     -5.9370      2.3940      8.4970      0.0100     78.3900
     15     -6.0700      3.0450      6.9010      0.0100     78.3900
     16     -5.9850     -0.0150      7.8820      1.6800     78.3900
     17     -6.0550      1.0190      7.0500      1.7700     78.3900
     18     -6.1170      0.8860      5.6860      1.6800     78.3900
     19     -6.1890      1.7220      5.1260      0.0100     78.3900
     20     -6.1270     -0.3130      4.9840      1.7700     78.3900
     21     -6.1680     -0.3330      3.7480      1.5900     78.3900
     22     -6.1080     -1.4280      5.8760      1.7700     78.3900
     23     -6.1580     -2.7950      5.6190      1.6800     78.3900
     24     -6.0940     -3.3480      6.8100      1.7700     78.3900
     25     -6.0920     -4.4230      7.0140      0.0100     78.3900
     26     -7.2730     -2.7100      9.9200      1.7700     78.3900
     27     -8.0360     -2.1650      9.3300      0.0100     78.3900
     28     -7.2110     -2.1650     11.2230      1.5900     78.3900
     29     -8.0740     -2.3220     11.6290      0.0100     78.3900
     30     -7.5630     -4.2050      9.9530      1.7700     78.3900
     31     -7.8140     -4.5740      8.9320      0.0100     78.3900
     32     -8.5120     -4.6190     10.9630      1.5900     78.3900
     33    -10.0240     -4.7750     10.5550      2.1000     78.3900
     34    -10.0790     -5.4280      9.2290      1.5900     78.3900
     35    -10.7490     -5.4390     11.6630      1.5900     78.3900
     36    -10.5030     -3.2860     10.4120      1.5900     78.3900
     37    -10.7160     -2.4560     11.5740      1.7700     78.3900
     38     -9.7600     -2.2510     12.1090      0.0100     78.3900
     39    -11.4010     -2.9510     12.2960      0.0100     78.3900
     40    -11.3610     -1.1230     11.1880      1.7700     78.3900
     41    -11.7040     -0.5690     12.0890      0.0100     78.3900
     42    -10.3550     -0.2900     10.5440      1.5900     78.3900
     43    -10.9690      0.4460      9.4970      1.7700     78.3900
     44    -10.7670      1.5200      9.7240      0.0100     78.3900
     45    -10.4210      0.0930      8.1680      1.6800     78.3900
     46     -9.9620     -1.1800      7.9180      1.7700     78.3900
     47     -9.9920     -1.8640      8.7630      0.0100     78.3900
     48     -9.4680     -1.5250      6.7230      1.7700     78.3900
     49     -9.0790     -2.5190      6.5120      0.0100     78.3900
     50    -10.4610      1.0210      7.1420      1.7700     78.3900
     51    -10.9410      2.1450      7.3620      1.5900     78.3900
     52     -9.9590      0.6970      5.9390      1.6800     78.3900
     53     -9.4790     -0.5330      5.7030      1.7700     78.3900
     54     -9.0460     -0.8120      4.4800      1.6800     78.3900
     55     -9.1120     -0.0790      3.7990      0.0100     78.3900
     56     -8.7130     -1.7140      4.2070      0.0100     78.3900
     57    -12.4620      0.2060      9.5690      1.7700     78.3900
     58    -12.9280      0.2120      8.5640      0.0100     78.3900
     59    -13.0880      1.1650     10.4020      1.5900     78.3900
     60    -13.9990      0.8660     10.5270      0.0100     78.3900
     61    -12.5190     -1.1850     10.1760      1.7700     78.3900
     62    -12.2410     -1.9330      9.3960      0.0100     78.3900
     63    -13.7620     -1.4910     10.8500      1.5900     78.3900
     64    -14.7840     -2.4780     10.1640      2.1000     78.3900
     65    -15.8690     -2.7760     11.1250      1.5900     78.3900
     66    -14.0540     -3.6300      9.5920      1.5900     78.3900
     67    -15.3520     -1.6340      8.9820      1.5900     78.3900
     68    -16.1240     -0.4320      9.1260      1.7700     78.3900
     69    -15.6900      0.2420      9.8990      0.0100     78.3900
     70    -17.1590     -0.6960      9.4350      0.0100     78.3900
     71    -16.2150      0.3510      7.8050      1.7700     78.3900
     72    -16.8390      1.2600      7.9300      0.0100     78.3900
     73    -14.8860      0.7940      7.3980      1.5900     78.3900
     74    -14.7730      0.7400      5.9880      1.7700     78.3900
     75    -14.4660      1.7640      5.6760      0.0100     78.3900
     76    -13.7680     -0.2680      5.5590      1.6800     78.3900
     77    -13.6140     -1.4420      6.2470      1.7700     78.3900
     78    -14.2140     -1.5290      7.1410      0.0100     78.3900
     79    -13.0160     -0.0180      4.4400      1.7700     78.3900
     80    -13.1080      1.0360      3.8100      1.5900     78.3900
     81    -12.1560     -1.0210      4.0620      1.6800     78.3900
     82    -11.6200     -0.8550      3.2300      0.0100     78.3900
     83    -11.9640     -2.2280      4.7160      1.7700     78.3900
     84    -11.1240     -3.0350      4.3200      1.5900     78.3900
     85    -12.7620     -2.4050      5.8870      1.7700     78.3900
     86    -12.6470     -3.3120      6.4760      0.0100     78.3900
     87    -16.1690      0.4460      5.4520      1.7700     78.3900
     88    -16.1470     -0.1220      4.4950      0.0100     78.3900
     89    -16.8770      1.6730      5.2910      1.5900     78.3900
     90    -16.7460      1.9530      4.3640      0.0100     78.3900
     91    -16.7370     -0.4090      6.5790      1.7700     78.3900
     92    -16.2340     -1.4030      6.5920      0.0100     78.3900
     93    -18.1790     -0.5090      6.6000      1.5900     78.3900
     94    -18.8560     -1.8970      6.2840      2.1000     78.3900
     95    -18.4720     -2.8810      7.3080      1.5900     78.3900
     96    -20.3090     -1.6720      6.0890      1.5900     78.3900
     97    -18.2220     -2.3220      4.9040      1.5900     78.3900
     98    -18.4360     -3.6450      4.3640      1.7700     78.3900
     99    -19.3390     -4.1480      4.7910      0.0100     78.3900
    100    -17.5540     -4.2780      4.6090      0.0100     78.3900
    101    -18.5840     -3.6260      2.8330      1.7700     78.3900
    102    -18.4830     -4.6560      2.4210      0.0100     78.3900
    103    -19.9250     -3.1550      2.5050      1.5900     78.3900
    104    -19.8720     -2.2730      1.3910      1.7700     78.3900
    105    -20.5660     -2.7040      0.6350      0.0100     78.3900
    106    -20.3060     -0.8870      1.7120      1.6800     78.3900
    107    -20.0900     -0.4110      2.9810      1.7700     78.3900
    108    -19.6370     -1.1140      3.6720      0.0100     78.3900
    109    -20.4430      0.8250      3.3380      1.7700     78.3900
    110    -20.3200      1.1880      4.3570      0.0100     78.3900
    111    -20.8380     -0.0370      0.7440      1.7700     78.3900
    112    -20.9580     -0.4480     -0.4290      1.5900     78.3900
    113    -21.2280      1.2120      1.0900      1.6800     78.3900
    114    -21.0340      1.6550      2.3490      1.7700     78.3900
    115    -21.4220      2.8850      2.6680      1.6800     78.3900
    116    -21.9010      3.4320      1.9800      0.0100     78.3900
    117    -21.3800      3.2260      3.6100      0.0100     78.3900
    118    -18.4700     -2.3130      0.8450      1.7700     78.3900
    119    -18.1510     -1.3240      0.5000      0.0100     78.3900
    120    -18.3700     -3.2620     -0.2020      1.5900     78.3900
    121    -18.4340     -4.1520      0.1740      0.0100     78.3900
    122    -17.6390     -2.6820      2.0660      1.7700     78.3900
    123    -17.4880     -1.7730      2.6950      0.0100     78.3900
    124    -16.3980     -3.3480      1.7550      1.5900     78.3900
    125    -15.0740     -2.5080      1.5720      2.1000     78.3900
    126    -14.0440     -3.4010      0.9900      1.5900     78.3900
    127    -14.7770     -1.8830      2.8700      1.5900     78.3900
    128    -15.3970     -1.3660      0.5330      1.5900     78.3900
    129    -15.5590     -1.6660     -0.8740      1.7700     78.3900
    130    -16.2160     -2.5500     -1.0400      0.0100     78.3900
    131    -14.5770     -1.9210     -1.3280      0.0100     78.3900
    132    -16.1470     -0.4780     -1.6590      1.7700     78.3900
    133    -16.4460     -0.7830     -2.6840      0.0100     78.3900
    134    -17.3270      0.0650     -0.9980      1.5900     78.3900
    135    -17.3140      1.4670     -1.0300      1.7700     78.3900
    136    -18.2820      1.7870     -1.4870      0.0100     78.3900
    137    -17.2040      2.0450      0.3220      1.6800     78.3900
    138    -17.3350      3.4030      2.0550      1.7700     78.3900
    139    -16.7840      2.2270      2.5250      1.6800     78.3900
    140    -16.7260      1.4530      1.4690      1.7700     78.3900
    141    -16.3540      0.4300      1.4820      0.0100     78.3900
    142    -18.2350      5.5840      1.9390      1.6800     78.3900
    143    -18.4050      5.3540      0.6340      1.7700     78.3900
    144    -18.8480      6.1840      0.0760      0.0100     78.3900
    145    -18.1270      4.2600     -0.0840      1.6800     78.3900
    146    -17.5970      3.3090      0.6970      1.7700     78.3900
    147    -17.6790      4.6100      2.7010      1.7700     78.3900
    148    -17.5030      4.8350      4.0220      1.6800     78.3900
    149    -17.1150      4.1480      4.6340      0.0100     78.3900
    150    -17.6680      5.7510      4.3910      0.0100     78.3900
    151    -16.1800      1.8600     -1.9340      1.7700     78.3900
    152    -15.7150      2.8030     -1.6110      0.0100     78.3900
    153    -16.6470      1.9480     -3.2680      1.5900     78.3900
    154    -15.8670      2.0070     -3.8340      0.0100     78.3900
    155    -15.1960      0.7110     -1.7660      1.7700     78.3900
    156    -14.6710      0.7870     -0.7850      0.0100     78.3900
    157    -14.2940      0.5230     -2.8790      1.5900     78.3900
    158    -12.8740      1.2110     -2.8670      2.1000     78.3900
    159    -12.2210      0.9680     -4.1710      1.5900     78.3900
    160    -12.1420      0.7730     -1.6610      1.5900     78.3900
    161    -13.1780      2.7470     -2.7470      1.5900     78.3900
    162    -13.7120      3.5180     -3.8460      1.7700     78.3900
    163    -14.5950      3.0200     -4.3070      0.0100     78.3900
    164    -12.9430      3.6280     -4.6450      0.0100     78.3900
    165    -14.1330      4.9280     -3.4020      1.7700     78.3900
    166    -14.5910      5.4900     -4.2440      0.0100     78.3900
    167    -15.1300      4.8460     -2.3450      1.5900     78.3900
    168    -14.8990      5.8420     -1.3730      1.7700     78.3900
    169    -15.8500      6.4250     -1.3200      0.0100     78.3900
    170    -14.5880      5.2860     -0.0130      1.6800     78.3900
    171    -13.9830      4.0590      0.1180      1.7700     78.3900
    172    -13.7320      3.5640     -0.8110      0.0100     78.3900
    173    -13.7550      3.5060      1.3150      1.7700     78.3900
    174    -13.3130      2.5180      1.4320      0.0100     78.3900
    175    -14.8860      6.0180      1.1310      1.7700     78.3900
    176    -15.4120      7.1380      1.0000      1.5900     78.3900
    177    -14.6500      5.4870      2.3580      1.6800     78.3900
    178    -14.1430      4.2430      2.4670      1.7700     78.3900
    179    -14.0160      3.7060      3.6800      1.6800     78.3900
    180    -13.7170      2.7520      3.7890      0.0100     78.3900
    181    -14.3010      4.2330      4.4770      0.0100     78.3900
    182    -13.8170      6.7350     -1.9230      1.7700     78.3900
    183    -13.2270      7.1500     -1.1170      0.0100     78.3900
    184    -14.3590      7.8110     -2.6650      1.5900     78.3900
    185    -13.6210      8.2460     -3.1170      0.0100     78.3900
    186    -13.0130      5.7830     -2.8040      1.7700     78.3900
    187    -12.3840      5.1050     -2.1800      0.0100     78.3900
    188    -12.2730      6.4300     -3.8580      1.5900     78.3900
    189    -10.7180      6.6440     -3.7650      2.1000     78.3900
    190    -10.3630      7.7330     -4.7020      1.5900     78.3900
    191    -10.0460      5.3400     -3.9710      1.5900     78.3900
    192    -10.4820      7.1150     -2.2830      1.5900     78.3900
    193    -10.8940      8.4360     -1.8600      1.7700     78.3900
    194    -11.9100      8.6990     -2.2290      0.0100     78.3900
    195    -10.1980      9.1990     -2.2680      0.0100     78.3900
    196    -10.9020      8.5530     -0.3210      1.7700     78.3900
    197    -11.3770      9.5060     -0.0080      0.0100     78.3900
    198    -11.6500      7.4760      0.3040      1.5900     78.3900
    199    -11.0900      7.1500      1.5490      1.7700     78.3900
    200    -11.9130      7.3030      2.2930      0.0100     78.3900
    201    -10.6460      5.7640      1.5930      1.6800     78.3900
    202    -10.6250      4.9830      2.7100      1.7700     78.3900
    203    -11.1340      4.5650      6.1040      1.6800     78.3900
    204    -11.5320      5.4350      6.3910      0.0100     78.3900
    205    -11.1160      3.7920      6.7440      0.0100     78.3900
    206    -11.0080      5.3570      3.9420      1.6800     78.3900
    207    -10.8610      4.3750      4.8290      1.7700     78.3900
    208    -10.4180      3.1220      4.4910      1.6800     78.3900
    209    -10.3780      2.4080      5.2040      0.0100     78.3900
    210    -10.0310      2.7050      3.2250      1.7700     78.3900
    211     -9.6370      1.5580      2.9930      1.5900     78.3900
    212    -10.1420      3.7590      2.2860      1.7700     78.3900
    213     -9.8490      3.7830      0.9300      1.6800     78.3900
    214    -10.1690      4.9990      0.5570      1.7700     78.3900
    215    -10.0980      5.4000     -0.4560      0.0100     78.3900
    216     -9.9690      8.1250      1.7900      1.7700     78.3900
    217     -9.1270      7.6830      2.3650      0.0100     78.3900
    218    -10.4850      9.2620      2.4600      1.5900     78.3900
    219     -9.8370      9.9740      2.3650      0.0100     78.3900
    220     -9.5470      8.4610      0.3610      1.7700     78.3900
    221     -9.0260      7.5950     -0.1120      0.0100     78.3900
    222     -8.8440      9.7120      0.2180      1.5900     78.3900
    223     -7.2790      9.6680      0.1040      2.1000     78.3900
    224     -6.7760     11.0580      0.0100      1.5900     78.3900
    225     -6.8970      8.7620     -0.9990      1.5900     78.3900
    226     -6.8270      9.0280      1.4680      1.5900     78.3900
    227     -7.0320      9.7900      2.6880      1.7700     78.3900
    228     -8.1110      9.9870      2.8620      0.0100     78.3900
    229     -6.5160     10.7800      2.6370      0.0100     78.3900
    230     -6.5000      9.0350      3.9090      1.7700     78.3900
    231     -6.6560      9.6140      4.8450      0.0100     78.3900
    232     -7.2060      7.7770      4.0490      1.5900     78.3900
    233     -6.3310      6.7970      4.5680      1.7700     78.3900
    234     -6.6680      6.6670      5.6220      0.0100     78.3900
    235     -6.4400      5.5100      3.8480      1.6800     78.3900
    236     -6.5650      5.4940      2.4780      1.7700     78.3900
    237     -6.6220      6.4750      1.9940      0.0100     78.3900
    238     -6.6530      4.3360      1.8080      1.7700     78.3900
    239     -6.7770      4.2960      0.7260      0.0100     78.3900
    240     -6.3500      4.3150      4.5470      1.7700     78.3900
    241     -6.1900      4.3490      5.7800      1.5900     78.3900
    242     -6.4290      3.1420      3.8940      1.6800     78.3900
    243     -6.5800      3.1220      2.5560      1.7700     78.3900
    244     -6.6470      1.9410      1.9480      1.6800     78.3900
    245     -6.6220      1.1180      2.5190      0.0100     78.3900
    246     -6.8370      1.8510      0.9700      0.0100     78.3900
    247     -4.9040      7.3490      4.5890      1.7700     78.3900
    248     -4.2030      6.6690      4.0590      0.0100     78.3900
    249     -4.4670      7.5390      5.9230      1.5900     78.3900
    250     -3.6220      8.0220      5.9160      0.0100     78.3900
    251     -5.0250      8.6610      3.8030      1.7700     78.3900
    252     -4.8140      8.4660      2.7350      0.0100     78.3900
    253     -4.1900      9.7400      4.2650      1.5900     78.3900
    254     -3.2470      9.5170      4.1410      0.0100     78.3900

 CREATION OF A NEW CAVITY WITH THE ORIGINAL SPHERE
 SIZES FOR THE COMPUTATION OF THE CAVITATION ENERGY.

     INPUT FOR CAVITY DEFINITION 
     ---------------------------
   ATOM               COORDINATES                RADIUS       EPS
      1     -6.0660     -7.4840      8.4360      0.0100     78.3900
      2     -6.2510     -6.5340      8.5560      1.5900     78.3900
      3     -5.9480     -6.2340      9.9270      1.7700     78.3900
      4     -4.8850     -6.4950     10.1290      0.0100     78.3900
      5     -6.5850     -6.8650     10.5880      0.0100     78.3900
      6     -6.1760     -4.7630     10.2840      1.7700     78.3900
      7     -5.9760     -4.5860     11.3630      0.0100     78.3900
      8     -5.2650     -3.9130      9.5320      1.5900     78.3900
      9     -5.9060     -2.6760      9.2670      1.7700     78.3900
     10     -5.2850     -1.8840      9.7430      0.0100     78.3900
     11     -6.0010     -2.4230      7.8240      1.6800     78.3900
     12     -6.0310     -1.1900      7.2370      1.7700     78.3900
     13     -6.0180      2.2510      7.5140      1.6800     78.3900
     14     -5.9370      2.3940      8.4970      0.0100     78.3900
     15     -6.0700      3.0450      6.9010      0.0100     78.3900
     16     -5.9850     -0.0150      7.8820      1.6800     78.3900
     17     -6.0550      1.0190      7.0500      1.7700     78.3900
     18     -6.1170      0.8860      5.6860      1.6800     78.3900
     19     -6.1890      1.7220      5.1260      0.0100     78.3900
     20     -6.1270     -0.3130      4.9840      1.7700     78.3900
     21     -6.1680     -0.3330      3.7480      1.5900     78.3900
     22     -6.1080     -1.4280      5.8760      1.7700     78.3900
     23     -6.1580     -2.7950      5.6190      1.6800     78.3900
     24     -6.0940     -3.3480      6.8100      1.7700     78.3900
     25     -6.0920     -4.4230      7.0140      0.0100     78.3900
     26     -7.2730     -2.7100      9.9200      1.7700     78.3900
     27     -8.0360     -2.1650      9.3300      0.0100     78.3900
     28     -7.2110     -2.1650     11.2230      1.5900     78.3900
     29     -8.0740     -2.3220     11.6290      0.0100     78.3900
     30     -7.5630     -4.2050      9.9530      1.7700     78.3900
     31     -7.8140     -4.5740      8.9320      0.0100     78.3900
     32     -8.5120     -4.6190     10.9630      1.5900     78.3900
     33    -10.0240     -4.7750     10.5550      2.1000     78.3900
     34    -10.0790     -5.4280      9.2290      1.5900     78.3900
     35    -10.7490     -5.4390     11.6630      1.5900     78.3900
     36    -10.5030     -3.2860     10.4120      1.5900     78.3900
     37    -10.7160     -2.4560     11.5740      1.7700     78.3900
     38     -9.7600     -2.2510     12.1090      0.0100     78.3900
     39    -11.4010     -2.9510     12.2960      0.0100     78.3900
     40    -11.3610     -1.1230     11.1880      1.7700     78.3900
     41    -11.7040     -0.5690     12.0890      0.0100     78.3900
     42    -10.3550     -0.2900     10.5440      1.5900     78.3900
     43    -10.9690      0.4460      9.4970      1.7700     78.3900
     44    -10.7670      1.5200      9.7240      0.0100     78.3900
     45    -10.4210      0.0930      8.1680      1.6800     78.3900
     46     -9.9620     -1.1800      7.9180      1.7700     78.3900
     47     -9.9920     -1.8640      8.7630      0.0100     78.3900
     48     -9.4680     -1.5250      6.7230      1.7700     78.3900
     49     -9.0790     -2.5190      6.5120      0.0100     78.3900
     50    -10.4610      1.0210      7.1420      1.7700     78.3900
     51    -10.9410      2.1450      7.3620      1.5900     78.3900
     52     -9.9590      0.6970      5.9390      1.6800     78.3900
     53     -9.4790     -0.5330      5.7030      1.7700     78.3900
     54     -9.0460     -0.8120      4.4800      1.6800     78.3900
     55     -9.1120     -0.0790      3.7990      0.0100     78.3900
     56     -8.7130     -1.7140      4.2070      0.0100     78.3900
     57    -12.4620      0.2060      9.5690      1.7700     78.3900
     58    -12.9280      0.2120      8.5640      0.0100     78.3900
     59    -13.0880      1.1650     10.4020      1.5900     78.3900
     60    -13.9990      0.8660     10.5270      0.0100     78.3900
     61    -12.5190     -1.1850     10.1760      1.7700     78.3900
     62    -12.2410     -1.9330      9.3960      0.0100     78.3900
     63    -13.7620     -1.4910     10.8500      1.5900     78.3900
     64    -14.7840     -2.4780     10.1640      2.1000     78.3900
     65    -15.8690     -2.7760     11.1250      1.5900     78.3900
     66    -14.0540     -3.6300      9.5920      1.5900     78.3900
     67    -15.3520     -1.6340      8.9820      1.5900     78.3900
     68    -16.1240     -0.4320      9.1260      1.7700     78.3900
     69    -15.6900      0.2420      9.8990      0.0100     78.3900
     70    -17.1590     -0.6960      9.4350      0.0100     78.3900
     71    -16.2150      0.3510      7.8050      1.7700     78.3900
     72    -16.8390      1.2600      7.9300      0.0100     78.3900
     73    -14.8860      0.7940      7.3980      1.5900     78.3900
     74    -14.7730      0.7400      5.9880      1.7700     78.3900
     75    -14.4660      1.7640      5.6760      0.0100     78.3900
     76    -13.7680     -0.2680      5.5590      1.6800     78.3900
     77    -13.6140     -1.4420      6.2470      1.7700     78.3900
     78    -14.2140     -1.5290      7.1410      0.0100     78.3900
     79    -13.0160     -0.0180      4.4400      1.7700     78.3900
     80    -13.1080      1.0360      3.8100      1.5900     78.3900
     81    -12.1560     -1.0210      4.0620      1.6800     78.3900
     82    -11.6200     -0.8550      3.2300      0.0100     78.3900
     83    -11.9640     -2.2280      4.7160      1.7700     78.3900
     84    -11.1240     -3.0350      4.3200      1.5900     78.3900
     85    -12.7620     -2.4050      5.8870      1.7700     78.3900
     86    -12.6470     -3.3120      6.4760      0.0100     78.3900
     87    -16.1690      0.4460      5.4520      1.7700     78.3900
     88    -16.1470     -0.1220      4.4950      0.0100     78.3900
     89    -16.8770      1.6730      5.2910      1.5900     78.3900
     90    -16.7460      1.9530      4.3640      0.0100     78.3900
     91    -16.7370     -0.4090      6.5790      1.7700     78.3900
     92    -16.2340     -1.4030      6.5920      0.0100     78.3900
     93    -18.1790     -0.5090      6.6000      1.5900     78.3900
     94    -18.8560     -1.8970      6.2840      2.1000     78.3900
     95    -18.4720     -2.8810      7.3080      1.5900     78.3900
     96    -20.3090     -1.6720      6.0890      1.5900     78.3900
     97    -18.2220     -2.3220      4.9040      1.5900     78.3900
     98    -18.4360     -3.6450      4.3640      1.7700     78.3900
     99    -19.3390     -4.1480      4.7910      0.0100     78.3900
    100    -17.5540     -4.2780      4.6090      0.0100     78.3900
    101    -18.5840     -3.6260      2.8330      1.7700     78.3900
    102    -18.4830     -4.6560      2.4210      0.0100     78.3900
    103    -19.9250     -3.1550      2.5050      1.5900     78.3900
    104    -19.8720     -2.2730      1.3910      1.7700     78.3900
    105    -20.5660     -2.7040      0.6350      0.0100     78.3900
    106    -20.3060     -0.8870      1.7120      1.6800     78.3900
    107    -20.0900     -0.4110      2.9810      1.7700     78.3900
    108    -19.6370     -1.1140      3.6720      0.0100     78.3900
    109    -20.4430      0.8250      3.3380      1.7700     78.3900
    110    -20.3200      1.1880      4.3570      0.0100     78.3900
    111    -20.8380     -0.0370      0.7440      1.7700     78.3900
    112    -20.9580     -0.4480     -0.4290      1.5900     78.3900
    113    -21.2280      1.2120      1.0900      1.6800     78.3900
    114    -21.0340      1.6550      2.3490      1.7700     78.3900
    115    -21.4220      2.8850      2.6680      1.6800     78.3900
    116    -21.9010      3.4320      1.9800      0.0100     78.3900
    117    -21.3800      3.2260      3.6100      0.0100     78.3900
    118    -18.4700     -2.3130      0.8450      1.7700     78.3900
    119    -18.1510     -1.3240      0.5000      0.0100     78.3900
    120    -18.3700     -3.2620     -0.2020      1.5900     78.3900
    121    -18.4340     -4.1520      0.1740      0.0100     78.3900
    122    -17.6390     -2.6820      2.0660      1.7700     78.3900
    123    -17.4880     -1.7730      2.6950      0.0100     78.3900
    124    -16.3980     -3.3480      1.7550      1.5900     78.3900
    125    -15.0740     -2.5080      1.5720      2.1000     78.3900
    126    -14.0440     -3.4010      0.9900      1.5900     78.3900
    127    -14.7770     -1.8830      2.8700      1.5900     78.3900
    128    -15.3970     -1.3660      0.5330      1.5900     78.3900
    129    -15.5590     -1.6660     -0.8740      1.7700     78.3900
    130    -16.2160     -2.5500     -1.0400      0.0100     78.3900
    131    -14.5770     -1.9210     -1.3280      0.0100     78.3900
    132    -16.1470     -0.4780     -1.6590      1.7700     78.3900
    133    -16.4460     -0.7830     -2.6840      0.0100     78.3900
    134    -17.3270      0.0650     -0.9980      1.5900     78.3900
    135    -17.3140      1.4670     -1.0300      1.7700     78.3900
    136    -18.2820      1.7870     -1.4870      0.0100     78.3900
    137    -17.2040      2.0450      0.3220      1.6800     78.3900
    138    -17.3350      3.4030      2.0550      1.7700     78.3900
    139    -16.7840      2.2270      2.5250      1.6800     78.3900
    140    -16.7260      1.4530      1.4690      1.7700     78.3900
    141    -16.3540      0.4300      1.4820      0.0100     78.3900
    142    -18.2350      5.5840      1.9390      1.6800     78.3900
    143    -18.4050      5.3540      0.6340      1.7700     78.3900
    144    -18.8480      6.1840      0.0760      0.0100     78.3900
    145    -18.1270      4.2600     -0.0840      1.6800     78.3900
    146    -17.5970      3.3090      0.6970      1.7700     78.3900
    147    -17.6790      4.6100      2.7010      1.7700     78.3900
    148    -17.5030      4.8350      4.0220      1.6800     78.3900
    149    -17.1150      4.1480      4.6340      0.0100     78.3900
    150    -17.6680      5.7510      4.3910      0.0100     78.3900
    151    -16.1800      1.8600     -1.9340      1.7700     78.3900
    152    -15.7150      2.8030     -1.6110      0.0100     78.3900
    153    -16.6470      1.9480     -3.2680      1.5900     78.3900
    154    -15.8670      2.0070     -3.8340      0.0100     78.3900
    155    -15.1960      0.7110     -1.7660      1.7700     78.3900
    156    -14.6710      0.7870     -0.7850      0.0100     78.3900
    157    -14.2940      0.5230     -2.8790      1.5900     78.3900
    158    -12.8740      1.2110     -2.8670      2.1000     78.3900
    159    -12.2210      0.9680     -4.1710      1.5900     78.3900
    160    -12.1420      0.7730     -1.6610      1.5900     78.3900
    161    -13.1780      2.7470     -2.7470      1.5900     78.3900
    162    -13.7120      3.5180     -3.8460      1.7700     78.3900
    163    -14.5950      3.0200     -4.3070      0.0100     78.3900
    164    -12.9430      3.6280     -4.6450      0.0100     78.3900
    165    -14.1330      4.9280     -3.4020      1.7700     78.3900
    166    -14.5910      5.4900     -4.2440      0.0100     78.3900
    167    -15.1300      4.8460     -2.3450      1.5900     78.3900
    168    -14.8990      5.8420     -1.3730      1.7700     78.3900
    169    -15.8500      6.4250     -1.3200      0.0100     78.3900
    170    -14.5880      5.2860     -0.0130      1.6800     78.3900
    171    -13.9830      4.0590      0.1180      1.7700     78.3900
    172    -13.7320      3.5640     -0.8110      0.0100     78.3900
    173    -13.7550      3.5060      1.3150      1.7700     78.3900
    174    -13.3130      2.5180      1.4320      0.0100     78.3900
    175    -14.8860      6.0180      1.1310      1.7700     78.3900
    176    -15.4120      7.1380      1.0000      1.5900     78.3900
    177    -14.6500      5.4870      2.3580      1.6800     78.3900
    178    -14.1430      4.2430      2.4670      1.7700     78.3900
    179    -14.0160      3.7060      3.6800      1.6800     78.3900
    180    -13.7170      2.7520      3.7890      0.0100     78.3900
    181    -14.3010      4.2330      4.4770      0.0100     78.3900
    182    -13.8170      6.7350     -1.9230      1.7700     78.3900
    183    -13.2270      7.1500     -1.1170      0.0100     78.3900
    184    -14.3590      7.8110     -2.6650      1.5900     78.3900
    185    -13.6210      8.2460     -3.1170      0.0100     78.3900
    186    -13.0130      5.7830     -2.8040      1.7700     78.3900
    187    -12.3840      5.1050     -2.1800      0.0100     78.3900
    188    -12.2730      6.4300     -3.8580      1.5900     78.3900
    189    -10.7180      6.6440     -3.7650      2.1000     78.3900
    190    -10.3630      7.7330     -4.7020      1.5900     78.3900
    191    -10.0460      5.3400     -3.9710      1.5900     78.3900
    192    -10.4820      7.1150     -2.2830      1.5900     78.3900
    193    -10.8940      8.4360     -1.8600      1.7700     78.3900
    194    -11.9100      8.6990     -2.2290      0.0100     78.3900
    195    -10.1980      9.1990     -2.2680      0.0100     78.3900
    196    -10.9020      8.5530     -0.3210      1.7700     78.3900
    197    -11.3770      9.5060     -0.0080      0.0100     78.3900
    198    -11.6500      7.4760      0.3040      1.5900     78.3900
    199    -11.0900      7.1500      1.5490      1.7700     78.3900
    200    -11.9130      7.3030      2.2930      0.0100     78.3900
    201    -10.6460      5.7640      1.5930      1.6800     78.3900
    202    -10.6250      4.9830      2.7100      1.7700     78.3900
    203    -11.1340      4.5650      6.1040      1.6800     78.3900
    204    -11.5320      5.4350      6.3910      0.0100     78.3900
    205    -11.1160      3.7920      6.7440      0.0100     78.3900
    206    -11.0080      5.3570      3.9420      1.6800     78.3900
    207    -10.8610      4.3750      4.8290      1.7700     78.3900
    208    -10.4180      3.1220      4.4910      1.6800     78.3900
    209    -10.3780      2.4080      5.2040      0.0100     78.3900
    210    -10.0310      2.7050      3.2250      1.7700     78.3900
    211     -9.6370      1.5580      2.9930      1.5900     78.3900
    212    -10.1420      3.7590      2.2860      1.7700     78.3900
    213     -9.8490      3.7830      0.9300      1.6800     78.3900
    214    -10.1690      4.9990      0.5570      1.7700     78.3900
    215    -10.0980      5.4000     -0.4560      0.0100     78.3900
[...]
     FOCK TIME ON FIRST ITERATION=       4.2, LAST ITERATION=       1.9
     TIME TO SOLVE SCF EQUATIONS=       0.6 SECONDS (       0.0 SEC/ITER)

 FINAL RHF ENERGY IS    -1391.0630620793 AFTER  14 ITERATIONS
 ...... END OF RHF CALCULATION ......
 CPU     0: STEP CPU TIME=    76.58 TOTAL CPU TIME=        952.3 (     15.9 MIN)
 TOTAL WALL CLOCK TIME=       1917.3 SECONDS, CPU UTILIZATION IS    49.67%
 DONE PCM POT.
 CPU     0: STEP CPU TIME=     0.40 TOTAL CPU TIME=        952.7 (     15.9 MIN)
 TOTAL WALL CLOCK TIME=       1918.3 SECONDS, CPU UTILIZATION IS    49.66%

 Iter=  2 iFrag=      5 EFMO= -1432.583333445, DD= 0.074269762, DE=-0.442790937


 RHF      monomer      6 corr= NONE       , L1=   341, L0=   320 ID=      4


 AO spaces for     6     0     0 n-mer: L1=   341, L0=   320

 DIRECT SCF CALCULATION, SCHWRZ=T   FDIFF=T,  DIRTHR=  0.00E+00 NITDIR=10

                                                                                   NONZERO     BLOCKS
 ITER EX DEM     TOTAL ENERGY        E CHANGE  DENSITY CHANGE     ORB. GRAD      INTEGRALS    SKIPPED
   1  0  0    -1322.1575533690 -1322.1575533690   0.089969587   0.000000000      657213047   10568288
          ---------------START SECOND ORDER SCF---------------
   2  1  0    -1322.1840667304    -0.0265133614   0.026906508   0.004741036      632269759   11232229
   3  2  0    -1322.1860785674    -0.0020118369   0.012371322   0.002455477      609629545   11558535
   4  3  0    -1322.1862225081    -0.0001439407   0.002963083   0.000460389      583486896   11846808
   5  4  0    -1322.1861450067     0.0000775014   0.000773741   0.000198709      561600594   12092012
   6  5  0    -1322.1861523419    -0.0000073352   0.000183280   0.000099734      530457511   12397143
   7  6  0    -1322.1861630683    -0.0000107265   0.000055020   0.000028440      505732850   12625219
   8  7  0    -1322.1861623323     0.0000007360   0.000027205   0.000013834      476411236   12902109
   9  8  0    -1322.1861608360     0.0000014963   0.000011905   0.000004479      449566675   13154401
  10  9  0    -1322.1861607425     0.0000000935   0.000003299   0.000001145      416741445   13430931
  11 10  0    -1322.1861608044    -0.0000000619   0.000001251   0.000000728      383975744   13717569
  12 11  0    -1322.1861608238    -0.0000000194   0.000000411   0.000000172      352462743   14003330
  13 12  0    -1322.1861608162     0.0000000076   0.000000201   0.000000150      316874751   14284152
  14 13  0    -1322.1861608159     0.0000000003   0.000000063   0.000000039      286381677   14551339

          -----------------
          DENSITY CONVERGED
          -----------------
     TIME TO FORM FOCK OPERATORS=      33.6 SECONDS (       2.4 SEC/ITER)
     FOCK TIME ON FIRST ITERATION=       3.5, LAST ITERATION=       1.5
     TIME TO SOLVE SCF EQUATIONS=       0.5 SECONDS (       0.0 SEC/ITER)

 FINAL RHF ENERGY IS    -1322.1861608159 AFTER  14 ITERATIONS
 ...... END OF RHF CALCULATION ......
 CPU     0: STEP CPU TIME=    68.39 TOTAL CPU TIME=       1021.1 (     17.0 MIN)
 TOTAL WALL CLOCK TIME=       2057.5 SECONDS, CPU UTILIZATION IS    49.63%
 DONE PCM POT.
 CPU     0: STEP CPU TIME=     0.37 TOTAL CPU TIME=       1021.4 (     17.0 MIN)
 TOTAL WALL CLOCK TIME=       2058.3 SECONDS, CPU UTILIZATION IS    49.62%

 Iter=  2 iFrag=      6 EFMO= -1360.657260304, DD= 0.103539989, DE=-0.446111146


 RHF      monomer      4 corr= NONE       , L1=   341, L0=   320 ID=      5


 AO spaces for     4     0     0 n-mer: L1=   341, L0=   320

 DIRECT SCF CALCULATION, SCHWRZ=T   FDIFF=T,  DIRTHR=  0.00E+00 NITDIR=10

                                                                                   NONZERO     BLOCKS
 ITER EX DEM     TOTAL ENERGY        E CHANGE  DENSITY CHANGE     ORB. GRAD      INTEGRALS    SKIPPED
   1  0  0    -1325.8190432019 -1325.8190432019   0.091928535   0.000000000      666265953   10511293
          ---------------START SECOND ORDER SCF---------------
   2  1  0    -1325.8434293453    -0.0243861435   0.026727435   0.005171210      641320642   11164814
   3  2  0    -1325.8451799082    -0.0017505628   0.012070620   0.002350393      616362265   11511756
   4  3  0    -1325.8449774279     0.0002024803   0.002475209   0.000503008      594095238   11769112
   5  4  0    -1325.8448388842     0.0001385437   0.000616600   0.000233703      569475392   12030480
   6  5  0    -1325.8448416978    -0.0000028137   0.000205899   0.000077003      541173516   12314178
   7  6  0    -1325.8448520932    -0.0000103953   0.000146365   0.000038295      514968234   12541826
   8  7  0    -1325.8448514967     0.0000005964   0.000024253   0.000013668      484098671   12841426
   9  8  0    -1325.8448498254     0.0000016713   0.000008814   0.000004111      453346414   13108208
  10  9  0    -1325.8448493370     0.0000004884   0.000002854   0.000001631      421658947   13385891
  11 10  0    -1325.8448494268    -0.0000000899   0.000001042   0.000000605      382164804   13740043
  12 11  0    -1325.8448495284    -0.0000001015   0.000000680   0.000000331      358701039   13936409
  13 12  0    -1325.8448495273     0.0000000010   0.000000207   0.000000058      318539653   14288142
  14 13  0    -1325.8448495195     0.0000000078   0.000000072   0.000000023      296219412   14473969

          -----------------
          DENSITY CONVERGED
          -----------------
     TIME TO FORM FOCK OPERATORS=      34.1 SECONDS (       2.4 SEC/ITER)
     FOCK TIME ON FIRST ITERATION=       3.3, LAST ITERATION=       1.6
     TIME TO SOLVE SCF EQUATIONS=       0.5 SECONDS (       0.0 SEC/ITER)

 FINAL RHF ENERGY IS    -1325.8448495195 AFTER  14 ITERATIONS
 ...... END OF RHF CALCULATION ......
 CPU     0: STEP CPU TIME=    55.06 TOTAL CPU TIME=       1076.5 (     17.9 MIN)
 TOTAL WALL CLOCK TIME=       2171.0 SECONDS, CPU UTILIZATION IS    49.59%
 DONE PCM POT.
 CPU     0: STEP CPU TIME=     0.37 TOTAL CPU TIME=       1076.9 (     17.9 MIN)
 TOTAL WALL CLOCK TIME=       2171.8 SECONDS, CPU UTILIZATION IS    49.58%

 Iter=  2 iFrag=      4 EFMO= -1360.670006942, DD= 0.107020254, DE=-0.425392749


 RHF      monomer      2 corr= NONE       , L1=   341, L0=   320 ID=      6


 AO spaces for     2     0     0 n-mer: L1=   341, L0=   320

 DIRECT SCF CALCULATION, SCHWRZ=T   FDIFF=T,  DIRTHR=  0.00E+00 NITDIR=10

                                                                                   NONZERO     BLOCKS
 ITER EX DEM     TOTAL ENERGY        E CHANGE  DENSITY CHANGE     ORB. GRAD      INTEGRALS    SKIPPED
   1  0  0    -1326.2688480020 -1326.2688480020   0.071763179   0.000000000      668098897   10517752
          ---------------START SECOND ORDER SCF---------------
   2  1  0    -1326.2996037236    -0.0307557216   0.027088647   0.006155646      642553908   11160991
   3  2  0    -1326.3020368264    -0.0024331028   0.010072526   0.002750281      619549038   11481415
   4  3  0    -1326.3024151904    -0.0003783641   0.002109971   0.000583743      593891539   11765349
   5  4  0    -1326.3023463126     0.0000688778   0.000830637   0.000325359      569266655   12019024
   6  5  0    -1326.3023701721    -0.0000238594   0.000264166   0.000077478      541163434   12297638
   7  6  0    -1326.3023870314    -0.0000168594   0.000096519   0.000040530      515291944   12533178
   8  7  0    -1326.3023894804    -0.0000024490   0.000035348   0.000014455      485982655   12805603
   9  8  0    -1326.3023885869     0.0000008935   0.000012345   0.000006122      453972592   13081355
  10  9  0    -1326.3023887888    -0.0000002019   0.000003272   0.000001952      424559883   13344356
  11 10  0    -1326.3023888881    -0.0000000993   0.000001291   0.000000626      384919122   13709839
  12 11  0    -1326.3023889332    -0.0000000450   0.000000405   0.000000262      359040790   13923952
  13 12  0    -1326.3023889254     0.0000000077   0.000000171   0.000000115      318622993   14268947
  14 13  0    -1326.3023889219     0.0000000035   0.000000069   0.000000039      289715710   14516746

          -----------------
          DENSITY CONVERGED
          -----------------
     TIME TO FORM FOCK OPERATORS=      34.0 SECONDS (       2.4 SEC/ITER)
     FOCK TIME ON FIRST ITERATION=       3.3, LAST ITERATION=       1.5
     TIME TO SOLVE SCF EQUATIONS=       0.5 SECONDS (       0.0 SEC/ITER)

 FINAL RHF ENERGY IS    -1326.3023889219 AFTER  14 ITERATIONS
 ...... END OF RHF CALCULATION ......
 CPU     0: STEP CPU TIME=    68.07 TOTAL CPU TIME=       1144.9 (     19.1 MIN)
 TOTAL WALL CLOCK TIME=       2309.9 SECONDS, CPU UTILIZATION IS    49.57%
 DONE PCM POT.
 CPU     0: STEP CPU TIME=     0.41 TOTAL CPU TIME=       1145.3 (     19.1 MIN)
 TOTAL WALL CLOCK TIME=       2310.8 SECONDS, CPU UTILIZATION IS    49.56%

 Iter=  2 iFrag=      2 EFMO= -1360.660361632, DD= 0.082402700, DE=-0.457124056


 RHF      monomer      3 corr= NONE       , L1=   339, L0=   318 ID=      7


 AO spaces for     3     0     0 n-mer: L1=   339, L0=   318

 DIRECT SCF CALCULATION, SCHWRZ=T   FDIFF=T,  DIRTHR=  0.00E+00 NITDIR=10

                                                                                   NONZERO     BLOCKS
 ITER EX DEM     TOTAL ENERGY        E CHANGE  DENSITY CHANGE     ORB. GRAD      INTEGRALS    SKIPPED
   1  0  0    -1340.0012804236 -1340.0012804236   0.081447141   0.000000000      649926060    9591888
          ---------------START SECOND ORDER SCF---------------
   2  1  0    -1340.0260820113    -0.0248015877   0.028345008   0.004946676      625478025   10195244
   3  2  0    -1340.0282727957    -0.0021907843   0.011953338   0.002793424      604160957   10489168
   4  3  0    -1340.0285658381    -0.0002930424   0.002902329   0.000762924      574590914   10801631
   5  4  0    -1340.0284697123     0.0000961258   0.000553309   0.000361244      555077398   11008764
   6  5  0    -1340.0284864721    -0.0000167598   0.000467150   0.000143172      524327901   11301561
   7  6  0    -1340.0284997601    -0.0000132880   0.000149250   0.000061149      501481995   11504842
   8  7  0    -1340.0284997023     0.0000000578   0.000030671   0.000016075      477125217   11730023
   9  8  0    -1340.0284986446     0.0000010577   0.000016493   0.000005001      447139177   11986951
  10  9  0    -1340.0284985577     0.0000000868   0.000004410   0.000001361      416844981   12247767
  11 10  0    -1340.0284986475    -0.0000000898   0.000001541   0.000000371      372532506   12646815
  12 11  0    -1340.0284986852    -0.0000000377   0.000000520   0.000000149      346022334   12866832
  13 12  0    -1340.0284986806     0.0000000046   0.000000124   0.000000050      301897180   13241087
  14 13  0    -1340.0284986789     0.0000000017   0.000000049   0.000000014      271289962   13496515

          -----------------
          DENSITY CONVERGED
          -----------------
     TIME TO FORM FOCK OPERATORS=      34.0 SECONDS (       2.4 SEC/ITER)
     FOCK TIME ON FIRST ITERATION=       3.7, LAST ITERATION=       1.3
     TIME TO SOLVE SCF EQUATIONS=       0.5 SECONDS (       0.0 SEC/ITER)

 FINAL RHF ENERGY IS    -1340.0284986789 AFTER  14 ITERATIONS
 ...... END OF RHF CALCULATION ......
 CPU     0: STEP CPU TIME=    75.82 TOTAL CPU TIME=       1221.2 (     20.4 MIN)
 TOTAL WALL CLOCK TIME=       2463.2 SECONDS, CPU UTILIZATION IS    49.58%
 DONE PCM POT.
 CPU     0: STEP CPU TIME=     0.36 TOTAL CPU TIME=       1221.5 (     20.4 MIN)
 TOTAL WALL CLOCK TIME=       2464.0 SECONDS, CPU UTILIZATION IS    49.57%

 Iter=  2 iFrag=      3 EFMO= -1380.522341335, DD= 0.094838771, DE=-0.414328949


 RHF      monomer      8 corr= NONE       , L1=   264, L0=   248 ID=      8


 AO spaces for     8     0     0 n-mer: L1=   264, L0=   248

 DIRECT SCF CALCULATION, SCHWRZ=T   FDIFF=T,  DIRTHR=  0.00E+00 NITDIR=10

                                                                                   NONZERO     BLOCKS
 ITER EX DEM     TOTAL ENERGY        E CHANGE  DENSITY CHANGE     ORB. GRAD      INTEGRALS    SKIPPED
   1  0  0     -767.8851018099  -767.8851018099   0.034181748   0.000000000      316848619    4058142
          ---------------START SECOND ORDER SCF---------------
   2  1  0     -767.8956031050    -0.0105012951   0.013538183   0.003608204      308690038    4387140
   3  2  0     -767.8967605914    -0.0011574864   0.006677149   0.005456205      301310526    4538531
   4  3  0     -767.8968034112    -0.0000428198   0.003036458   0.000902170      294229002    4661379
   5  4  0     -767.8966634044     0.0001400068   0.001151396   0.000304612      285177371    4792710
   6  5  0     -767.8966949971    -0.0000315926   0.000359160   0.000092484      274363598    4935407
   7  6  0     -767.8967256905    -0.0000306935   0.000089057   0.000042828      265565610    5042485
   8  7  0     -767.8967245352     0.0000011553   0.000034215   0.000023026      251580795    5214128
   9  8  0     -767.8967236200     0.0000009152   0.000012930   0.000005908      240597262    5342951
  10  9  0     -767.8967236146     0.0000000054   0.000006332   0.000002497      225168663    5515946
  11 10  0     -767.8967236243    -0.0000000097   0.000002742   0.000000961      210319184    5694710
  12 11  0     -767.8967236360    -0.0000000117   0.000000525   0.000000282      198216966    5821352
  13 12  0     -767.8967236173     0.0000000187   0.000000219   0.000000056      178262815    6047122
  14 13  0     -767.8967236085     0.0000000089   0.000000094   0.000000022      168027045    6148408
  15 14  0     -767.8967236077     0.0000000008   0.000000000   0.000000007      145001636    6392130

          -----------------
          DENSITY CONVERGED
          -----------------
     TIME TO FORM FOCK OPERATORS=      18.9 SECONDS (       1.3 SEC/ITER)
     FOCK TIME ON FIRST ITERATION=       1.8, LAST ITERATION=       0.9
     TIME TO SOLVE SCF EQUATIONS=       0.3 SECONDS (       0.0 SEC/ITER)

 FINAL RHF ENERGY IS     -767.8967236077 AFTER  15 ITERATIONS
 ...... END OF RHF CALCULATION ......
 CPU     0: STEP CPU TIME=    35.89 TOTAL CPU TIME=       1257.4 (     21.0 MIN)
 TOTAL WALL CLOCK TIME=       2535.5 SECONDS, CPU UTILIZATION IS    49.59%
 DONE PCM POT.
 CPU     0: STEP CPU TIME=     0.22 TOTAL CPU TIME=       1257.6 (     21.0 MIN)
 TOTAL WALL CLOCK TIME=       2536.0 SECONDS, CPU UTILIZATION IS    49.59%

 Iter=  2 iFrag=      8 EFMO=  -795.825547346, DD= 0.050821862, DE=-0.019890032

 CPU     0: STEP CPU TIME=     0.00 TOTAL CPU TIME=       1257.6 (     21.0 MIN)
 TOTAL WALL CLOCK TIME=       2536.0 SECONDS, CPU UTILIZATION IS    49.59%

  Monomer SCF synchronisation on iteration   2.1 took     0.0 s.
 CPU     0: STEP CPU TIME=     0.00 TOTAL CPU TIME=       1257.6 (     21.0 MIN)
 TOTAL WALL CLOCK TIME=       2536.0 SECONDS, CPU UTILIZATION IS    49.59%
 dmexch needs              2967020  words of memory.
 CPU     0: STEP CPU TIME=     0.01 TOTAL CPU TIME=       1257.6 (     21.0 MIN)
 TOTAL WALL CLOCK TIME=       2536.0 SECONDS, CPU UTILIZATION IS    49.59%

 Data exchange of    982767 words took     0.0 s.

 Calculating apparent surface charges...
     Using       40969 words of memory.
 ASC ITERATION=   1 CONVERGED TO  0.988084E-02
 ASC ITERATION=   2 CONVERGED TO  0.947372E-01
 ASC ITERATION=   3 CONVERGED TO  0.126456E+00
 ASC ITERATION=   4 CONVERGED TO  0.105897E-01
 ASC ITERATION=   5 CONVERGED TO  0.536942E-02
 ASC ITERATION=   6 CONVERGED TO  0.272601E-02
 ASC ITERATION=   7 CONVERGED TO  0.909893E-03
 ASC ITERATION=   8 CONVERGED TO  0.812945E-03
 ASC ITERATION=   9 CONVERGED TO  0.480767E-03
 ASC ITERATION=  10 CONVERGED TO  0.168554E-03
 ASC ITERATION=  11 CONVERGED TO  0.105514E-03
 ASC ITERATION=  12 CONVERGED TO  0.510404E-04
 ASC ITERATION=  13 CONVERGED TO  0.320898E-04
 ASC ITERATION=  14 CONVERGED TO  0.140072E-04
 ASC ITERATION=  15 CONVERGED TO  0.899510E-05
 ASC ITERATION=  16 CONVERGED TO  0.480034E-05
 ASC ITERATION=  17 CONVERGED TO  0.325357E-05
 ASC ITERATION=  18 CONVERGED TO  0.155855E-05
 ASC ITERATION=  19 CONVERGED TO  0.104704E-05
 ASC ITERATION=  20 CONVERGED TO  0.470508E-06
 ASC ITERATION=  21 CONVERGED TO  0.242553E-06
 ASC ITERATION=  22 CONVERGED TO  0.111788E-06
 ASC ITERATION=  23 CONVERGED TO  0.575950E-07
 ASC ITERATION=  24 CONVERGED TO  0.290234E-07
 ASC ITERATION=  25 CONVERGED TO  0.158419E-07
 ASC ITERATION=  26 CONVERGED TO  0.897572E-08
 ASC ITERATION=  27 CONVERGED TO  0.507359E-08
 ASC ITERATION=  28 CONVERGED TO  0.283514E-08
 ASC ITERATION=  29 CONVERGED TO  0.169602E-08
 ASC ITERATION=  30 CONVERGED TO  0.782464E-09
 ASC ITERATION=  31 CONVERGED TO  0.487219E-09
 ASC ITERATION=  32 CONVERGED TO  0.257036E-09
 ASC ITERATION=  33 CONVERGED TO  0.119869E-09
 ASC ITERATION=  34 CONVERGED TO  0.379201E-10

 THE ASC EQUATIONS FOR PHASE=1 CONVERGED IN  34 ITERATIONS.

 PCM ASC=      6.8582507931 normalised to=      6.9107028958
 Nuclear factor=   1.0031723965, electronic factor=   1.0031966508

 CPU     0: STEP CPU TIME=     0.20 TOTAL CPU TIME=       1257.8 (     21.0 MIN)
 TOTAL WALL CLOCK TIME=       2536.4 SECONDS, CPU UTILIZATION IS    49.59%


 ------------------------------------------------------------------------------
 FMO iter  2.1,      0 fragment(s) converged, maxD 0.107020254 maxE 0.461334410
 ------------------------------------------------------------------------------

 RHF      monomer      1 corr= NONE       , L1=   403, L0=   378 ID=      1


 AO spaces for     1     0     0 n-mer: L1=   403, L0=   378

 DIRECT SCF CALCULATION, SCHWRZ=T   FDIFF=T,  DIRTHR=  0.00E+00 NITDIR=10

                                                                                   NONZERO     BLOCKS
 ITER EX DEM     TOTAL ENERGY        E CHANGE  DENSITY CHANGE     ORB. GRAD      INTEGRALS    SKIPPED
   1  0  0    -1550.0294250311 -1550.0294250311   0.010421587   0.000000000     1003349854   21887723
          ---------------START SECOND ORDER SCF---------------
   2  1  0    -1550.0279828847     0.0014421464   0.002858194   0.000519060      929304935   23519388
   3  2  0    -1550.0281297205    -0.0001468359   0.001037786   0.000426726      889013038   24005644
   4  3  0    -1550.0279691853     0.0001605352   0.000363071   0.000046199      830610378   24568327
   5  4  0    -1550.0279121238     0.0000570615   0.000111464   0.000051841      789530382   24948784
   6  5  0    -1550.0279046862     0.0000074377   0.000033545   0.000018811      748887958   25317278
   7  6  0    -1550.0279091654    -0.0000044792   0.000016524   0.000005872      689566220   25825124
   8  7  0    -1550.0279093451    -0.0000001797   0.000006786   0.000003719      646764882   26190855
   9  8  0    -1550.0279088393     0.0000005058   0.000002804   0.000001050      603237563   26583937
  10  9  0    -1550.0279087532     0.0000000861   0.000000745   0.000000333      553490577   26992082
  11 10  0    -1550.0279087776    -0.0000000244   0.000000296   0.000000102      506739081   27342695
  12 11  0    -1550.0279087920    -0.0000000143   0.000000089   0.000000028      461784610   27729894
  13 12  0    -1550.0279087924    -0.0000000005   0.000000027   0.000000013      403878566   28160537

          -----------------
          DENSITY CONVERGED
          -----------------
     TIME TO FORM FOCK OPERATORS=      44.7 SECONDS (       3.4 SEC/ITER)
     FOCK TIME ON FIRST ITERATION=       5.6, LAST ITERATION=       2.1
     TIME TO SOLVE SCF EQUATIONS=       0.7 SECONDS (       0.1 SEC/ITER)

 FINAL RHF ENERGY IS    -1550.0279087924 AFTER  13 ITERATIONS
 ...... END OF RHF CALCULATION ......
 CPU     0: STEP CPU TIME=    77.54 TOTAL CPU TIME=       1335.4 (     22.3 MIN)
 TOTAL WALL CLOCK TIME=       2693.1 SECONDS, CPU UTILIZATION IS    49.59%
 DONE PCM POT.
 CPU     0: STEP CPU TIME=     0.47 TOTAL CPU TIME=       1335.8 (     22.3 MIN)
 TOTAL WALL CLOCK TIME=       2694.2 SECONDS, CPU UTILIZATION IS    49.58%

 Iter=  3 iFrag=      1 EFMO= -1597.646651425, DD= 0.014081705, DE=-0.036820754


 RHF      monomer      7 corr= NONE       , L1=   386, L0=   362 ID=      2

