‘4A4S_3_fmo_input.inp’ -> ‘/scratch/hazwong/824081/./4A4S_3_fmo_input.inp’
‘rungms’ -> ‘/scratch/hazwong/824081/./rungms’
‘gms-files.csh’ -> ‘/scratch/hazwong/824081/./gms-files.csh’
----- GAMESS execution script 'rungms' -----
This job is running on host gollum090.lsa.umich.edu
under operating system Linux at Sat Dec 7 00:01:51 EST 2019
Available scratch disk space (Kbyte units) at beginning of the job is
Filesystem     1K-blocks  Used Available Use% Mounted on
/dev/sda4      426933580 33424 426900156   1% /scratch
GAMESS temporary binary files will be written to /scratch/hazwong/824081/4A4S_3/usrc
GAMESS supplementary output files will be written to /scratch/hazwong/824081/4A4S_3/src
Copying input file 4A4S_3_fmo_input.inp to your run's scratch directory...
cp 4A4S_3_fmo_input.inp /scratch/hazwong/824081/4A4S_3/usrc/4A4S_3_fmo_input.F05
unset echo
This is a GDDI run, keeping various output files on local disks
setenv OUTPUT /scratch/hazwong/824081/4A4S_3/usrc/4A4S_3_fmo_input.F06
setenv PUNCH /scratch/hazwong/824081/4A4S_3/usrc/4A4S_3_fmo_input.F07
unset echo
 
Assuming a single but multicore node.
 
/export/apps/CentOS7/gamess/src/build//ddikick.x /export/apps/CentOS7/gamess/src/build//gamess.R3.x 4A4S_3_fmo_input -ddi 1 16 gollum090.lsa.umich.edu:cpus=16 -scr /scratch/hazwong/824081/4A4S_3/usrc

 Distributed Data Interface kickoff program.
 Initiating 16 compute processes on 1 nodes to run the following command:
 /export/apps/CentOS7/gamess/src/build//gamess.R3.x 4A4S_3_fmo_input 

          ******************************************************
          *         GAMESS VERSION = 30 SEP 2018 (R3)         *
          *             FROM IOWA STATE UNIVERSITY             *
          * M.W.SCHMIDT, K.K.BALDRIDGE, J.A.BOATZ, S.T.ELBERT, *
          *   M.S.GORDON, J.H.JENSEN, S.KOSEKI, N.MATSUNAGA,   *
          *          K.A.NGUYEN, S.J.SU, T.L.WINDUS,           *
          *       TOGETHER WITH M.DUPUIS, J.A.MONTGOMERY       *
          *         J.COMPUT.CHEM.  14, 1347-1363(1993)        *
          **************** 64 BIT LINUX VERSION ****************

  SINCE 1993, STUDENTS AND POSTDOCS WORKING AT IOWA STATE UNIVERSITY
  AND ALSO IN THEIR VARIOUS JOBS AFTER LEAVING ISU HAVE MADE IMPORTANT
  CONTRIBUTIONS TO THE CODE:
     IVANA ADAMOVIC, CHRISTINE AIKENS, YURI ALEXEEV, POOJA ARORA,
     ANDREY ASADCHEV, ROB BELL, PRADIPTA BANDYOPADHYAY, JONATHAN BENTZ,
     BRETT BODE, KURT BRORSEN, CALEB CARLIN, GALINA CHABAN, WEI CHEN,
     CHEOL HO CHOI, PAUL DAY, ALBERT DEFUSCO, NUWAN DESILVA, TIM DUDLEY,
     DMITRI FEDOROV, ALEX FINDLATER, GRAHAM FLETCHER, MARK FREITAG,
     KURT GLAESEMANN, ANASTASIA GUNINA,
     DAN KEMP, GRANT MERRILL, NORIYUKI MINEZAWA, JONATHAN MULLIN,
     TAKESHI NAGATA, SEAN NEDD, HEATHER NETZLOFF, BOSILJKA NJEGIC, RYAN OLSON,
     MIKE PAK, BUU PHAM,
     SPENCER PRUITT, LUKE ROSKOP, JIM SHOEMAKER, LYUDMILA SLIPCHENKO,
     TONY SMITH, SAROM SOK LEANG, JIE SONG, TETSUYA TAKETSUGU, SIMON WEBB,
     PENG XU, SOOHAENG YOO, FEDERICO ZAHARIEV

  ADDITIONAL CODE HAS BEEN PROVIDED BY COLLABORATORS IN OTHER GROUPS:
     IOWA STATE UNIVERSITY:
          JOE IVANIC, AARON WEST, LAIMUTIS BYTAUTAS, KLAUS RUEDENBERG
     UNIVERSITY OF TOKYO: KIMIHIKO HIRAO, TAKAHITO NAKAJIMA,
          TAKAO TSUNEDA, MUNEAKI KAMIYA, SUSUMU YANAGISAWA,
          KIYOSHI YAGI, MAHITO CHIBA, SEIKEN TOKURA, NAOAKI KAWAKAMI
     UNIVERSITY OF AARHUS: FRANK JENSEN
     UNIVERSITY OF IOWA: VISVALDAS KAIRYS, HUI LI
     NATIONAL INST. OF STANDARDS AND TECHNOLOGY: WALT STEVENS, DAVID GARMER
     UNIVERSITY OF PISA: BENEDETTA MENNUCCI, JACOPO TOMASI
     UNIVERSITY OF MEMPHIS: HENRY KURTZ, PRAKASHAN KORAMBATH
     UNIVERSITY OF ALBERTA: TOBY ZENG, MARIUSZ KLOBUKOWSKI
     UNIVERSITY OF NEW ENGLAND: MARK SPACKMAN
     MIE UNIVERSITY: HIROAKI UMEDA
     NAT. INST. OF ADVANCED INDUSTRIAL SCIENCE AND TECHNOLOGY: KAZUO KITAURA
     MICHIGAN STATE UNIVERSITY:
          KAROL KOWALSKI, MARTA WLOCH, JEFFREY GOUR, JESSE LUTZ,
          WEI LI, JUN SHEN, J. EMILIANO DEUSTUA, PIOTR PIECUCH
     UNIVERSITY OF MINNESOTA:
          YINAN SHU
     UNIVERSITY OF SILESIA: MONIKA MUSIAL, STANISLAW KUCHARSKI
     FACULTES UNIVERSITAIRES NOTRE-DAME DE LA PAIX:
          OLIVIER QUINET, BENOIT CHAMPAGNE
     UNIVERSITY OF CALIFORNIA - SANTA BARBARA: BERNARD KIRTMAN
     INSTITUTE FOR MOLECULAR SCIENCE:
          KAZUYA ISHIMURA, MICHIO KATOUDA, AND SHIGERU NAGASE
     UNIVERSITY OF NOTRE DAME: ANNA POMOGAEVA, DAN CHIPMAN
     KYUSHU UNIVERSITY:
          HARUYUKI NAKANO,
          FENG LONG GU, JACEK KORCHOWIEC, MARCIN MAKOWSKI, AND YURIKO AOKI,
          HIROTOSHI MORI AND EISAKU MIYOSHI
     PENNSYLVANIA STATE UNIVERSITY:
          TZVETELIN IORDANOV, CHET SWALINA, JONATHAN SKONE,
          SHARON HAMMES-SCHIFFER
     WASEDA UNIVERSITY:
          MASATO KOBAYASHI, TOMOKO AKAMA, TSUGUKI TOUMA,
          TAKESHI YOSHIKAWA, YASUHIRO IKABATA, JUNJI SEINO,
          YUYA NAKAJIMA, HIROMI NAKAI
     NANJING UNIVERSITY: SHUHUA LI
     UNIVERSITY OF NEBRASKA:
          PEIFENG SU, DEJUN SI, NANDUN THELLAMUREGE, YALI WANG, HUI LI
     UNIVERSITY OF ZURICH: ROBERTO PEVERATI, KIM BALDRIDGE
     N. COPERNICUS UNIVERSITY AND JACKSON STATE UNIVERSITY:
          MARIA BARYSZ
     UNIVERSITY OF COPENHAGEN: Jimmy Kromann, CASPER STEINMANN
     TOKYO INSTITUTE OF TECHNOLOGY: HIROYA NAKATA
     NAGOYA UNIVERSITY: YOSHIO NISHIMOTO, STEPHAN IRLE
     MOSCOW STATE UNIVERSITY: VLADIMIR MIRONOV


 PARALLEL VERSION RUNNING ON       16 PROCESSORS IN        1 NODES.

 EXECUTION OF GAMESS BEGUN Sat Dec  7 00:01:51 2019

            ECHO OF THE FIRST FEW INPUT CARDS -
 INPUT CARD>!*** FMO 5.3 (Gamess) INPUT generated by Facio 22.1.1.32 ***                    
 INPUT CARD> $CONTRL RUNTYP=ENERGY NPRINT=-5 ISPHER=1 MAXIT=200 $END                        
 INPUT CARD> $SYSTEM MWORDS=63 MEMDDI=63 $END                                               
 INPUT CARD> $GDDI NGROUP=1 $END                                                            
 INPUT CARD> $SCF DIRSCF=.TRUE. NPUNCH=0 $END                                               
 INPUT CARD>!*** NumCPU : 2  MemPerNode : 512MB                                             
 INPUT CARD> $PCM SOLVNT=WATER IEF=-10 ICOMP=2 ICAV=1 IDISP=1 IFMO=-1 $END                  
 INPUT CARD> $PCMCAV RADII=SUAHF $END                                                       
 INPUT CARD> $TESCAV NTSALL=60 $END                                                         
 INPUT CARD> $FMOPRP                                                                        
 INPUT CARD>    NAODIR=200                                                                  
 INPUT CARD>    NGRFMO(1)=1, 1, 0, 0, 0,   0, 0, 0, 0, 0                                    
 INPUT CARD>    IPIEDA=1                                                                    
 INPUT CARD>    NPRINT=9                                                                    
 INPUT CARD> $END                                                                           
 INPUT CARD> $FMO                                                                           
 INPUT CARD>      SCFTYP(1)=RHF                                                             
 INPUT CARD>      MODGRD=10                                                                 
 INPUT CARD>      MODMUL=0                                                                  
 INPUT CARD>      MAXCAO=5                                                                  
 INPUT CARD>      MAXBND=10                                                                 
 INPUT CARD>      NLAYER=1                                                                  
 INPUT CARD>      MPLEVL(1)=2                                                               
 INPUT CARD>      NFRAG=8                                                                   
 INPUT CARD>      ICHARG(1)=-1, -1, -1, -1, -1, -1, -1, 0                                   
 INPUT CARD>      FRGNAM(1)=F1, F2, F3, F4, F5, F6, F7, F8                                  
 INPUT CARD>      indat(1)=0                                                                
 INPUT CARD>               1   -36   0                                                      
 INPUT CARD>               37   -67   0                                                     
 INPUT CARD>               68   -97   0                                                     
 INPUT CARD>               98   -128   0                                                    
 INPUT CARD>               129   -161   0                                                   
 INPUT CARD>               162   -192   0                                                   
 INPUT CARD>               193   -226   0                                                   
 INPUT CARD>               227   -254   0                                                   
 INPUT CARD> $END                                                                           
 INPUT CARD>                                                                                
 INPUT CARD> $FMOBND                                                                        
 INPUT CARD>   -37   36       6-31G*    MINI                                                
 INPUT CARD>   -68   67       6-31G*    MINI                                                
 INPUT CARD>   -98   97       6-31G*    MINI                                                
 INPUT CARD>   -129   128       6-31G*    MINI                                              
 INPUT CARD>   -162   161       6-31G*    MINI                                              
 INPUT CARD>   -193   192       6-31G*    MINI                                              
 INPUT CARD>   -227   226       6-31G*    MINI                                              
 INPUT CARD> $END                                                                           
 INPUT CARD> $FMOHYB                                                                        
 INPUT CARD> 6-31G*      15   5                                                             
 INPUT CARD>   1 0  -0.065034   0.288264   0.000000   0.000000   0.604412                   
 INPUT CARD>         0.290129   0.000000   0.000000   0.319045  -0.017106                   


 -------------------------------------------------------------
 GROUP DDI, PROGRAMMED BY: RYAN M. OLSON AND DMITRI G. FEDOROV
        FEDOROV ET AL., J. COMPUT. CHEM., 25 (2004) 872.
 -------------------------------------------------------------

 -------------------------------------------------------
 GDDI: INITIALIZATION COMPLETED FOR GROUP     1 OF     1
 WITH    16 PROCESSES BALTYP=DLB   global rank=        0
 -------------------------------------------------------

   63000000 WORDS OF MEMORY AVAILABLE


     RUN TITLE
     ---------
  FMO calculation                                                                

 THE POINT GROUP OF THE MOLECULE IS C1      
 THE ORDER OF THE PRINCIPAL AXIS IS     0

 ATOM   ATOMIC CHARGE
 H.1-1       1.0
 O.1-1       8.0
 C.1-1       6.0
 N.1-1       7.0
 P.1-1      15.0

     ATOMIC BASIS SET LIBRARY
     ----------------
 THE CONTRACTED PRIMITIVE FUNCTIONS HAVE BEEN UNNORMALIZED
 THE CONTRACTED BASIS FUNCTIONS ARE NOW NORMALIZED TO UNITY

  SHELL TYPE  PRIMITIVE        EXPONENT          CONTRACTION COEFFICIENT(S)

 H.1-1     

      1   S       1            18.7311370    0.033494604338
      1   S       2             2.8253944    0.234726953484
      1   S       3             0.6401217    0.813757326146

      2   S       4             0.1612778    1.000000000000

 O.1-1     

      3   S       5          5484.6716600    0.001831074430
      3   S       6           825.2349460    0.013950172200
      3   S       7           188.0469580    0.068445078098
      3   S       8            52.9645000    0.232714335992
      3   S       9            16.8975704    0.470192897984
      3   S      10             5.7996353    0.358520852987

      4   L      11            15.5396162   -0.110777549525    0.070874268231
      4   L      12             3.5999336   -0.148026262701    0.339752839147
      4   L      13             1.0137618    1.130767015354    0.727158577316

      5   L      14             0.2700058    1.000000000000    1.000000000000

      6   D      15             0.8000000    1.000000000000

 C.1-1     

      7   S      16          3047.5248800    0.001834737132
      7   S      17           457.3695180    0.014037322813
      7   S      18           103.9486850    0.068842622264
      7   S      19            29.2101553    0.232184443216
      7   S      20             9.2866630    0.467941348435
      7   S      21             3.1639270    0.362311985337

      8   L      22             7.8682723   -0.119332419775    0.068999066591
      8   L      23             1.8812885   -0.160854151696    0.316423960957
      8   L      24             0.5442493    1.143456437840    0.744308290898

      9   L      25             0.1687145    1.000000000000    1.000000000000

     10   D      26             0.8000000    1.000000000000

 N.1-1     

     11   S      27          4173.5114600    0.001834772160
     11   S      28           627.4579110    0.013994627002
     11   S      29           142.9020930    0.068586551812
     11   S      30            40.2343293    0.232240873040
     11   S      31            12.8202129    0.469069948082
     11   S      32             4.3904370    0.360455199063

     12   L      33            11.6263619   -0.114961181702    0.067579743878
     12   L      34             2.7162798   -0.169117478561    0.323907295893
     12   L      35             0.7722184    1.145851947027    0.740895139755

     13   L      36             0.2120315    1.000000000000    1.000000000000

     14   D      37             0.8000000    1.000000000000

 P.1-1     

     15   S      38         19413.3000000    0.001851598923
     15   S      39          2909.4200000    0.014206191735
     15   S      40           661.3640000    0.069999459277
     15   S      41           185.7590000    0.240078860331
     15   S      42            59.1943000    0.484761717984
     15   S      43            20.0310000    0.335199804993

     16   L      44           339.4780000   -0.002782170105    0.004564616191
     16   L      45            81.0101000   -0.036049901354    0.033693571881
     16   L      46            25.8780000   -0.116631004382    0.139754883368
     16   L      47             9.4522100    0.096832803638    0.339361716786
     16   L      48             3.6656600    0.614418023082    0.450920623685
     16   L      49             1.4674600    0.403798015170    0.238585800889

     17   L      50             2.1562300   -0.252924113863   -0.017765312733
     17   L      51             0.7489970    0.032851844678    0.274058196433
     17   L      52             0.2831450    1.081254761783    0.785421562957

     18   L      53             0.0998317    1.000000000000    1.000000000000

     19   D      54             0.5500000    1.000000000000

 TOTAL NUMBER OF BASIS SET SHELLS             =   19
 NUMBER OF CARTESIAN GAUSSIAN BASIS FUNCTIONS =   66

     $CONTRL OPTIONS
     ---------------
 SCFTYP=RHF          RUNTYP=ENERGY       EXETYP=RUN     
 MPLEVL=       0     CITYP =NONE         CCTYP =NONE         VBTYP =NONE    
 DFTTYP=NONE         TDDFT =NONE    
 MULT  =       1     ICHARG=       0     NZVAR =       0     COORD =UNIQUE  
 PP    =NONE         RELWFN=NONE         LOCAL =NONE         NUMGRD=       F
 ISPHER=       1     NOSYM =       0     MAXIT =     200     UNITS =ANGS    
 PLTORB=       F     MOLPLT=       F     AIMPAC=       F     FRIEND=        
 NPRINT=      -5     IREST =       0     GEOM  =INPUT   
 NORMF =       0     NORMP =       0     ITOL  =      24     ICUT  =      12
 INTTYP=BEST         GRDTYP=BEST         QMTTOL= 1.0E-06

     $SYSTEM OPTIONS
     ---------------
  REPLICATED MEMORY=    63000000 WORDS (ON EVERY NODE).
 DISTRIBUTED MEMDDI=          63 MILLION WORDS IN AGGREGATE,
 MEMDDI DISTRIBUTED OVER  16 PROCESSORS IS     3937500 WORDS/PROCESSOR.
 TOTAL MEMORY REQUESTED ON EACH PROCESSOR=    66937500 WORDS.
 TIMLIM=      525600.00 MINUTES, OR     365.0 DAYS.
 PARALL= T  BALTYP=  DLB     KDIAG=    0  COREFL= F
 MXSEQ2=     300 MXSEQ3=     150  mem10=         0

 ** LOOKING UP INTERNALLY STORED DATA FOR SOLVENT=WATER    **
 OPTICAL AND PHYSICAL CONSTANTS:
 EPS= 78.390; EPSINF=  1.776; RSOLV=  1.385 A; VMOL=  18.070 ML/MOL;
 TCE= .25700E-03 1/K; STEN= 71.810 DYN/CM;  DSTEN=  0.6500; CMF=  1.2770


     -----------------------------------
     INPUT FOR PCM SOLVATION CALCULATION 
     -----------------------------------
     IEF   =     -10
     ICOMP =       2     IFIELD=       0     ICAV  =       1
     IDISP =       1     IREP  =       0     IDP   =       0

     SOLVNT=WATER        EPS   = 78.3900     EPSINF=  1.7760
     VMOL  = 18.0700     TCE   =  0.00025700 STEN  = 71.8100
     DSTEN =  0.6500     CMF   =  1.2770     RSOLV =  1.3850

     NESFP =       0
     OMEGA = 40.0000     RET   =100.0000     FRO   =  0.7000

     TABS  =298.0000     IPRINT=       0

     --------------------------------
     INPUT FOR ITERATIVE C-PCM METHOD 
     --------------------------------
     IPCMIT  =         1     MXDIIS  =        50
     MXITR1  =       200     MXITR2  =       200
     THRES   = 0.100E-09     IMUL    =         3
     RCUT(1) =   20.0000     RCUT(2) =   50.0000

     IDIRCT  =         1
     IMGABI  =         0     RABI    =    4.0000
     IMGASC  =         0     RASC    =   20.0000
     THRSLS  = 0.500E-03     DENSLS  =    0.0100
     IEFPOL  =         1     REFPOL  =    0.0000

     INPUT FOR ISOTROPIC DIELECTRICS
     -------------------------------
     EPS=    78.39

          ----------------
          PROPERTIES INPUT
          ----------------

     MOMENTS            FIELD           POTENTIAL          DENSITY
 IEMOM =       1   IEFLD =       0   IEPOT =       0   IEDEN =       0
 WHERE =COMASS     WHERE =NUCLEI     WHERE =NUCLEI     WHERE =NUCLEI  
 OUTPUT=BOTH       OUTPUT=BOTH       OUTPUT=NONE       OUTPUT=BOTH    
 IEMINT=       0   IEFINT=       0                     IEDINT=       0
                                                       MORB  =       0
          EXTRAPOLATION IN EFFECT
          SOSCF IN EFFECT
 ORBITAL PRINTING OPTION: NPREO=     1 32767     2     1

     -------------------------------
     INTEGRAL TRANSFORMATION OPTIONS
     -------------------------------
     NWORD  =            0
     CUTOFF = 1.0E-10     MPTRAN =       0
     DIRTRF =       T     AOINTS =DUP     

          ----------------------
          INTEGRAL INPUT OPTIONS
          ----------------------
 NOPK  =       1 NORDER=       0 SCHWRZ=       T

 ..... DONE SETTING UP THE RUN .....
 CPU     0: STEP CPU TIME=     0.03 TOTAL CPU TIME=          0.0 (      0.0 MIN)
 TOTAL WALL CLOCK TIME=          0.1 SECONDS, CPU UTILIZATION IS    42.86%
 CPU     0: STEP CPU TIME=     0.00 TOTAL CPU TIME=          0.0 (      0.0 MIN)
 TOTAL WALL CLOCK TIME=          0.1 SECONDS, CPU UTILIZATION IS    42.86%

                    ----------------------
                    AO INTEGRAL TECHNOLOGY
                    ----------------------
     S,P,L SHELL ROTATED AXIS INTEGRALS, REPROGRAMMED BY
        KAZUYA ISHIMURA (IMS) AND JOSE SIERRA (SYNSTAR).
     S,P,D,L SHELL ROTATED AXIS INTEGRALS PROGRAMMED BY
        KAZUYA ISHIMURA (INSTITUTE FOR MOLECULAR SCIENCE).
     S,P,D,F,G SHELL TO TOTAL QUARTET ANGULAR MOMENTUM SUM 5,
        ERIC PROGRAM BY GRAHAM FLETCHER (ELORET AND NASA ADVANCED
        SUPERCOMPUTING DIVISION, AMES RESEARCH CENTER).
     S,P,D,F,G,L SHELL GENERAL RYS QUADRATURE PROGRAMMED BY
        MICHEL DUPUIS (PACIFIC NORTHWEST NATIONAL LABORATORY).
 Setting modorb=1 flag...
 Setting modorb=1 flag...

          -----------------------
          MP2 CONTROL INFORMATION
          -----------------------
          NACORE =        8  NBCORE =        8
          LMOMP2 =        F  AOINTS = DUP     
          METHOD =        2  NWORD  =               0
          MP2PRP =        F  OSPT   = NONE    
          CUTOFF = 1.00E-12  CPHFBS = BASISAO 
          CODE   = IMS     

          NUMBER OF CORE -A-  ORBITALS =     8
          NUMBER OF CORE -B-  ORBITALS =     8
          NUMBER OF OCC. -A-  ORBITALS =    18
          NUMBER OF OCC. -B-  ORBITALS =    18
          NUMBER OF MOLECULAR ORBITALS =    66
          NUMBER OF   BASIS  FUNCTIONS =    66

 CPU     0: STEP CPU TIME=     0.03 TOTAL CPU TIME=          0.1 (      0.0 MIN)
 TOTAL WALL CLOCK TIME=          0.1 SECONDS, CPU UTILIZATION IS    54.55%
 CPU     0: STEP CPU TIME=     0.00 TOTAL CPU TIME=          0.1 (      0.0 MIN)
 TOTAL WALL CLOCK TIME=          0.1 SECONDS, CPU UTILIZATION IS    54.55%

     INPUT FOR CAVITY DEFINITION 
     ---------------------------
   ATOM               COORDINATES                RADIUS       EPS
      1     -5.7380     -7.1940      9.0010      0.0100     78.3900
      2     -6.0690     -6.3270      9.2980      1.5900     78.3900
      3     -5.9500     -6.3080     10.7290      1.7700     78.3900
      4     -4.8960     -6.5200     11.0150      0.0100     78.3900
      5     -6.5880     -7.1100     11.1610      0.0100     78.3900
      6     -6.3660     -4.9660     11.3400      1.7700     78.3900
      7     -6.3240     -5.0020     12.4510      0.0100     78.3900
      8     -5.4460     -3.9190     10.9000      1.5900     78.3900
      9     -6.1800     -2.7250     10.6720      1.7700     78.3900
     10     -5.7140     -1.9300     11.3020      0.0100     78.3900
     11     -6.1190     -2.3060      9.2640      1.6800     78.3900
     12     -6.3970     -1.0550      8.7770      1.7700     78.3900
     13     -7.3550      2.2250      9.3060      1.6800     78.3900
     14     -7.5200      2.2470     10.2880      0.0100     78.3900
     15     -7.5230      3.0530      8.7630      0.0100     78.3900
     16     -6.7950      0.0050      9.5030      1.6800     78.3900
     17     -6.9620      1.0940      8.7580      1.7700     78.3900
     18     -6.7310      1.1230      7.4080      1.6800     78.3900
     19     -6.8790      1.9930      6.9210      0.0100     78.3900
     20     -6.3090      0.0520      6.6310      1.7700     78.3900
     21     -6.1180      0.1700      5.4150      1.5900     78.3900
     22     -6.1570     -1.1250      7.4160      1.7700     78.3900
     23     -5.7600     -2.4050      7.0500      1.6800     78.3900
     24     -5.7460     -3.0730      8.1820      1.7700     78.3900
     25     -5.4750     -4.1250      8.3000      0.0100     78.3900
     26     -7.5930     -2.9660     11.1490      1.7700     78.3900
     27     -8.3400     -2.3760     10.5830      0.0100     78.3900
     28     -7.6780     -2.6530     12.5250      1.5900     78.3900
     29     -8.5770     -2.8650     12.8010      0.0100     78.3900
     30     -7.7550     -4.4600     10.9170      1.7700     78.3900
     31     -7.8630     -4.6790      9.8300      0.0100     78.3900
     32     -8.7780     -5.0880     11.7200      1.5900     78.3900
     33    -10.2540     -5.1950     11.1790      2.1000     78.3900
     34    -10.2120     -5.7540      9.8100      1.5900     78.3900
     35    -11.0620     -5.9410     12.1690      1.5900     78.3900
     36    -10.7660     -3.7010     11.1010      1.5900     78.3900
     37    -11.0160     -2.9430     12.3110      1.7700     78.3900
     38    -10.1370     -2.9520     12.9850      0.0100     78.3900
     39    -11.8740     -3.3710     12.8720      0.0100     78.3900
     40    -11.3700     -1.4780     12.0130      1.7700     78.3900
     41    -11.5590     -0.9190     12.9560      0.0100     78.3900
     42    -10.2610     -0.8120     11.3430      1.5900     78.3900
     43    -10.7830      0.0930     10.3780      1.7700     78.3900
     44    -10.3690      1.0920     10.6500      0.0100     78.3900
     45    -10.3720     -0.2360      8.9810      1.6800     78.3900
     46     -9.9770     -1.5130      8.6600      1.7700     78.3900
     47     -9.9940     -2.2360      9.4760      0.0100     78.3900
     48     -9.5670     -1.8290      7.4250      1.7700     78.3900
     49     -9.2170     -2.8240      7.1670      0.0100     78.3900
     50    -10.4200      0.7390      7.9860      1.7700     78.3900
     51    -10.8210      1.8780      8.2700      1.5900     78.3900
     52    -10.0100      0.4350      6.7320      1.6800     78.3900
     53     -9.5780     -0.8010      6.4410      1.7700     78.3900
     54     -9.1530     -1.0560      5.2070      1.6800     78.3900
     55     -9.1470     -0.3170      4.5290      0.0100     78.3900
     56     -8.7800     -1.9450      4.9380      0.0100     78.3900
     57    -12.2900      0.1230     10.5540      1.7700     78.3900
     58    -12.8160      0.2890      9.5950      0.0100     78.3900
     59    -12.6620      1.1220     11.4900      1.5900     78.3900
     60    -13.6150      1.0230     11.6490      0.0100     78.3900
     61    -12.5690     -1.2750     11.0820      1.7700     78.3900
     62    -12.4760     -2.0300     10.2690      0.0100     78.3900
     63    -13.7960     -1.4180     11.8260      1.5900     78.3900
     64    -15.1580     -1.6540     11.0760      2.1000     78.3900
     65    -14.9840     -2.8120     10.1670      1.5900     78.3900
     66    -16.2090     -1.7370     12.1110      1.5900     78.3900
     67    -15.3900     -0.3400     10.2530      1.5900     78.3900
     68    -16.2770     -0.3360      9.1060      1.7700     78.3900
     69    -17.3190     -0.1130      9.4260      0.0100     78.3900
     70    -16.2860     -1.3210      8.5820      0.0100     78.3900
     71    -15.8590      0.7140      8.0650      1.7700     78.3900
     72    -16.1370      1.7350      8.4020      0.0100     78.3900
     73    -14.4110      0.7050      7.8960      1.5900     78.3900
     74    -14.0780      0.7990      6.5370      1.7700     78.3900
     75    -13.3390      1.6300      6.4670      0.0100     78.3900
     76    -13.4620     -0.4620      6.0260      1.6800     78.3900
     77    -13.4090     -1.6030      6.8070      1.7700     78.3900
     78    -13.9050     -1.5400      7.7800      0.0100     78.3900
     79    -12.8380     -0.4200      4.7980      1.7700     78.3900
     80    -12.7840      0.5980      4.1150      1.5900     78.3900
     81    -12.2620     -1.6030      4.4030      1.6800     78.3900
     82    -11.8060     -1.5900      3.4960      0.0100     78.3900
     83    -12.1520     -2.7690      5.1320      1.7700     78.3900
     84    -11.5400     -3.7300      4.6730      1.5900     78.3900
     85    -12.7880     -2.7240      6.4130      1.7700     78.3900
     86    -12.7490     -3.6100      7.0440      0.0100     78.3900
     87    -15.3580      1.1860      5.8230      1.7700     78.3900
     88    -15.3760      0.8440      4.7740      0.0100     78.3900
     89    -15.5400      2.5900      5.8880      1.5900     78.3900
     90    -14.8080      3.0110      5.4340      0.0100     78.3900
     91    -16.4090      0.4770      6.6540      1.7700     78.3900
     92    -16.3830     -0.6210      6.4770      0.0100     78.3900
     93    -17.7280      1.0410      6.5280      1.5900     78.3900
     94    -18.8380      0.3820      5.6420      2.1000     78.3900
     95    -19.2740     -0.8400      6.3520      1.5900     78.3900
     96    -19.8880      1.3870      5.3580      1.5900     78.3900
     97    -18.1470     -0.0650      4.2960      1.5900     78.3900
     98    -17.7570      0.8850      3.2750      1.7700     78.3900
     99    -17.1520      1.7170      3.7040      0.0100     78.3900
    100    -18.6540      1.3420      2.8010      0.0100     78.3900
    101    -16.9240      0.2140      2.1580      1.7700     78.3900
    102    -16.6700      0.9480      1.3650      0.0100     78.3900
    103    -15.6680     -0.2770      2.7160      1.5900     78.3900
    104    -15.3540     -1.5530      2.1740      1.7700     78.3900
    105    -14.3310     -1.4490      1.7370      0.0100     78.3900
    106    -15.3300     -2.6380      3.1950      1.6800     78.3900
    107    -15.9530     -2.4610      4.4050      1.7700     78.3900
    108    -16.4340     -1.4960      4.5500      0.0100     78.3900
    109    -15.9300     -3.4080      5.3500      1.7700     78.3900
    110    -16.3980     -3.2710      6.3240      0.0100     78.3900
    111    -14.6950     -3.8460      2.9160      1.7700     78.3900
    112    -14.1640     -4.0050      1.8060      1.5900     78.3900
    113    -14.6740     -4.8240      3.8510      1.6800     78.3900
    114    -15.2500     -4.6220      5.0500      1.7700     78.3900
    115    -15.1770     -5.5750      5.9740      1.6800     78.3900
    116    -14.7260     -6.4370      5.7360      0.0100     78.3900
    117    -15.6140     -5.4910      6.8700      0.0100     78.3900
    118    -16.3360     -1.8320      1.0640      1.7700     78.3900
    119    -16.5820     -2.9130      0.9850      0.0100     78.3900
    120    -15.8120     -1.3770     -0.1700      1.5900     78.3900
    121    -16.5540     -1.3440     -0.7800      0.0100     78.3900
    122    -17.5630     -1.0250      1.4990      1.7700     78.3900
    123    -18.1090     -1.5670      2.3040      0.0100     78.3900
    124    -18.4390     -0.6260      0.4170      1.5900     78.3900
    125    -19.3900     -1.7170     -0.2120      2.1000     78.3900
    126    -18.7780     -3.0530     -0.0710      1.5900     78.3900
    127    -20.7410     -1.5630      0.3690      1.5900     78.3900
    128    -19.4690     -1.3660     -1.7380      1.5900     78.3900
    129    -18.3600     -0.9550     -2.5650      1.7700     78.3900
    130    -18.0890     -1.7830     -3.2580      0.0100     78.3900
    131    -17.4510     -0.7310     -1.9680      0.0100     78.3900
    132    -18.6530      0.3020     -3.4140      1.7700     78.3900
    133    -18.9490      0.0120     -4.4450      0.0100     78.3900
    134    -19.7670      1.0760     -2.8690      1.5900     78.3900
    135    -19.4870      2.4560     -2.9890      1.7700     78.3900
    136    -20.3390      2.9000     -3.5500      0.0100     78.3900
    137    -19.3890      3.0850     -1.6690      1.6800     78.3900
    138    -19.3640      4.5720     -0.0520      1.7700     78.3900
    139    -19.2120      3.3350      0.5610      1.6800     78.3900
    140    -19.2330      2.4870     -0.4390      1.7700     78.3900
    141    -19.1540      1.4040     -0.3510      0.0100     78.3900
    142    -19.5970      6.8990     -0.4350      1.6800     78.3900
    143    -19.6690      6.5960     -1.7360      1.7700     78.3900
    144    -19.7970      7.4460     -2.4170      0.0100     78.3900
    145    -19.6410      5.4000     -2.3320      1.6800     78.3900
    146    -19.4710      4.4270     -1.4240      1.7700     78.3900
    147    -19.4480      5.8860      0.4580      1.7700     78.3900
    148    -19.4340      6.1690      1.7720      1.6800     78.3900
    149    -19.3410      5.4550      2.4710      0.0100     78.3900
    150    -19.4860      7.1200      2.0750      0.0100     78.3900
    151    -18.2160      2.6130     -3.8020      1.7700     78.3900
    152    -17.6060      3.4860     -3.4750      0.0100     78.3900
    153    -18.5120      2.7310     -5.1860      1.5900     78.3900
    154    -17.6390      2.7530     -5.6260      0.0100     78.3900
    155    -17.4840      1.3090     -3.4890      1.7700     78.3900
    156    -17.0270      1.3640     -2.4750      0.0100     78.3900
    157    -16.5220      0.8690     -4.4680      1.5900     78.3900
    158    -15.3440      1.7880     -4.9650      2.1000     78.3900
    159    -14.3060      0.9050     -5.5470      1.5900     78.3900
    160    -15.9220      2.8220     -5.8530      1.5900     78.3900
    161    -14.7750      2.4500     -3.6590      1.5900     78.3900
    162    -13.6490      3.3700     -3.7280      1.7700     78.3900
    163    -13.1790      3.4310     -4.7390      0.0100     78.3900
    164    -12.8590      2.9780     -3.0490      0.0100     78.3900
    165    -13.9910      4.8060     -3.2600      1.7700     78.3900
    166    -14.3820      5.4140     -4.1030      0.0100     78.3900
    167    -15.0540      4.7570     -2.2600      1.5900     78.3900
    168    -14.7800      5.6700     -1.2220      1.7700     78.3900
    169    -15.6880      6.3120     -1.1520      0.0100     78.3900
    170    -14.5380      4.9890      0.0720      1.6800     78.3900
    171    -13.8700      3.7850      0.1030      1.7700     78.3900
    172    -13.5780      3.3670     -0.8640      0.0100     78.3900
    173    -13.6460      3.1460      1.2560      1.7700     78.3900
    174    -13.1410      2.1830      1.3090      0.0100     78.3900
    175    -14.9350      5.5990      1.2600      1.7700     78.3900
    176    -15.4970      6.7040      1.2120      1.5900     78.3900
    177    -14.7070      4.9740      2.4380      1.6800     78.3900
    178    -14.0940      3.7780      2.4450      1.7700     78.3900
    179    -13.8900      3.2040      3.6160      1.6800     78.3900
    180    -13.5430      2.2650      3.7000      0.0100     78.3900
    181    -14.0560      3.8020      4.3960      0.0100     78.3900
    182    -13.6060      6.5230     -1.6480      1.7700     78.3900
    183    -12.9950      6.8300     -0.7870      0.0100     78.3900
    184    -14.0510      7.6810     -2.3280      1.5900     78.3900
    185    -13.2630      8.1050     -2.7020      0.0100     78.3900
    186    -12.8360      5.5730     -2.5630      1.7700     78.3900
    187    -12.2790      4.8250     -1.9530      0.0100     78.3900
    188    -11.9820      6.2230     -3.5370      1.5900     78.3900
    189    -10.5240      6.6730     -3.1330      2.1000     78.3900
    190     -9.8430      5.5180     -2.5000      1.5900     78.3900
    191     -9.8760      7.2450     -4.3320      1.5900     78.3900
    192    -10.7070      7.8550     -2.0980      1.5900     78.3900
    193     -9.6940      8.0820     -1.0730      1.7700     78.3900
    194     -9.1340      9.0180     -1.2940      0.0100     78.3900
    195     -8.9280      7.2680     -1.0180      0.0100     78.3900
    196    -10.3140      8.2160      0.3250      1.7700     78.3900
    197    -10.9280      9.1400      0.4040      0.0100     78.3900
    198    -11.1990      7.0960      0.5650      1.5900     78.3900
    199    -11.0900      6.6570      1.8950      1.7700     78.3900
    200    -12.1190      6.6580      2.3250      0.0100     78.3900
    201    -10.5420      5.2990      1.9350      1.6800     78.3900
    202    -10.5340      4.4660      3.0180      1.7700     78.3900
    203    -11.3210      3.8440      6.3320      1.6800     78.3900
    204    -11.7420      4.7000      6.6280      0.0100     78.3900
    205    -11.1590      3.1230      7.0130      0.0100     78.3900
    206    -11.0140      4.7570      4.2380      1.6800     78.3900
    207    -10.8910      3.7420      5.0880      1.7700     78.3900
    208    -10.3380      2.5380      4.7400      1.6800     78.3900
    209    -10.2700      1.8230      5.4470      0.0100     78.3900
    210     -9.8350      2.2070      3.4880      1.7700     78.3900
    211     -9.3510      1.0940      3.2540      1.5900     78.3900
    212     -9.9490      3.2950      2.5810      1.7700     78.3900
    213     -9.5800      3.3940      1.2440      1.6800     78.3900
    214     -9.9550      4.6030      0.8960      1.7700     78.3900
    215     -9.8410      5.0440     -0.1000      0.0100     78.3900
    216    -10.2240      7.6580      2.6240      1.7700     78.3900
    217     -9.6370      7.1970      3.4420      0.0100     78.3900
    218    -11.0290      8.6960      3.1450      1.5900     78.3900
    219    -10.4330      9.3820      3.4690      0.0100     78.3900
    220     -9.3280      8.1590      1.4980      1.7700     78.3900
    221     -8.5820      7.3710      1.2300      0.0100     78.3900
    222     -8.7440      9.4650      1.7260      1.5900     78.3900
    223     -7.2420      9.5430      2.1910      2.1000     78.3900
    224     -6.4610      8.5280      1.4530      1.5900     78.3900
    225     -6.7650     10.9390      2.0850      1.5900     78.3900
    226     -7.3170      9.1230      3.7060      1.5900     78.3900
    227     -8.0350      9.9370      4.6610      1.7700     78.3900
    228     -9.0860     10.1130      4.3400      0.0100     78.3900
    229     -7.5470     10.9360      4.7670      0.0100     78.3900
    230     -8.0720      9.2730      6.0440      1.7700     78.3900
    231     -8.5360      9.9500      6.7960      0.0100     78.3900
    232     -8.8840      8.0640      5.9890      1.5900     78.3900
    233     -8.2780      7.0590      6.7980      1.7700     78.3900
    234     -9.0650      6.7480      7.5230      0.0100     78.3900
    235     -7.8470      5.8710      6.0120      1.6800     78.3900
    236     -7.6180      5.9790      4.6610      1.7700     78.3900
    237     -7.8070      6.9570      4.2220      0.0100     78.3900
    238     -7.2280      4.9280      3.9290      1.7700     78.3900
    239     -7.0720      4.9940      2.8540      0.0100     78.3900
    240     -7.6070      4.6610      6.6540      1.7700     78.3900
    241     -7.7450      4.5910      7.8840      1.5900     78.3900
    242     -7.2270      3.5820      5.9300      1.6800     78.3900
    243     -7.0230      3.6930      4.6050      1.7700     78.3900
    244     -6.6370      2.6210      3.9180      1.6800     78.3900
    245     -6.5070      1.7480      4.3920      0.0100     78.3900
    246     -6.5010      2.6480      2.9290      0.0100     78.3900
    247     -7.1270      7.7030      7.5580      1.7700     78.3900
    248     -6.2890      6.9920      7.7360      0.0100     78.3900
    249     -7.5930      8.2150      8.7980      1.5900     78.3900
    250     -6.9130      8.8030      9.1680      0.0100     78.3900
    251     -6.7160      8.8070      6.5910      1.7700     78.3900
    252     -6.1230      8.3820      5.7510      0.0100     78.3900
    253     -6.0200      9.9020      7.2080      1.5900     78.3900
    254     -5.1530      9.5990      7.5200      0.0100     78.3900

     ----------------------------
     INPUT FOR TESSERA DEFINITION
     ----------------------------
     NTSALL  =        60     MTHALL  =         4
     MTHAUT  =         0     AUTFRE  =    2.0000
     NTSFRZ  =        60     KEEPSM  =         0
     AREAKP  =   10.0000     BONDRY  =    1.0000
     AREATL  =    0.0100

     SPHERE     INITS       METHOD
          1        60       FIXPVA
          2        60       FIXPVA
          3        60       FIXPVA
          4        60       FIXPVA
          5        60       FIXPVA
          6        60       FIXPVA
          7        60       FIXPVA
          8        60       FIXPVA
          9        60       FIXPVA
         10        60       FIXPVA
         11        60       FIXPVA
         12        60       FIXPVA
         13        60       FIXPVA
         14        60       FIXPVA
         15        60       FIXPVA
         16        60       FIXPVA
         17        60       FIXPVA
         18        60       FIXPVA
         19        60       FIXPVA
         20        60       FIXPVA
         21        60       FIXPVA
         22        60       FIXPVA
         23        60       FIXPVA
         24        60       FIXPVA
         25        60       FIXPVA
         26        60       FIXPVA
         27        60       FIXPVA
         28        60       FIXPVA
         29        60       FIXPVA
         30        60       FIXPVA
         31        60       FIXPVA
         32        60       FIXPVA
         33        60       FIXPVA
         34        60       FIXPVA
         35        60       FIXPVA
         36        60       FIXPVA
         37        60       FIXPVA
         38        60       FIXPVA
         39        60       FIXPVA
         40        60       FIXPVA
         41        60       FIXPVA
         42        60       FIXPVA
         43        60       FIXPVA
         44        60       FIXPVA
         45        60       FIXPVA
         46        60       FIXPVA
         47        60       FIXPVA
         48        60       FIXPVA
         49        60       FIXPVA
         50        60       FIXPVA
         51        60       FIXPVA
         52        60       FIXPVA
         53        60       FIXPVA
         54        60       FIXPVA
         55        60       FIXPVA
         56        60       FIXPVA
         57        60       FIXPVA
         58        60       FIXPVA
         59        60       FIXPVA
         60        60       FIXPVA
         61        60       FIXPVA
         62        60       FIXPVA
         63        60       FIXPVA
         64        60       FIXPVA
         65        60       FIXPVA
         66        60       FIXPVA
         67        60       FIXPVA
         68        60       FIXPVA
         69        60       FIXPVA
         70        60       FIXPVA
         71        60       FIXPVA
         72        60       FIXPVA
         73        60       FIXPVA
         74        60       FIXPVA
         75        60       FIXPVA
         76        60       FIXPVA
         77        60       FIXPVA
         78        60       FIXPVA
         79        60       FIXPVA
         80        60       FIXPVA
         81        60       FIXPVA
         82        60       FIXPVA
         83        60       FIXPVA
         84        60       FIXPVA
         85        60       FIXPVA
         86        60       FIXPVA
         87        60       FIXPVA
         88        60       FIXPVA
         89        60       FIXPVA
         90        60       FIXPVA
         91        60       FIXPVA
         92        60       FIXPVA
         93        60       FIXPVA
         94        60       FIXPVA
         95        60       FIXPVA
         96        60       FIXPVA
         97        60       FIXPVA
         98        60       FIXPVA
         99        60       FIXPVA
        100        60       FIXPVA
        101        60       FIXPVA
        102        60       FIXPVA
        103        60       FIXPVA
        104        60       FIXPVA
        105        60       FIXPVA
        106        60       FIXPVA
        107        60       FIXPVA
        108        60       FIXPVA
        109        60       FIXPVA
        110        60       FIXPVA
        111        60       FIXPVA
        112        60       FIXPVA
        113        60       FIXPVA
        114        60       FIXPVA
        115        60       FIXPVA
        116        60       FIXPVA
        117        60       FIXPVA
        118        60       FIXPVA
        119        60       FIXPVA
        120        60       FIXPVA
        121        60       FIXPVA
        122        60       FIXPVA
        123        60       FIXPVA
        124        60       FIXPVA
        125        60       FIXPVA
        126        60       FIXPVA
        127        60       FIXPVA
        128        60       FIXPVA
        129        60       FIXPVA
        130        60       FIXPVA
        131        60       FIXPVA
        132        60       FIXPVA
        133        60       FIXPVA
        134        60       FIXPVA
        135        60       FIXPVA
        136        60       FIXPVA
        137        60       FIXPVA
        138        60       FIXPVA
        139        60       FIXPVA
        140        60       FIXPVA
        141        60       FIXPVA
        142        60       FIXPVA
        143        60       FIXPVA
        144        60       FIXPVA
        145        60       FIXPVA
        146        60       FIXPVA
        147        60       FIXPVA
        148        60       FIXPVA
        149        60       FIXPVA
        150        60       FIXPVA
        151        60       FIXPVA
        152        60       FIXPVA
        153        60       FIXPVA
        154        60       FIXPVA
        155        60       FIXPVA
        156        60       FIXPVA
        157        60       FIXPVA
        158        60       FIXPVA
        159        60       FIXPVA
        160        60       FIXPVA
        161        60       FIXPVA
        162        60       FIXPVA
        163        60       FIXPVA
        164        60       FIXPVA
        165        60       FIXPVA
        166        60       FIXPVA
        167        60       FIXPVA
        168        60       FIXPVA
        169        60       FIXPVA
        170        60       FIXPVA
        171        60       FIXPVA
        172        60       FIXPVA
        173        60       FIXPVA
        174        60       FIXPVA
        175        60       FIXPVA
        176        60       FIXPVA
        177        60       FIXPVA
        178        60       FIXPVA
        179        60       FIXPVA
        180        60       FIXPVA
        181        60       FIXPVA
        182        60       FIXPVA
        183        60       FIXPVA
        184        60       FIXPVA
        185        60       FIXPVA
        186        60       FIXPVA
        187        60       FIXPVA
        188        60       FIXPVA
        189        60       FIXPVA
        190        60       FIXPVA
        191        60       FIXPVA
        192        60       FIXPVA
        193        60       FIXPVA
        194        60       FIXPVA
        195        60       FIXPVA
        196        60       FIXPVA
        197        60       FIXPVA
        198        60       FIXPVA
        199        60       FIXPVA
        200        60       FIXPVA
        201        60       FIXPVA
        202        60       FIXPVA
        203        60       FIXPVA
        204        60       FIXPVA
        205        60       FIXPVA
        206        60       FIXPVA
        207        60       FIXPVA
        208        60       FIXPVA
        209        60       FIXPVA
        210        60       FIXPVA
        211        60       FIXPVA
        212        60       FIXPVA
        213        60       FIXPVA
        214        60       FIXPVA
        215        60       FIXPVA
        216        60       FIXPVA
        217        60       FIXPVA
        218        60       FIXPVA
        219        60       FIXPVA
        220        60       FIXPVA
        221        60       FIXPVA
        222        60       FIXPVA
        223        60       FIXPVA
        224        60       FIXPVA
        225        60       FIXPVA
        226        60       FIXPVA
        227        60       FIXPVA
        228        60       FIXPVA
        229        60       FIXPVA
        230        60       FIXPVA
        231        60       FIXPVA
        232        60       FIXPVA
        233        60       FIXPVA
        234        60       FIXPVA
        235        60       FIXPVA
        236        60       FIXPVA
        237        60       FIXPVA
        238        60       FIXPVA
        239        60       FIXPVA
        240        60       FIXPVA
        241        60       FIXPVA
        242        60       FIXPVA
        243        60       FIXPVA
        244        60       FIXPVA
        245        60       FIXPVA
        246        60       FIXPVA
        247        60       FIXPVA
        248        60       FIXPVA
        249        60       FIXPVA
        250        60       FIXPVA
        251        60       FIXPVA
        252        60       FIXPVA
        253        60       FIXPVA
        254        60       FIXPVA

     ------------------------------
      FIXPVA TESSELLATION FOR PCM
         PEIFENG SU AND HUI LI
     UNIVERSITY OF NEBRASKA-LINCOLN
     ------------------------------


 PCM DIMENSIONS: MXSP=   254, MXTS=     10160, MEMORY=        104397

     INPUT FOR CAVITY DEFINITION 
     ---------------------------
   ATOM               COORDINATES                RADIUS       EPS
      1     -5.7380     -7.1940      9.0010      0.0100     78.3900
      2     -6.0690     -6.3270      9.2980      1.5900     78.3900
      3     -5.9500     -6.3080     10.7290      1.7700     78.3900
      4     -4.8960     -6.5200     11.0150      0.0100     78.3900
      5     -6.5880     -7.1100     11.1610      0.0100     78.3900
      6     -6.3660     -4.9660     11.3400      1.7700     78.3900
      7     -6.3240     -5.0020     12.4510      0.0100     78.3900
      8     -5.4460     -3.9190     10.9000      1.5900     78.3900
      9     -6.1800     -2.7250     10.6720      1.7700     78.3900
     10     -5.7140     -1.9300     11.3020      0.0100     78.3900
     11     -6.1190     -2.3060      9.2640      1.6800     78.3900
     12     -6.3970     -1.0550      8.7770      1.7700     78.3900
     13     -7.3550      2.2250      9.3060      1.6800     78.3900
     14     -7.5200      2.2470     10.2880      0.0100     78.3900
     15     -7.5230      3.0530      8.7630      0.0100     78.3900
     16     -6.7950      0.0050      9.5030      1.6800     78.3900
     17     -6.9620      1.0940      8.7580      1.7700     78.3900
     18     -6.7310      1.1230      7.4080      1.6800     78.3900
     19     -6.8790      1.9930      6.9210      0.0100     78.3900
     20     -6.3090      0.0520      6.6310      1.7700     78.3900
     21     -6.1180      0.1700      5.4150      1.5900     78.3900
     22     -6.1570     -1.1250      7.4160      1.7700     78.3900
     23     -5.7600     -2.4050      7.0500      1.6800     78.3900
     24     -5.7460     -3.0730      8.1820      1.7700     78.3900
     25     -5.4750     -4.1250      8.3000      0.0100     78.3900
     26     -7.5930     -2.9660     11.1490      1.7700     78.3900
     27     -8.3400     -2.3760     10.5830      0.0100     78.3900
     28     -7.6780     -2.6530     12.5250      1.5900     78.3900
     29     -8.5770     -2.8650     12.8010      0.0100     78.3900
     30     -7.7550     -4.4600     10.9170      1.7700     78.3900
     31     -7.8630     -4.6790      9.8300      0.0100     78.3900
     32     -8.7780     -5.0880     11.7200      1.5900     78.3900
     33    -10.2540     -5.1950     11.1790      2.1000     78.3900
     34    -10.2120     -5.7540      9.8100      1.5900     78.3900
     35    -11.0620     -5.9410     12.1690      1.5900     78.3900
     36    -10.7660     -3.7010     11.1010      1.5900     78.3900
     37    -11.0160     -2.9430     12.3110      1.7700     78.3900
     38    -10.1370     -2.9520     12.9850      0.0100     78.3900
     39    -11.8740     -3.3710     12.8720      0.0100     78.3900
     40    -11.3700     -1.4780     12.0130      1.7700     78.3900
     41    -11.5590     -0.9190     12.9560      0.0100     78.3900
     42    -10.2610     -0.8120     11.3430      1.5900     78.3900
     43    -10.7830      0.0930     10.3780      1.7700     78.3900
     44    -10.3690      1.0920     10.6500      0.0100     78.3900
     45    -10.3720     -0.2360      8.9810      1.6800     78.3900
     46     -9.9770     -1.5130      8.6600      1.7700     78.3900
     47     -9.9940     -2.2360      9.4760      0.0100     78.3900
     48     -9.5670     -1.8290      7.4250      1.7700     78.3900
     49     -9.2170     -2.8240      7.1670      0.0100     78.3900
     50    -10.4200      0.7390      7.9860      1.7700     78.3900
     51    -10.8210      1.8780      8.2700      1.5900     78.3900
     52    -10.0100      0.4350      6.7320      1.6800     78.3900
     53     -9.5780     -0.8010      6.4410      1.7700     78.3900
     54     -9.1530     -1.0560      5.2070      1.6800     78.3900
     55     -9.1470     -0.3170      4.5290      0.0100     78.3900
     56     -8.7800     -1.9450      4.9380      0.0100     78.3900
     57    -12.2900      0.1230     10.5540      1.7700     78.3900
     58    -12.8160      0.2890      9.5950      0.0100     78.3900
     59    -12.6620      1.1220     11.4900      1.5900     78.3900
     60    -13.6150      1.0230     11.6490      0.0100     78.3900
     61    -12.5690     -1.2750     11.0820      1.7700     78.3900
     62    -12.4760     -2.0300     10.2690      0.0100     78.3900
     63    -13.7960     -1.4180     11.8260      1.5900     78.3900
     64    -15.1580     -1.6540     11.0760      2.1000     78.3900
     65    -14.9840     -2.8120     10.1670      1.5900     78.3900
     66    -16.2090     -1.7370     12.1110      1.5900     78.3900
     67    -15.3900     -0.3400     10.2530      1.5900     78.3900
     68    -16.2770     -0.3360      9.1060      1.7700     78.3900
     69    -17.3190     -0.1130      9.4260      0.0100     78.3900
     70    -16.2860     -1.3210      8.5820      0.0100     78.3900
     71    -15.8590      0.7140      8.0650      1.7700     78.3900
     72    -16.1370      1.7350      8.4020      0.0100     78.3900
     73    -14.4110      0.7050      7.8960      1.5900     78.3900
     74    -14.0780      0.7990      6.5370      1.7700     78.3900
     75    -13.3390      1.6300      6.4670      0.0100     78.3900
     76    -13.4620     -0.4620      6.0260      1.6800     78.3900
     77    -13.4090     -1.6030      6.8070      1.7700     78.3900
     78    -13.9050     -1.5400      7.7800      0.0100     78.3900
     79    -12.8380     -0.4200      4.7980      1.7700     78.3900
     80    -12.7840      0.5980      4.1150      1.5900     78.3900
     81    -12.2620     -1.6030      4.4030      1.6800     78.3900
     82    -11.8060     -1.5900      3.4960      0.0100     78.3900
     83    -12.1520     -2.7690      5.1320      1.7700     78.3900
     84    -11.5400     -3.7300      4.6730      1.5900     78.3900
     85    -12.7880     -2.7240      6.4130      1.7700     78.3900
     86    -12.7490     -3.6100      7.0440      0.0100     78.3900
     87    -15.3580      1.1860      5.8230      1.7700     78.3900
     88    -15.3760      0.8440      4.7740      0.0100     78.3900
     89    -15.5400      2.5900      5.8880      1.5900     78.3900
     90    -14.8080      3.0110      5.4340      0.0100     78.3900
     91    -16.4090      0.4770      6.6540      1.7700     78.3900
     92    -16.3830     -0.6210      6.4770      0.0100     78.3900
     93    -17.7280      1.0410      6.5280      1.5900     78.3900
     94    -18.8380      0.3820      5.6420      2.1000     78.3900
     95    -19.2740     -0.8400      6.3520      1.5900     78.3900
     96    -19.8880      1.3870      5.3580      1.5900     78.3900
     97    -18.1470     -0.0650      4.2960      1.5900     78.3900
     98    -17.7570      0.8850      3.2750      1.7700     78.3900
     99    -17.1520      1.7170      3.7040      0.0100     78.3900
    100    -18.6540      1.3420      2.8010      0.0100     78.3900
    101    -16.9240      0.2140      2.1580      1.7700     78.3900
    102    -16.6700      0.9480      1.3650      0.0100     78.3900
    103    -15.6680     -0.2770      2.7160      1.5900     78.3900
    104    -15.3540     -1.5530      2.1740      1.7700     78.3900
    105    -14.3310     -1.4490      1.7370      0.0100     78.3900
    106    -15.3300     -2.6380      3.1950      1.6800     78.3900
    107    -15.9530     -2.4610      4.4050      1.7700     78.3900
    108    -16.4340     -1.4960      4.5500      0.0100     78.3900
    109    -15.9300     -3.4080      5.3500      1.7700     78.3900
    110    -16.3980     -3.2710      6.3240      0.0100     78.3900
    111    -14.6950     -3.8460      2.9160      1.7700     78.3900
    112    -14.1640     -4.0050      1.8060      1.5900     78.3900
    113    -14.6740     -4.8240      3.8510      1.6800     78.3900
    114    -15.2500     -4.6220      5.0500      1.7700     78.3900
    115    -15.1770     -5.5750      5.9740      1.6800     78.3900
    116    -14.7260     -6.4370      5.7360      0.0100     78.3900
    117    -15.6140     -5.4910      6.8700      0.0100     78.3900
    118    -16.3360     -1.8320      1.0640      1.7700     78.3900
    119    -16.5820     -2.9130      0.9850      0.0100     78.3900
    120    -15.8120     -1.3770     -0.1700      1.5900     78.3900
    121    -16.5540     -1.3440     -0.7800      0.0100     78.3900
    122    -17.5630     -1.0250      1.4990      1.7700     78.3900
    123    -18.1090     -1.5670      2.3040      0.0100     78.3900
    124    -18.4390     -0.6260      0.4170      1.5900     78.3900
    125    -19.3900     -1.7170     -0.2120      2.1000     78.3900
    126    -18.7780     -3.0530     -0.0710      1.5900     78.3900
    127    -20.7410     -1.5630      0.3690      1.5900     78.3900
    128    -19.4690     -1.3660     -1.7380      1.5900     78.3900
    129    -18.3600     -0.9550     -2.5650      1.7700     78.3900
    130    -18.0890     -1.7830     -3.2580      0.0100     78.3900
    131    -17.4510     -0.7310     -1.9680      0.0100     78.3900
    132    -18.6530      0.3020     -3.4140      1.7700     78.3900
    133    -18.9490      0.0120     -4.4450      0.0100     78.3900
    134    -19.7670      1.0760     -2.8690      1.5900     78.3900
    135    -19.4870      2.4560     -2.9890      1.7700     78.3900
    136    -20.3390      2.9000     -3.5500      0.0100     78.3900
    137    -19.3890      3.0850     -1.6690      1.6800     78.3900
    138    -19.3640      4.5720     -0.0520      1.7700     78.3900
    139    -19.2120      3.3350      0.5610      1.6800     78.3900
    140    -19.2330      2.4870     -0.4390      1.7700     78.3900
    141    -19.1540      1.4040     -0.3510      0.0100     78.3900
    142    -19.5970      6.8990     -0.4350      1.6800     78.3900
    143    -19.6690      6.5960     -1.7360      1.7700     78.3900
    144    -19.7970      7.4460     -2.4170      0.0100     78.3900
    145    -19.6410      5.4000     -2.3320      1.6800     78.3900
    146    -19.4710      4.4270     -1.4240      1.7700     78.3900
    147    -19.4480      5.8860      0.4580      1.7700     78.3900
    148    -19.4340      6.1690      1.7720      1.6800     78.3900
    149    -19.3410      5.4550      2.4710      0.0100     78.3900
    150    -19.4860      7.1200      2.0750      0.0100     78.3900
    151    -18.2160      2.6130     -3.8020      1.7700     78.3900
    152    -17.6060      3.4860     -3.4750      0.0100     78.3900
    153    -18.5120      2.7310     -5.1860      1.5900     78.3900
    154    -17.6390      2.7530     -5.6260      0.0100     78.3900
    155    -17.4840      1.3090     -3.4890      1.7700     78.3900
    156    -17.0270      1.3640     -2.4750      0.0100     78.3900
    157    -16.5220      0.8690     -4.4680      1.5900     78.3900
    158    -15.3440      1.7880     -4.9650      2.1000     78.3900
    159    -14.3060      0.9050     -5.5470      1.5900     78.3900
    160    -15.9220      2.8220     -5.8530      1.5900     78.3900
    161    -14.7750      2.4500     -3.6590      1.5900     78.3900
    162    -13.6490      3.3700     -3.7280      1.7700     78.3900
    163    -13.1790      3.4310     -4.7390      0.0100     78.3900
    164    -12.8590      2.9780     -3.0490      0.0100     78.3900
    165    -13.9910      4.8060     -3.2600      1.7700     78.3900
    166    -14.3820      5.4140     -4.1030      0.0100     78.3900
    167    -15.0540      4.7570     -2.2600      1.5900     78.3900
    168    -14.7800      5.6700     -1.2220      1.7700     78.3900
    169    -15.6880      6.3120     -1.1520      0.0100     78.3900
    170    -14.5380      4.9890      0.0720      1.6800     78.3900
    171    -13.8700      3.7850      0.1030      1.7700     78.3900
    172    -13.5780      3.3670     -0.8640      0.0100     78.3900
    173    -13.6460      3.1460      1.2560      1.7700     78.3900
    174    -13.1410      2.1830      1.3090      0.0100     78.3900
    175    -14.9350      5.5990      1.2600      1.7700     78.3900
    176    -15.4970      6.7040      1.2120      1.5900     78.3900
    177    -14.7070      4.9740      2.4380      1.6800     78.3900
    178    -14.0940      3.7780      2.4450      1.7700     78.3900
    179    -13.8900      3.2040      3.6160      1.6800     78.3900
    180    -13.5430      2.2650      3.7000      0.0100     78.3900
    181    -14.0560      3.8020      4.3960      0.0100     78.3900
    182    -13.6060      6.5230     -1.6480      1.7700     78.3900
    183    -12.9950      6.8300     -0.7870      0.0100     78.3900
    184    -14.0510      7.6810     -2.3280      1.5900     78.3900
    185    -13.2630      8.1050     -2.7020      0.0100     78.3900
    186    -12.8360      5.5730     -2.5630      1.7700     78.3900
    187    -12.2790      4.8250     -1.9530      0.0100     78.3900
    188    -11.9820      6.2230     -3.5370      1.5900     78.3900
    189    -10.5240      6.6730     -3.1330      2.1000     78.3900
    190     -9.8430      5.5180     -2.5000      1.5900     78.3900
    191     -9.8760      7.2450     -4.3320      1.5900     78.3900
    192    -10.7070      7.8550     -2.0980      1.5900     78.3900
    193     -9.6940      8.0820     -1.0730      1.7700     78.3900
    194     -9.1340      9.0180     -1.2940      0.0100     78.3900
    195     -8.9280      7.2680     -1.0180      0.0100     78.3900
    196    -10.3140      8.2160      0.3250      1.7700     78.3900
    197    -10.9280      9.1400      0.4040      0.0100     78.3900
    198    -11.1990      7.0960      0.5650      1.5900     78.3900
    199    -11.0900      6.6570      1.8950      1.7700     78.3900
    200    -12.1190      6.6580      2.3250      0.0100     78.3900
    201    -10.5420      5.2990      1.9350      1.6800     78.3900
    202    -10.5340      4.4660      3.0180      1.7700     78.3900
    203    -11.3210      3.8440      6.3320      1.6800     78.3900
    204    -11.7420      4.7000      6.6280      0.0100     78.3900
    205    -11.1590      3.1230      7.0130      0.0100     78.3900
    206    -11.0140      4.7570      4.2380      1.6800     78.3900
    207    -10.8910      3.7420      5.0880      1.7700     78.3900
    208    -10.3380      2.5380      4.7400      1.6800     78.3900
    209    -10.2700      1.8230      5.4470      0.0100     78.3900
    210     -9.8350      2.2070      3.4880      1.7700     78.3900
    211     -9.3510      1.0940      3.2540      1.5900     78.3900
    212     -9.9490      3.2950      2.5810      1.7700     78.3900
    213     -9.5800      3.3940      1.2440      1.6800     78.3900
    214     -9.9550      4.6030      0.8960      1.7700     78.3900
    215     -9.8410      5.0440     -0.1000      0.0100     78.3900
    216    -10.2240      7.6580      2.6240      1.7700     78.3900
    217     -9.6370      7.1970      3.4420      0.0100     78.3900
    218    -11.0290      8.6960      3.1450      1.5900     78.3900
    219    -10.4330      9.3820      3.4690      0.0100     78.3900
    220     -9.3280      8.1590      1.4980      1.7700     78.3900
    221     -8.5820      7.3710      1.2300      0.0100     78.3900
    222     -8.7440      9.4650      1.7260      1.5900     78.3900
    223     -7.2420      9.5430      2.1910      2.1000     78.3900
    224     -6.4610      8.5280      1.4530      1.5900     78.3900
    225     -6.7650     10.9390      2.0850      1.5900     78.3900
    226     -7.3170      9.1230      3.7060      1.5900     78.3900
    227     -8.0350      9.9370      4.6610      1.7700     78.3900
    228     -9.0860     10.1130      4.3400      0.0100     78.3900
    229     -7.5470     10.9360      4.7670      0.0100     78.3900
    230     -8.0720      9.2730      6.0440      1.7700     78.3900
    231     -8.5360      9.9500      6.7960      0.0100     78.3900
    232     -8.8840      8.0640      5.9890      1.5900     78.3900
    233     -8.2780      7.0590      6.7980      1.7700     78.3900
    234     -9.0650      6.7480      7.5230      0.0100     78.3900
    235     -7.8470      5.8710      6.0120      1.6800     78.3900
    236     -7.6180      5.9790      4.6610      1.7700     78.3900
    237     -7.8070      6.9570      4.2220      0.0100     78.3900
    238     -7.2280      4.9280      3.9290      1.7700     78.3900
    239     -7.0720      4.9940      2.8540      0.0100     78.3900
    240     -7.6070      4.6610      6.6540      1.7700     78.3900
    241     -7.7450      4.5910      7.8840      1.5900     78.3900
    242     -7.2270      3.5820      5.9300      1.6800     78.3900
    243     -7.0230      3.6930      4.6050      1.7700     78.3900
    244     -6.6370      2.6210      3.9180      1.6800     78.3900
    245     -6.5070      1.7480      4.3920      0.0100     78.3900
    246     -6.5010      2.6480      2.9290      0.0100     78.3900
    247     -7.1270      7.7030      7.5580      1.7700     78.3900
    248     -6.2890      6.9920      7.7360      0.0100     78.3900
    249     -7.5930      8.2150      8.7980      1.5900     78.3900
    250     -6.9130      8.8030      9.1680      0.0100     78.3900
    251     -6.7160      8.8070      6.5910      1.7700     78.3900
    252     -6.1230      8.3820      5.7510      0.0100     78.3900
    253     -6.0200      9.9020      7.2080      1.5900     78.3900
    254     -5.1530      9.5990      7.5200      0.0100     78.3900

 CREATION OF A NEW CAVITY WITH THE ORIGINAL SPHERE
 SIZES FOR THE COMPUTATION OF THE CAVITATION ENERGY.

     INPUT FOR CAVITY DEFINITION 
     ---------------------------
   ATOM               COORDINATES                RADIUS       EPS
      1     -5.7380     -7.1940      9.0010      0.0100     78.3900
      2     -6.0690     -6.3270      9.2980      1.5900     78.3900
      3     -5.9500     -6.3080     10.7290      1.7700     78.3900
      4     -4.8960     -6.5200     11.0150      0.0100     78.3900
      5     -6.5880     -7.1100     11.1610      0.0100     78.3900
      6     -6.3660     -4.9660     11.3400      1.7700     78.3900
      7     -6.3240     -5.0020     12.4510      0.0100     78.3900
      8     -5.4460     -3.9190     10.9000      1.5900     78.3900
      9     -6.1800     -2.7250     10.6720      1.7700     78.3900
     10     -5.7140     -1.9300     11.3020      0.0100     78.3900
     11     -6.1190     -2.3060      9.2640      1.6800     78.3900
     12     -6.3970     -1.0550      8.7770      1.7700     78.3900
     13     -7.3550      2.2250      9.3060      1.6800     78.3900
     14     -7.5200      2.2470     10.2880      0.0100     78.3900
     15     -7.5230      3.0530      8.7630      0.0100     78.3900
     16     -6.7950      0.0050      9.5030      1.6800     78.3900
     17     -6.9620      1.0940      8.7580      1.7700     78.3900
     18     -6.7310      1.1230      7.4080      1.6800     78.3900
     19     -6.8790      1.9930      6.9210      0.0100     78.3900
     20     -6.3090      0.0520      6.6310      1.7700     78.3900
     21     -6.1180      0.1700      5.4150      1.5900     78.3900
     22     -6.1570     -1.1250      7.4160      1.7700     78.3900
     23     -5.7600     -2.4050      7.0500      1.6800     78.3900
     24     -5.7460     -3.0730      8.1820      1.7700     78.3900
     25     -5.4750     -4.1250      8.3000      0.0100     78.3900
     26     -7.5930     -2.9660     11.1490      1.7700     78.3900
     27     -8.3400     -2.3760     10.5830      0.0100     78.3900
     28     -7.6780     -2.6530     12.5250      1.5900     78.3900
     29     -8.5770     -2.8650     12.8010      0.0100     78.3900
     30     -7.7550     -4.4600     10.9170      1.7700     78.3900
     31     -7.8630     -4.6790      9.8300      0.0100     78.3900
     32     -8.7780     -5.0880     11.7200      1.5900     78.3900
     33    -10.2540     -5.1950     11.1790      2.1000     78.3900
     34    -10.2120     -5.7540      9.8100      1.5900     78.3900
     35    -11.0620     -5.9410     12.1690      1.5900     78.3900
     36    -10.7660     -3.7010     11.1010      1.5900     78.3900
     37    -11.0160     -2.9430     12.3110      1.7700     78.3900
     38    -10.1370     -2.9520     12.9850      0.0100     78.3900
     39    -11.8740     -3.3710     12.8720      0.0100     78.3900
     40    -11.3700     -1.4780     12.0130      1.7700     78.3900
     41    -11.5590     -0.9190     12.9560      0.0100     78.3900
     42    -10.2610     -0.8120     11.3430      1.5900     78.3900
     43    -10.7830      0.0930     10.3780      1.7700     78.3900
     44    -10.3690      1.0920     10.6500      0.0100     78.3900
     45    -10.3720     -0.2360      8.9810      1.6800     78.3900
     46     -9.9770     -1.5130      8.6600      1.7700     78.3900
     47     -9.9940     -2.2360      9.4760      0.0100     78.3900
     48     -9.5670     -1.8290      7.4250      1.7700     78.3900
     49     -9.2170     -2.8240      7.1670      0.0100     78.3900
     50    -10.4200      0.7390      7.9860      1.7700     78.3900
     51    -10.8210      1.8780      8.2700      1.5900     78.3900
     52    -10.0100      0.4350      6.7320      1.6800     78.3900
     53     -9.5780     -0.8010      6.4410      1.7700     78.3900
     54     -9.1530     -1.0560      5.2070      1.6800     78.3900
     55     -9.1470     -0.3170      4.5290      0.0100     78.3900
     56     -8.7800     -1.9450      4.9380      0.0100     78.3900
     57    -12.2900      0.1230     10.5540      1.7700     78.3900
     58    -12.8160      0.2890      9.5950      0.0100     78.3900
     59    -12.6620      1.1220     11.4900      1.5900     78.3900
     60    -13.6150      1.0230     11.6490      0.0100     78.3900
     61    -12.5690     -1.2750     11.0820      1.7700     78.3900
     62    -12.4760     -2.0300     10.2690      0.0100     78.3900
     63    -13.7960     -1.4180     11.8260      1.5900     78.3900
     64    -15.1580     -1.6540     11.0760      2.1000     78.3900
     65    -14.9840     -2.8120     10.1670      1.5900     78.3900
     66    -16.2090     -1.7370     12.1110      1.5900     78.3900
     67    -15.3900     -0.3400     10.2530      1.5900     78.3900
     68    -16.2770     -0.3360      9.1060      1.7700     78.3900
     69    -17.3190     -0.1130      9.4260      0.0100     78.3900
     70    -16.2860     -1.3210      8.5820      0.0100     78.3900
     71    -15.8590      0.7140      8.0650      1.7700     78.3900
     72    -16.1370      1.7350      8.4020      0.0100     78.3900
     73    -14.4110      0.7050      7.8960      1.5900     78.3900
     74    -14.0780      0.7990      6.5370      1.7700     78.3900
     75    -13.3390      1.6300      6.4670      0.0100     78.3900
     76    -13.4620     -0.4620      6.0260      1.6800     78.3900
     77    -13.4090     -1.6030      6.8070      1.7700     78.3900
     78    -13.9050     -1.5400      7.7800      0.0100     78.3900
     79    -12.8380     -0.4200      4.7980      1.7700     78.3900
     80    -12.7840      0.5980      4.1150      1.5900     78.3900
     81    -12.2620     -1.6030      4.4030      1.6800     78.3900
     82    -11.8060     -1.5900      3.4960      0.0100     78.3900
     83    -12.1520     -2.7690      5.1320      1.7700     78.3900
     84    -11.5400     -3.7300      4.6730      1.5900     78.3900
     85    -12.7880     -2.7240      6.4130      1.7700     78.3900
     86    -12.7490     -3.6100      7.0440      0.0100     78.3900
     87    -15.3580      1.1860      5.8230      1.7700     78.3900
     88    -15.3760      0.8440      4.7740      0.0100     78.3900
     89    -15.5400      2.5900      5.8880      1.5900     78.3900
     90    -14.8080      3.0110      5.4340      0.0100     78.3900
     91    -16.4090      0.4770      6.6540      1.7700     78.3900
     92    -16.3830     -0.6210      6.4770      0.0100     78.3900
     93    -17.7280      1.0410      6.5280      1.5900     78.3900
     94    -18.8380      0.3820      5.6420      2.1000     78.3900
     95    -19.2740     -0.8400      6.3520      1.5900     78.3900
     96    -19.8880      1.3870      5.3580      1.5900     78.3900
     97    -18.1470     -0.0650      4.2960      1.5900     78.3900
     98    -17.7570      0.8850      3.2750      1.7700     78.3900
     99    -17.1520      1.7170      3.7040      0.0100     78.3900
    100    -18.6540      1.3420      2.8010      0.0100     78.3900
    101    -16.9240      0.2140      2.1580      1.7700     78.3900
    102    -16.6700      0.9480      1.3650      0.0100     78.3900
    103    -15.6680     -0.2770      2.7160      1.5900     78.3900
    104    -15.3540     -1.5530      2.1740      1.7700     78.3900
    105    -14.3310     -1.4490      1.7370      0.0100     78.3900
    106    -15.3300     -2.6380      3.1950      1.6800     78.3900
    107    -15.9530     -2.4610      4.4050      1.7700     78.3900
    108    -16.4340     -1.4960      4.5500      0.0100     78.3900
    109    -15.9300     -3.4080      5.3500      1.7700     78.3900
    110    -16.3980     -3.2710      6.3240      0.0100     78.3900
    111    -14.6950     -3.8460      2.9160      1.7700     78.3900
    112    -14.1640     -4.0050      1.8060      1.5900     78.3900
    113    -14.6740     -4.8240      3.8510      1.6800     78.3900
    114    -15.2500     -4.6220      5.0500      1.7700     78.3900
    115    -15.1770     -5.5750      5.9740      1.6800     78.3900
    116    -14.7260     -6.4370      5.7360      0.0100     78.3900
    117    -15.6140     -5.4910      6.8700      0.0100     78.3900
    118    -16.3360     -1.8320      1.0640      1.7700     78.3900
    119    -16.5820     -2.9130      0.9850      0.0100     78.3900
    120    -15.8120     -1.3770     -0.1700      1.5900     78.3900
    121    -16.5540     -1.3440     -0.7800      0.0100     78.3900
    122    -17.5630     -1.0250      1.4990      1.7700     78.3900
    123    -18.1090     -1.5670      2.3040      0.0100     78.3900
    124    -18.4390     -0.6260      0.4170      1.5900     78.3900
    125    -19.3900     -1.7170     -0.2120      2.1000     78.3900
    126    -18.7780     -3.0530     -0.0710      1.5900     78.3900
    127    -20.7410     -1.5630      0.3690      1.5900     78.3900
    128    -19.4690     -1.3660     -1.7380      1.5900     78.3900
    129    -18.3600     -0.9550     -2.5650      1.7700     78.3900
    130    -18.0890     -1.7830     -3.2580      0.0100     78.3900
    131    -17.4510     -0.7310     -1.9680      0.0100     78.3900
    132    -18.6530      0.3020     -3.4140      1.7700     78.3900
    133    -18.9490      0.0120     -4.4450      0.0100     78.3900
    134    -19.7670      1.0760     -2.8690      1.5900     78.3900
    135    -19.4870      2.4560     -2.9890      1.7700     78.3900
    136    -20.3390      2.9000     -3.5500      0.0100     78.3900
    137    -19.3890      3.0850     -1.6690      1.6800     78.3900
    138    -19.3640      4.5720     -0.0520      1.7700     78.3900
    139    -19.2120      3.3350      0.5610      1.6800     78.3900
    140    -19.2330      2.4870     -0.4390      1.7700     78.3900
    141    -19.1540      1.4040     -0.3510      0.0100     78.3900
    142    -19.5970      6.8990     -0.4350      1.6800     78.3900
    143    -19.6690      6.5960     -1.7360      1.7700     78.3900
    144    -19.7970      7.4460     -2.4170      0.0100     78.3900
    145    -19.6410      5.4000     -2.3320      1.6800     78.3900
    146    -19.4710      4.4270     -1.4240      1.7700     78.3900
    147    -19.4480      5.8860      0.4580      1.7700     78.3900
    148    -19.4340      6.1690      1.7720      1.6800     78.3900
    149    -19.3410      5.4550      2.4710      0.0100     78.3900
    150    -19.4860      7.1200      2.0750      0.0100     78.3900
    151    -18.2160      2.6130     -3.8020      1.7700     78.3900
    152    -17.6060      3.4860     -3.4750      0.0100     78.3900
    153    -18.5120      2.7310     -5.1860      1.5900     78.3900
    154    -17.6390      2.7530     -5.6260      0.0100     78.3900
    155    -17.4840      1.3090     -3.4890      1.7700     78.3900
    156    -17.0270      1.3640     -2.4750      0.0100     78.3900
    157    -16.5220      0.8690     -4.4680      1.5900     78.3900
    158    -15.3440      1.7880     -4.9650      2.1000     78.3900
    159    -14.3060      0.9050     -5.5470      1.5900     78.3900
    160    -15.9220      2.8220     -5.8530      1.5900     78.3900
    161    -14.7750      2.4500     -3.6590      1.5900     78.3900
    162    -13.6490      3.3700     -3.7280      1.7700     78.3900
    163    -13.1790      3.4310     -4.7390      0.0100     78.3900
    164    -12.8590      2.9780     -3.0490      0.0100     78.3900
    165    -13.9910      4.8060     -3.2600      1.7700     78.3900
    166    -14.3820      5.4140     -4.1030      0.0100     78.3900
    167    -15.0540      4.7570     -2.2600      1.5900     78.3900
    168    -14.7800      5.6700     -1.2220      1.7700     78.3900
    169    -15.6880      6.3120     -1.1520      0.0100     78.3900
    170    -14.5380      4.9890      0.0720      1.6800     78.3900
    171    -13.8700      3.7850      0.1030      1.7700     78.3900
    172    -13.5780      3.3670     -0.8640      0.0100     78.3900
    173    -13.6460      3.1460      1.2560      1.7700     78.3900
    174    -13.1410      2.1830      1.3090      0.0100     78.3900
    175    -14.9350      5.5990      1.2600      1.7700     78.3900
    176    -15.4970      6.7040      1.2120      1.5900     78.3900
    177    -14.7070      4.9740      2.4380      1.6800     78.3900
    178    -14.0940      3.7780      2.4450      1.7700     78.3900
    179    -13.8900      3.2040      3.6160      1.6800     78.3900
    180    -13.5430      2.2650      3.7000      0.0100     78.3900
    181    -14.0560      3.8020      4.3960      0.0100     78.3900
    182    -13.6060      6.5230     -1.6480      1.7700     78.3900
    183    -12.9950      6.8300     -0.7870      0.0100     78.3900
    184    -14.0510      7.6810     -2.3280      1.5900     78.3900
    185    -13.2630      8.1050     -2.7020      0.0100     78.3900
    186    -12.8360      5.5730     -2.5630      1.7700     78.3900
    187    -12.2790      4.8250     -1.9530      0.0100     78.3900
    188    -11.9820      6.2230     -3.5370      1.5900     78.3900
    189    -10.5240      6.6730     -3.1330      2.1000     78.3900
    190     -9.8430      5.5180     -2.5000      1.5900     78.3900
    191     -9.8760      7.2450     -4.3320      1.5900     78.3900
    192    -10.7070      7.8550     -2.0980      1.5900     78.3900
    193     -9.6940      8.0820     -1.0730      1.7700     78.3900
    194     -9.1340      9.0180     -1.2940      0.0100     78.3900
    195     -8.9280      7.2680     -1.0180      0.0100     78.3900
    196    -10.3140      8.2160      0.3250      1.7700     78.3900
    197    -10.9280      9.1400      0.4040      0.0100     78.3900
    198    -11.1990      7.0960      0.5650      1.5900     78.3900
    199    -11.0900      6.6570      1.8950      1.7700     78.3900
    200    -12.1190      6.6580      2.3250      0.0100     78.3900
    201    -10.5420      5.2990      1.9350      1.6800     78.3900
    202    -10.5340      4.4660      3.0180      1.7700     78.3900
    203    -11.3210      3.8440      6.3320      1.6800     78.3900
    204    -11.7420      4.7000      6.6280      0.0100     78.3900
    205    -11.1590      3.1230      7.0130      0.0100     78.3900
    206    -11.0140      4.7570      4.2380      1.6800     78.3900
    207    -10.8910      3.7420      5.0880      1.7700     78.3900
    208    -10.3380      2.5380      4.7400      1.6800     78.3900
    209    -10.2700      1.8230      5.4470      0.0100     78.3900
    210     -9.8350      2.2070      3.4880      1.7700     78.3900
    211     -9.3510      1.0940      3.2540      1.5900     78.3900
    212     -9.9490      3.2950      2.5810      1.7700     78.3900
    213     -9.5800      3.3940      1.2440      1.6800     78.3900
    214     -9.9550      4.6030      0.8960      1.7700     78.3900
    215     -9.8410      5.0440     -0.1000      0.0100     78.3900
[...]
   4  3  0    -1334.7529267588     0.0000242315   0.000695616   0.000098035      545806602   12232916
   5  4  0    -1334.7529080932     0.0000186656   0.000162280   0.000072813      512710802   12525934
   6  5  0    -1334.7529096414    -0.0000015482   0.000054662   0.000022399      486882651   12776964
   7  6  0    -1334.7529094306     0.0000002107   0.000020450   0.000009299      456300906   13064160
   8  7  0    -1334.7529092018     0.0000002288   0.000012051   0.000004241      428379113   13314070
   9  8  0    -1334.7529094339    -0.0000002321   0.000003458   0.000000697      404029505   13520955
  10  9  0    -1334.7529094992    -0.0000000652   0.000001290   0.000000528      377532884   13752567
  11 10  0    -1334.7529094877     0.0000000115   0.000000716   0.000000070      334403392   14114127
  12 11  0    -1334.7529094838     0.0000000038   0.000000115   0.000000053      306755348   14351160
  13 12  0    -1334.7529094839    -0.0000000001   0.000000066   0.000000014      272127384   14658909

          -----------------
          DENSITY CONVERGED
          -----------------
     TIME TO FORM FOCK OPERATORS=      20.7 SECONDS (       1.6 SEC/ITER)
     FOCK TIME ON FIRST ITERATION=       2.9, LAST ITERATION=       0.9
     TIME TO SOLVE SCF EQUATIONS=       0.4 SECONDS (       0.0 SEC/ITER)

 FINAL RHF ENERGY IS    -1334.7529094839 AFTER  13 ITERATIONS
 ...... END OF RHF CALCULATION ......
 CPU     0: STEP CPU TIME=    49.66 TOTAL CPU TIME=       1079.2 (     18.0 MIN)
 TOTAL WALL CLOCK TIME=       2240.3 SECONDS, CPU UTILIZATION IS    48.17%
 DONE PCM POT.
 CPU     0: STEP CPU TIME=     0.28 TOTAL CPU TIME=       1079.4 (     18.0 MIN)
 TOTAL WALL CLOCK TIME=       2241.3 SECONDS, CPU UTILIZATION IS    48.16%

 Iter=  3 iFrag=      2 EFMO= -1360.639635880, DD= 0.030083730, DE= 0.028026476


 RHF      monomer      3 corr= NONE       , L1=   339, L0=   318 ID=      7


 AO spaces for     3     0     0 n-mer: L1=   339, L0=   318

 DIRECT SCF CALCULATION, SCHWRZ=T   FDIFF=T,  DIRTHR=  0.00E+00 NITDIR=10

                                                                                   NONZERO     BLOCKS
 ITER EX DEM     TOTAL ENERGY        E CHANGE  DENSITY CHANGE     ORB. GRAD      INTEGRALS    SKIPPED
   1  0  0    -1347.3759388133 -1347.3759388133   0.026837527   0.000000000      659735215    9487760
          ---------------START SECOND ORDER SCF---------------
   2  1  0    -1347.3772281899    -0.0012893766   0.005797087   0.001186369      607611509   10452919
   3  2  0    -1347.3772936949    -0.0000655050   0.001285573   0.000763162      585552926   10714201
   4  3  0    -1347.3773178995    -0.0000242047   0.000666901   0.000083684      552421615   11037434
   5  4  0    -1347.3773047726     0.0000131269   0.000142914   0.000069800      517422062   11343286
   6  5  0    -1347.3773032636     0.0000015091   0.000058340   0.000031582      493188080   11576054
   7  6  0    -1347.3773019529     0.0000013106   0.000018463   0.000011577      464346927   11823624
   8  7  0    -1347.3773019288     0.0000000241   0.000007423   0.000005140      428397651   12152342
   9  8  0    -1347.3773021457    -0.0000002169   0.000004114   0.000001639      405862902   12338708
  10  9  0    -1347.3773022485    -0.0000001028   0.000001020   0.000000421      383483496   12539067
  11 10  0    -1347.3773022281     0.0000000204   0.000000355   0.000000172      339983817   12907016
  12 11  0    -1347.3773022307    -0.0000000026   0.000000110   0.000000037      312819117   13132060
  13 12  0    -1347.3773022311    -0.0000000004   0.000000044   0.000000013      275888105   13451951

          -----------------
          DENSITY CONVERGED
          -----------------
     TIME TO FORM FOCK OPERATORS=      22.1 SECONDS (       1.7 SEC/ITER)
     FOCK TIME ON FIRST ITERATION=       3.9, LAST ITERATION=       0.9
     TIME TO SOLVE SCF EQUATIONS=       0.4 SECONDS (       0.0 SEC/ITER)

 FINAL RHF ENERGY IS    -1347.3773022311 AFTER  13 ITERATIONS
 ...... END OF RHF CALCULATION ......
 CPU     0: STEP CPU TIME=    48.45 TOTAL CPU TIME=       1127.9 (     18.8 MIN)
 TOTAL WALL CLOCK TIME=       2338.9 SECONDS, CPU UTILIZATION IS    48.22%
 DONE PCM POT.
 CPU     0: STEP CPU TIME=     0.27 TOTAL CPU TIME=       1128.2 (     18.8 MIN)
 TOTAL WALL CLOCK TIME=       2339.8 SECONDS, CPU UTILIZATION IS    48.22%

 Iter=  3 iFrag=      3 EFMO= -1380.506713815, DD= 0.022474406, DE= 0.010381947


 RHF      monomer      8 corr= NONE       , L1=   264, L0=   248 ID=      8


 AO spaces for     8     0     0 n-mer: L1=   264, L0=   248

 DIRECT SCF CALCULATION, SCHWRZ=T   FDIFF=T,  DIRTHR=  0.00E+00 NITDIR=10

                                                                                   NONZERO     BLOCKS
 ITER EX DEM     TOTAL ENERGY        E CHANGE  DENSITY CHANGE     ORB. GRAD      INTEGRALS    SKIPPED
   1  0  0     -771.2987848205  -771.2987848205   0.031145714   0.000000000      326983571    3947413
          ---------------START SECOND ORDER SCF---------------
   2  1  0     -771.2997728153    -0.0009879948   0.008092162   0.001659641      307926763    4474307
   3  2  0     -771.3001365138    -0.0003636985   0.001595100   0.000441248      298289505    4632468
   4  3  0     -771.3000673631     0.0000691507   0.000328604   0.000068988      285110892    4816049
   5  4  0     -771.3000397992     0.0000275640   0.000167163   0.000058309      271294110    4977179
   6  5  0     -771.3000347034     0.0000050958   0.000042425   0.000021266      261341034    5105650
   7  6  0     -771.3000341123     0.0000005911   0.000015064   0.000007099      246963366    5286953
   8  7  0     -771.3000341463    -0.0000000340   0.000009736   0.000004389      232538050    5455486
   9  8  0     -771.3000342960    -0.0000001496   0.000002491   0.000000912      223555344    5555982
  10  9  0     -771.3000343489    -0.0000000530   0.000001176   0.000000602      208227086    5725219
  11 10  0     -771.3000343327     0.0000000162   0.000000444   0.000000090      189754152    5917658
  12 11  0     -771.3000343309     0.0000000018   0.000000106   0.000000053      175436505    6071323
  13 12  0     -771.3000343306     0.0000000003   0.000000058   0.000000019      155544298    6295068

          -----------------
          DENSITY CONVERGED
          -----------------
     TIME TO FORM FOCK OPERATORS=      11.3 SECONDS (       0.9 SEC/ITER)
     FOCK TIME ON FIRST ITERATION=       1.2, LAST ITERATION=       0.5
     TIME TO SOLVE SCF EQUATIONS=       0.2 SECONDS (       0.0 SEC/ITER)

 FINAL RHF ENERGY IS     -771.3000343306 AFTER  13 ITERATIONS
 ...... END OF RHF CALCULATION ......
 CPU     0: STEP CPU TIME=    19.37 TOTAL CPU TIME=       1147.5 (     19.1 MIN)
 TOTAL WALL CLOCK TIME=       2385.6 SECONDS, CPU UTILIZATION IS    48.10%
 DONE PCM POT.
 CPU     0: STEP CPU TIME=     0.16 TOTAL CPU TIME=       1147.7 (     19.1 MIN)
 TOTAL WALL CLOCK TIME=       2386.2 SECONDS, CPU UTILIZATION IS    48.10%

 Iter=  3 iFrag=      8 EFMO=  -795.793663055, DD= 0.024762796, DE= 0.041500210

 CPU     0: STEP CPU TIME=     0.00 TOTAL CPU TIME=       1147.7 (     19.1 MIN)
 TOTAL WALL CLOCK TIME=       2386.2 SECONDS, CPU UTILIZATION IS    48.10%

  Monomer SCF synchronisation on iteration   3.1 took     0.0 s.
 CPU     0: STEP CPU TIME=     0.00 TOTAL CPU TIME=       1147.7 (     19.1 MIN)
 TOTAL WALL CLOCK TIME=       2386.2 SECONDS, CPU UTILIZATION IS    48.10%
 dmexch needs              2967020  words of memory.
 CPU     0: STEP CPU TIME=     0.01 TOTAL CPU TIME=       1147.7 (     19.1 MIN)
 TOTAL WALL CLOCK TIME=       2386.2 SECONDS, CPU UTILIZATION IS    48.10%

 Data exchange of    982767 words took     0.0 s.

 Calculating apparent surface charges...
     Using       42829 words of memory.
 ASC ITERATION=   1 CONVERGED TO  0.868686E-03
 ASC ITERATION=   2 CONVERGED TO  0.829554E-02
 ASC ITERATION=   3 CONVERGED TO  0.101867E-01
 ASC ITERATION=   4 CONVERGED TO  0.200083E-02
 ASC ITERATION=   5 CONVERGED TO  0.790901E-03
 ASC ITERATION=   6 CONVERGED TO  0.484307E-03
 ASC ITERATION=   7 CONVERGED TO  0.336480E-03
 ASC ITERATION=   8 CONVERGED TO  0.162038E-03
 ASC ITERATION=   9 CONVERGED TO  0.773374E-04
 ASC ITERATION=  10 CONVERGED TO  0.372064E-04
 ASC ITERATION=  11 CONVERGED TO  0.195916E-04
 ASC ITERATION=  12 CONVERGED TO  0.124567E-04
 ASC ITERATION=  13 CONVERGED TO  0.577778E-05
 ASC ITERATION=  14 CONVERGED TO  0.277116E-05
 ASC ITERATION=  15 CONVERGED TO  0.174807E-05
 ASC ITERATION=  16 CONVERGED TO  0.116127E-05
 ASC ITERATION=  17 CONVERGED TO  0.609304E-06
 ASC ITERATION=  18 CONVERGED TO  0.352623E-06
 ASC ITERATION=  19 CONVERGED TO  0.187257E-06
 ASC ITERATION=  20 CONVERGED TO  0.111157E-06
 ASC ITERATION=  21 CONVERGED TO  0.659862E-07
 ASC ITERATION=  22 CONVERGED TO  0.404335E-07
 ASC ITERATION=  23 CONVERGED TO  0.270404E-07
 ASC ITERATION=  24 CONVERGED TO  0.204647E-07
 ASC ITERATION=  25 CONVERGED TO  0.104063E-07
 ASC ITERATION=  26 CONVERGED TO  0.433759E-08
 ASC ITERATION=  27 CONVERGED TO  0.265421E-08
 ASC ITERATION=  28 CONVERGED TO  0.125348E-08
 ASC ITERATION=  29 CONVERGED TO  0.687699E-09
 ASC ITERATION=  30 CONVERGED TO  0.371255E-09
 ASC ITERATION=  31 CONVERGED TO  0.179482E-09
 ASC ITERATION=  32 CONVERGED TO  0.121143E-09
 ASC ITERATION=  33 CONVERGED TO  0.517731E-10

 THE ASC EQUATIONS FOR PHASE=1 CONVERGED IN  33 ITERATIONS.

 PCM ASC=      6.8585758744 normalised to=      6.9107028958
 Nuclear factor=   1.0032107988, electronic factor=   1.0032345882

 CPU     0: STEP CPU TIME=     0.15 TOTAL CPU TIME=       1147.8 (     19.1 MIN)
 TOTAL WALL CLOCK TIME=       2386.5 SECONDS, CPU UTILIZATION IS    48.10%


 ------------------------------------------------------------------------------
 FMO iter  3.1,      0 fragment(s) converged, maxD 0.030083730 maxE 0.041500210
 ------------------------------------------------------------------------------

 RHF      monomer      1 corr= NONE       , L1=   403, L0=   378 ID=      1


 AO spaces for     1     0     0 n-mer: L1=   403, L0=   378

 DIRECT SCF CALCULATION, SCHWRZ=T   FDIFF=T,  DIRTHR=  0.00E+00 NITDIR=10

                                                                                   NONZERO     BLOCKS
 ITER EX DEM     TOTAL ENERGY        E CHANGE  DENSITY CHANGE     ORB. GRAD      INTEGRALS    SKIPPED
   1  0  0    -1556.8304769750 -1556.8304769750   0.007277491   0.000000000     1031554929   21786548
          ---------------START SECOND ORDER SCF---------------
   2  1  0    -1556.8302888935     0.0001880815   0.001378817   0.000300326      888365116   24097823
   3  2  0    -1556.8303397124    -0.0000508189   0.000971490   0.000139106      851823231   24449590
   4  3  0    -1556.8302911912     0.0000485211   0.000125259   0.000049882      802750081   24887775
   5  4  0    -1556.8302955947    -0.0000044034   0.000047122   0.000023853      751068155   25356083
   6  5  0    -1556.8302977061    -0.0000021114   0.000024109   0.000003668      698693219   25795868
   7  6  0    -1556.8302978231    -0.0000001170   0.000005367   0.000002759      643876359   26252755
   8  7  0    -1556.8302975951     0.0000002280   0.000002579   0.000000840      596940935   26661589
   9  8  0    -1556.8302976219    -0.0000000268   0.000001017   0.000000567      549824286   27055580
  10  9  0    -1556.8302976362    -0.0000000143   0.000000551   0.000000171      509197721   27377045
  11 10  0    -1556.8302976247     0.0000000115   0.000000128   0.000000056      461139177   27767397
  12 11  0    -1556.8302976163     0.0000000084   0.000000048   0.000000014      416735837   28105975

          -----------------
          DENSITY CONVERGED
          -----------------
     TIME TO FORM FOCK OPERATORS=      25.8 SECONDS (       2.1 SEC/ITER)
     FOCK TIME ON FIRST ITERATION=       3.7, LAST ITERATION=       1.3
     TIME TO SOLVE SCF EQUATIONS=       0.5 SECONDS (       0.0 SEC/ITER)

 FINAL RHF ENERGY IS    -1556.8302976163 AFTER  12 ITERATIONS
 ...... END OF RHF CALCULATION ......
 CPU     0: STEP CPU TIME=    41.93 TOTAL CPU TIME=       1189.8 (     19.8 MIN)
 TOTAL WALL CLOCK TIME=       2485.8 SECONDS, CPU UTILIZATION IS    47.86%
 DONE PCM POT.
 CPU     0: STEP CPU TIME=     0.37 TOTAL CPU TIME=       1190.2 (     19.8 MIN)
 TOTAL WALL CLOCK TIME=       2487.1 SECONDS, CPU UTILIZATION IS    47.85%

 Iter=  4 iFrag=      1 EFMO= -1597.637897280, DD= 0.008814775, DE=-0.024312185


 RHF      monomer      7 corr= NONE       , L1=   386, L0=   362 ID=      2


 AO spaces for     7     0     0 n-mer: L1=   386, L0=   362

 DIRECT SCF CALCULATION, SCHWRZ=T   FDIFF=T,  DIRTHR=  0.00E+00 NITDIR=10

                                                                                   NONZERO     BLOCKS
 ITER EX DEM     TOTAL ENERGY        E CHANGE  DENSITY CHANGE     ORB. GRAD      INTEGRALS    SKIPPED
   1  0  0    -1473.9288440395 -1473.9288440395   0.004206935   0.000000000      917344038   17473147
          ---------------START SECOND ORDER SCF---------------
   2  1  0    -1473.9286114640     0.0002325755   0.001085087   0.000430118      802177444   19337100
   3  2  0    -1473.9286392720    -0.0000278080   0.000638430   0.000124197      764700037   19679873
   4  3  0    -1473.9285915943     0.0000476777   0.000137888   0.000051698      721228514   20066849
   5  4  0    -1473.9285916279    -0.0000000336   0.000052589   0.000017643      673341065   20476574
   6  5  0    -1473.9285934141    -0.0000017862   0.000021965   0.000006612      620094774   20909074
   7  6  0    -1473.9285937886    -0.0000003746   0.000005900   0.000002381      579228627   21253907
   8  7  0    -1473.9285935971     0.0000001915   0.000002163   0.000000750      532620736   21649940
   9  8  0    -1473.9285935428     0.0000000543   0.000000922   0.000000604      498812605   21934719
  10  9  0    -1473.9285935418     0.0000000010   0.000000337   0.000000147      462591407   22216209
  11 10  0    -1473.9285935476    -0.0000000058   0.000000192   0.000000061      419714006   22569193

          -----------------
          DENSITY CONVERGED
          -----------------
     TIME TO FORM FOCK OPERATORS=      22.4 SECONDS (       2.0 SEC/ITER)
     FOCK TIME ON FIRST ITERATION=       2.8, LAST ITERATION=       1.5
     TIME TO SOLVE SCF EQUATIONS=       0.4 SECONDS (       0.0 SEC/ITER)

 FINAL RHF ENERGY IS    -1473.9285935476 AFTER  11 ITERATIONS
 ...... END OF RHF CALCULATION ......
 CPU     0: STEP CPU TIME=    59.95 TOTAL CPU TIME=       1250.1 (     20.8 MIN)
 TOTAL WALL CLOCK TIME=       2585.4 SECONDS, CPU UTILIZATION IS    48.35%
 DONE PCM POT.
 CPU     0: STEP CPU TIME=     0.39 TOTAL CPU TIME=       1250.5 (     20.8 MIN)
 TOTAL WALL CLOCK TIME=       2586.4 SECONDS, CPU UTILIZATION IS    48.35%

 Iter=  4 iFrag=      7 EFMO= -1507.409408493, DD= 0.005065509, DE=-0.020451280


 RHF      monomer      5 corr= NONE       , L1=   371, L0=   348 ID=      3


 AO spaces for     5     0     0 n-mer: L1=   371, L0=   348

 DIRECT SCF CALCULATION, SCHWRZ=T   FDIFF=T,  DIRTHR=  0.00E+00 NITDIR=10

                                                                                   NONZERO     BLOCKS
 ITER EX DEM     TOTAL ENERGY        E CHANGE  DENSITY CHANGE     ORB. GRAD      INTEGRALS    SKIPPED
   1  0  0    -1396.6425877047 -1396.6425877047   0.004628007   0.000000000      817830388   14963165
          ---------------START SECOND ORDER SCF---------------
   2  1  0    -1396.6425596402     0.0000280645   0.001150717   0.000252215      697921255   16822409
   3  2  0    -1396.6425853876    -0.0000257474   0.000563373   0.000114755      668400531   17098481
   4  3  0    -1396.6425673782     0.0000180094   0.000127266   0.000023465      629143976   17457594
   5  4  0    -1396.6425679851    -0.0000006070   0.000026900   0.000008746      588275138   17817605
   6  5  0    -1396.6425688055    -0.0000008204   0.000008749   0.000002833      543148641   18193347
   7  6  0    -1396.6425688334    -0.0000000279   0.000002506   0.000001499      503870132   18543023
   8  7  0    -1396.6425688295     0.0000000039   0.000001239   0.000000658      464894912   18875627
   9  8  0    -1396.6425688220     0.0000000075   0.000000664   0.000000414      428948654   19178679
  10  9  0    -1396.6425688055     0.0000000165   0.000000345   0.000000133      398466076   19426960
  11 10  0    -1396.6425687982     0.0000000072   0.000000118   0.000000034      368652650   19671520
  12 11  0    -1396.6425687939     0.0000000043   0.000000040   0.000000011      336998511   19919388

          -----------------
          DENSITY CONVERGED
          -----------------
     TIME TO FORM FOCK OPERATORS=      21.5 SECONDS (       1.8 SEC/ITER)
     FOCK TIME ON FIRST ITERATION=       4.3, LAST ITERATION=       1.0
     TIME TO SOLVE SCF EQUATIONS=       0.4 SECONDS (       0.0 SEC/ITER)

 FINAL RHF ENERGY IS    -1396.6425687939 AFTER  12 ITERATIONS
 ...... END OF RHF CALCULATION ......
 CPU     0: STEP CPU TIME=    34.93 TOTAL CPU TIME=       1285.4 (     21.4 MIN)
 TOTAL WALL CLOCK TIME=       2661.4 SECONDS, CPU UTILIZATION IS    48.30%
 DONE PCM POT.
 CPU     0: STEP CPU TIME=     0.31 TOTAL CPU TIME=       1285.7 (     21.4 MIN)
 TOTAL WALL CLOCK TIME=       2662.4 SECONDS, CPU UTILIZATION IS    48.29%

 Iter=  4 iFrag=      5 EFMO= -1432.625071375, DD= 0.005619347, DE=-0.013933990


 RHF      monomer      6 corr= NONE       , L1=   341, L0=   320 ID=      4


 AO spaces for     6     0     0 n-mer: L1=   341, L0=   320

 DIRECT SCF CALCULATION, SCHWRZ=T   FDIFF=T,  DIRTHR=  0.00E+00 NITDIR=10

                                                                                   NONZERO     BLOCKS
 ITER EX DEM     TOTAL ENERGY        E CHANGE  DENSITY CHANGE     ORB. GRAD      INTEGRALS    SKIPPED
   1  0  0    -1327.4787655814 -1327.4787655814   0.004082209   0.000000000      657935350   10496037
          ---------------START SECOND ORDER SCF---------------
   2  1  0    -1327.4787590092     0.0000065722   0.001209403   0.000361832      559362059   12035852
   3  2  0    -1327.4787542999     0.0000047093   0.000628598   0.000116956      533748442   12292381
   4  3  0    -1327.4787397531     0.0000145468   0.000157035   0.000034838      501537186   12601436
   5  4  0    -1327.4787378316     0.0000019215   0.000027445   0.000012206      470940858   12888245
   6  5  0    -1327.4787388582    -0.0000010266   0.000012154   0.000002774      435735859   13210238
   7  6  0    -1327.4787389399    -0.0000000816   0.000004056   0.000001511      403017906   13508263
   8  7  0    -1327.4787389109     0.0000000289   0.000001126   0.000000354      371069865   13815607
   9  8  0    -1327.4787388817     0.0000000292   0.000000473   0.000000177      338071011   14086031
  10  9  0    -1327.4787388800     0.0000000017   0.000000142   0.000000071      307559481   14346256
  11 10  0    -1327.4787388816    -0.0000000016   0.000000053   0.000000029      274800393   14631688

          -----------------
          DENSITY CONVERGED
          -----------------
     TIME TO FORM FOCK OPERATORS=      16.0 SECONDS (       1.5 SEC/ITER)
     FOCK TIME ON FIRST ITERATION=       2.2, LAST ITERATION=       0.9
     TIME TO SOLVE SCF EQUATIONS=       0.3 SECONDS (       0.0 SEC/ITER)

 FINAL RHF ENERGY IS    -1327.4787388816 AFTER  11 ITERATIONS
 ...... END OF RHF CALCULATION ......
 CPU     0: STEP CPU TIME=    35.75 TOTAL CPU TIME=       1321.5 (     22.0 MIN)
 TOTAL WALL CLOCK TIME=       2741.7 SECONDS, CPU UTILIZATION IS    48.20%
 DONE PCM POT.
 CPU     0: STEP CPU TIME=     0.27 TOTAL CPU TIME=       1321.8 (     22.0 MIN)
 TOTAL WALL CLOCK TIME=       2742.6 SECONDS, CPU UTILIZATION IS    48.19%

 Iter=  4 iFrag=      6 EFMO= -1360.684856843, DD= 0.004960215, DE=-0.013950970


 RHF      monomer      4 corr= NONE       , L1=   341, L0=   320 ID=      5

