‘4A4S_5_fmo_input.inp’ -> ‘/scratch/hazwong/824083/./4A4S_5_fmo_input.inp’
‘rungms’ -> ‘/scratch/hazwong/824083/./rungms’
‘gms-files.csh’ -> ‘/scratch/hazwong/824083/./gms-files.csh’
----- GAMESS execution script 'rungms' -----
This job is running on host gollum087.lsa.umich.edu
under operating system Linux at Sat Dec 7 00:01:51 EST 2019
Available scratch disk space (Kbyte units) at beginning of the job is
Filesystem     1K-blocks  Used Available Use% Mounted on
/dev/sda4      426933580 33424 426900156   1% /scratch
GAMESS temporary binary files will be written to /scratch/hazwong/824083/4A4S_5/usrc
GAMESS supplementary output files will be written to /scratch/hazwong/824083/4A4S_5/src
Copying input file 4A4S_5_fmo_input.inp to your run's scratch directory...
cp 4A4S_5_fmo_input.inp /scratch/hazwong/824083/4A4S_5/usrc/4A4S_5_fmo_input.F05
unset echo
This is a GDDI run, keeping various output files on local disks
setenv OUTPUT /scratch/hazwong/824083/4A4S_5/usrc/4A4S_5_fmo_input.F06
setenv PUNCH /scratch/hazwong/824083/4A4S_5/usrc/4A4S_5_fmo_input.F07
unset echo
 
Assuming a single but multicore node.
 
/export/apps/CentOS7/gamess/src/build//ddikick.x /export/apps/CentOS7/gamess/src/build//gamess.R3.x 4A4S_5_fmo_input -ddi 1 16 gollum087.lsa.umich.edu:cpus=16 -scr /scratch/hazwong/824083/4A4S_5/usrc

 Distributed Data Interface kickoff program.
 Initiating 16 compute processes on 1 nodes to run the following command:
 /export/apps/CentOS7/gamess/src/build//gamess.R3.x 4A4S_5_fmo_input 

          ******************************************************
          *         GAMESS VERSION = 30 SEP 2018 (R3)         *
          *             FROM IOWA STATE UNIVERSITY             *
          * M.W.SCHMIDT, K.K.BALDRIDGE, J.A.BOATZ, S.T.ELBERT, *
          *   M.S.GORDON, J.H.JENSEN, S.KOSEKI, N.MATSUNAGA,   *
          *          K.A.NGUYEN, S.J.SU, T.L.WINDUS,           *
          *       TOGETHER WITH M.DUPUIS, J.A.MONTGOMERY       *
          *         J.COMPUT.CHEM.  14, 1347-1363(1993)        *
          **************** 64 BIT LINUX VERSION ****************

  SINCE 1993, STUDENTS AND POSTDOCS WORKING AT IOWA STATE UNIVERSITY
  AND ALSO IN THEIR VARIOUS JOBS AFTER LEAVING ISU HAVE MADE IMPORTANT
  CONTRIBUTIONS TO THE CODE:
     IVANA ADAMOVIC, CHRISTINE AIKENS, YURI ALEXEEV, POOJA ARORA,
     ANDREY ASADCHEV, ROB BELL, PRADIPTA BANDYOPADHYAY, JONATHAN BENTZ,
     BRETT BODE, KURT BRORSEN, CALEB CARLIN, GALINA CHABAN, WEI CHEN,
     CHEOL HO CHOI, PAUL DAY, ALBERT DEFUSCO, NUWAN DESILVA, TIM DUDLEY,
     DMITRI FEDOROV, ALEX FINDLATER, GRAHAM FLETCHER, MARK FREITAG,
     KURT GLAESEMANN, ANASTASIA GUNINA,
     DAN KEMP, GRANT MERRILL, NORIYUKI MINEZAWA, JONATHAN MULLIN,
     TAKESHI NAGATA, SEAN NEDD, HEATHER NETZLOFF, BOSILJKA NJEGIC, RYAN OLSON,
     MIKE PAK, BUU PHAM,
     SPENCER PRUITT, LUKE ROSKOP, JIM SHOEMAKER, LYUDMILA SLIPCHENKO,
     TONY SMITH, SAROM SOK LEANG, JIE SONG, TETSUYA TAKETSUGU, SIMON WEBB,
     PENG XU, SOOHAENG YOO, FEDERICO ZAHARIEV

  ADDITIONAL CODE HAS BEEN PROVIDED BY COLLABORATORS IN OTHER GROUPS:
     IOWA STATE UNIVERSITY:
          JOE IVANIC, AARON WEST, LAIMUTIS BYTAUTAS, KLAUS RUEDENBERG
     UNIVERSITY OF TOKYO: KIMIHIKO HIRAO, TAKAHITO NAKAJIMA,
          TAKAO TSUNEDA, MUNEAKI KAMIYA, SUSUMU YANAGISAWA,
          KIYOSHI YAGI, MAHITO CHIBA, SEIKEN TOKURA, NAOAKI KAWAKAMI
     UNIVERSITY OF AARHUS: FRANK JENSEN
     UNIVERSITY OF IOWA: VISVALDAS KAIRYS, HUI LI
     NATIONAL INST. OF STANDARDS AND TECHNOLOGY: WALT STEVENS, DAVID GARMER
     UNIVERSITY OF PISA: BENEDETTA MENNUCCI, JACOPO TOMASI
     UNIVERSITY OF MEMPHIS: HENRY KURTZ, PRAKASHAN KORAMBATH
     UNIVERSITY OF ALBERTA: TOBY ZENG, MARIUSZ KLOBUKOWSKI
     UNIVERSITY OF NEW ENGLAND: MARK SPACKMAN
     MIE UNIVERSITY: HIROAKI UMEDA
     NAT. INST. OF ADVANCED INDUSTRIAL SCIENCE AND TECHNOLOGY: KAZUO KITAURA
     MICHIGAN STATE UNIVERSITY:
          KAROL KOWALSKI, MARTA WLOCH, JEFFREY GOUR, JESSE LUTZ,
          WEI LI, JUN SHEN, J. EMILIANO DEUSTUA, PIOTR PIECUCH
     UNIVERSITY OF MINNESOTA:
          YINAN SHU
     UNIVERSITY OF SILESIA: MONIKA MUSIAL, STANISLAW KUCHARSKI
     FACULTES UNIVERSITAIRES NOTRE-DAME DE LA PAIX:
          OLIVIER QUINET, BENOIT CHAMPAGNE
     UNIVERSITY OF CALIFORNIA - SANTA BARBARA: BERNARD KIRTMAN
     INSTITUTE FOR MOLECULAR SCIENCE:
          KAZUYA ISHIMURA, MICHIO KATOUDA, AND SHIGERU NAGASE
     UNIVERSITY OF NOTRE DAME: ANNA POMOGAEVA, DAN CHIPMAN
     KYUSHU UNIVERSITY:
          HARUYUKI NAKANO,
          FENG LONG GU, JACEK KORCHOWIEC, MARCIN MAKOWSKI, AND YURIKO AOKI,
          HIROTOSHI MORI AND EISAKU MIYOSHI
     PENNSYLVANIA STATE UNIVERSITY:
          TZVETELIN IORDANOV, CHET SWALINA, JONATHAN SKONE,
          SHARON HAMMES-SCHIFFER
     WASEDA UNIVERSITY:
          MASATO KOBAYASHI, TOMOKO AKAMA, TSUGUKI TOUMA,
          TAKESHI YOSHIKAWA, YASUHIRO IKABATA, JUNJI SEINO,
          YUYA NAKAJIMA, HIROMI NAKAI
     NANJING UNIVERSITY: SHUHUA LI
     UNIVERSITY OF NEBRASKA:
          PEIFENG SU, DEJUN SI, NANDUN THELLAMUREGE, YALI WANG, HUI LI
     UNIVERSITY OF ZURICH: ROBERTO PEVERATI, KIM BALDRIDGE
     N. COPERNICUS UNIVERSITY AND JACKSON STATE UNIVERSITY:
          MARIA BARYSZ
     UNIVERSITY OF COPENHAGEN: Jimmy Kromann, CASPER STEINMANN
     TOKYO INSTITUTE OF TECHNOLOGY: HIROYA NAKATA
     NAGOYA UNIVERSITY: YOSHIO NISHIMOTO, STEPHAN IRLE
     MOSCOW STATE UNIVERSITY: VLADIMIR MIRONOV


 PARALLEL VERSION RUNNING ON       16 PROCESSORS IN        1 NODES.

 EXECUTION OF GAMESS BEGUN Sat Dec  7 00:01:51 2019

            ECHO OF THE FIRST FEW INPUT CARDS -
 INPUT CARD>!*** FMO 5.3 (Gamess) INPUT generated by Facio 22.1.1.32 ***                    
 INPUT CARD> $CONTRL RUNTYP=ENERGY NPRINT=-5 ISPHER=1 MAXIT=200 $END                        
 INPUT CARD> $SYSTEM MWORDS=63 MEMDDI=63 $END                                               
 INPUT CARD> $GDDI NGROUP=1 $END                                                            
 INPUT CARD> $SCF DIRSCF=.TRUE. NPUNCH=0 $END                                               
 INPUT CARD>!*** NumCPU : 2  MemPerNode : 512MB                                             
 INPUT CARD> $PCM SOLVNT=WATER IEF=-10 ICOMP=2 ICAV=1 IDISP=1 IFMO=-1 $END                  
 INPUT CARD> $PCMCAV RADII=SUAHF $END                                                       
 INPUT CARD> $TESCAV NTSALL=60 $END                                                         
 INPUT CARD> $FMOPRP                                                                        
 INPUT CARD>    NAODIR=200                                                                  
 INPUT CARD>    NGRFMO(1)=1, 1, 0, 0, 0,   0, 0, 0, 0, 0                                    
 INPUT CARD>    IPIEDA=1                                                                    
 INPUT CARD>    NPRINT=9                                                                    
 INPUT CARD> $END                                                                           
 INPUT CARD> $FMO                                                                           
 INPUT CARD>      SCFTYP(1)=RHF                                                             
 INPUT CARD>      MODGRD=10                                                                 
 INPUT CARD>      MODMUL=0                                                                  
 INPUT CARD>      MAXCAO=5                                                                  
 INPUT CARD>      MAXBND=10                                                                 
 INPUT CARD>      NLAYER=1                                                                  
 INPUT CARD>      MPLEVL(1)=2                                                               
 INPUT CARD>      NFRAG=8                                                                   
 INPUT CARD>      ICHARG(1)=-1, -1, -1, -1, -1, -1, -1, 0                                   
 INPUT CARD>      FRGNAM(1)=F1, F2, F3, F4, F5, F6, F7, F8                                  
 INPUT CARD>      indat(1)=0                                                                
 INPUT CARD>               1   -36   0                                                      
 INPUT CARD>               37   -67   0                                                     
 INPUT CARD>               68   -97   0                                                     
 INPUT CARD>               98   -128   0                                                    
 INPUT CARD>               129   -161   0                                                   
 INPUT CARD>               162   -192   0                                                   
 INPUT CARD>               193   -226   0                                                   
 INPUT CARD>               227   -254   0                                                   
 INPUT CARD> $END                                                                           
 INPUT CARD>                                                                                
 INPUT CARD> $FMOBND                                                                        
 INPUT CARD>   -37   36       6-31G*    MINI                                                
 INPUT CARD>   -68   67       6-31G*    MINI                                                
 INPUT CARD>   -98   97       6-31G*    MINI                                                
 INPUT CARD>   -129   128       6-31G*    MINI                                              
 INPUT CARD>   -162   161       6-31G*    MINI                                              
 INPUT CARD>   -193   192       6-31G*    MINI                                              
 INPUT CARD>   -227   226       6-31G*    MINI                                              
 INPUT CARD> $END                                                                           
 INPUT CARD> $FMOHYB                                                                        
 INPUT CARD> 6-31G*      15   5                                                             
 INPUT CARD>   1 0  -0.065034   0.288264   0.000000   0.000000   0.604412                   
 INPUT CARD>         0.290129   0.000000   0.000000   0.319045  -0.017106                   


 -------------------------------------------------------------
 GROUP DDI, PROGRAMMED BY: RYAN M. OLSON AND DMITRI G. FEDOROV
        FEDOROV ET AL., J. COMPUT. CHEM., 25 (2004) 872.
 -------------------------------------------------------------

 -------------------------------------------------------
 GDDI: INITIALIZATION COMPLETED FOR GROUP     1 OF     1
 WITH    16 PROCESSES BALTYP=DLB   global rank=        0
 -------------------------------------------------------

   63000000 WORDS OF MEMORY AVAILABLE


     RUN TITLE
     ---------
  FMO calculation                                                                

 THE POINT GROUP OF THE MOLECULE IS C1      
 THE ORDER OF THE PRINCIPAL AXIS IS     0

 ATOM   ATOMIC CHARGE
 H.1-1       1.0
 O.1-1       8.0
 C.1-1       6.0
 N.1-1       7.0
 P.1-1      15.0

     ATOMIC BASIS SET LIBRARY
     ----------------
 THE CONTRACTED PRIMITIVE FUNCTIONS HAVE BEEN UNNORMALIZED
 THE CONTRACTED BASIS FUNCTIONS ARE NOW NORMALIZED TO UNITY

  SHELL TYPE  PRIMITIVE        EXPONENT          CONTRACTION COEFFICIENT(S)

 H.1-1     

      1   S       1            18.7311370    0.033494604338
      1   S       2             2.8253944    0.234726953484
      1   S       3             0.6401217    0.813757326146

      2   S       4             0.1612778    1.000000000000

 O.1-1     

      3   S       5          5484.6716600    0.001831074430
      3   S       6           825.2349460    0.013950172200
      3   S       7           188.0469580    0.068445078098
      3   S       8            52.9645000    0.232714335992
      3   S       9            16.8975704    0.470192897984
      3   S      10             5.7996353    0.358520852987

      4   L      11            15.5396162   -0.110777549525    0.070874268231
      4   L      12             3.5999336   -0.148026262701    0.339752839147
      4   L      13             1.0137618    1.130767015354    0.727158577316

      5   L      14             0.2700058    1.000000000000    1.000000000000

      6   D      15             0.8000000    1.000000000000

 C.1-1     

      7   S      16          3047.5248800    0.001834737132
      7   S      17           457.3695180    0.014037322813
      7   S      18           103.9486850    0.068842622264
      7   S      19            29.2101553    0.232184443216
      7   S      20             9.2866630    0.467941348435
      7   S      21             3.1639270    0.362311985337

      8   L      22             7.8682723   -0.119332419775    0.068999066591
      8   L      23             1.8812885   -0.160854151696    0.316423960957
      8   L      24             0.5442493    1.143456437840    0.744308290898

      9   L      25             0.1687145    1.000000000000    1.000000000000

     10   D      26             0.8000000    1.000000000000

 N.1-1     

     11   S      27          4173.5114600    0.001834772160
     11   S      28           627.4579110    0.013994627002
     11   S      29           142.9020930    0.068586551812
     11   S      30            40.2343293    0.232240873040
     11   S      31            12.8202129    0.469069948082
     11   S      32             4.3904370    0.360455199063

     12   L      33            11.6263619   -0.114961181702    0.067579743878
     12   L      34             2.7162798   -0.169117478561    0.323907295893
     12   L      35             0.7722184    1.145851947027    0.740895139755

     13   L      36             0.2120315    1.000000000000    1.000000000000

     14   D      37             0.8000000    1.000000000000

 P.1-1     

     15   S      38         19413.3000000    0.001851598923
     15   S      39          2909.4200000    0.014206191735
     15   S      40           661.3640000    0.069999459277
     15   S      41           185.7590000    0.240078860331
     15   S      42            59.1943000    0.484761717984
     15   S      43            20.0310000    0.335199804993

     16   L      44           339.4780000   -0.002782170105    0.004564616191
     16   L      45            81.0101000   -0.036049901354    0.033693571881
     16   L      46            25.8780000   -0.116631004382    0.139754883368
     16   L      47             9.4522100    0.096832803638    0.339361716786
     16   L      48             3.6656600    0.614418023082    0.450920623685
     16   L      49             1.4674600    0.403798015170    0.238585800889

     17   L      50             2.1562300   -0.252924113863   -0.017765312733
     17   L      51             0.7489970    0.032851844678    0.274058196433
     17   L      52             0.2831450    1.081254761783    0.785421562957

     18   L      53             0.0998317    1.000000000000    1.000000000000

     19   D      54             0.5500000    1.000000000000

 TOTAL NUMBER OF BASIS SET SHELLS             =   19
 NUMBER OF CARTESIAN GAUSSIAN BASIS FUNCTIONS =   66

     $CONTRL OPTIONS
     ---------------
 SCFTYP=RHF          RUNTYP=ENERGY       EXETYP=RUN     
 MPLEVL=       0     CITYP =NONE         CCTYP =NONE         VBTYP =NONE    
 DFTTYP=NONE         TDDFT =NONE    
 MULT  =       1     ICHARG=       0     NZVAR =       0     COORD =UNIQUE  
 PP    =NONE         RELWFN=NONE         LOCAL =NONE         NUMGRD=       F
 ISPHER=       1     NOSYM =       0     MAXIT =     200     UNITS =ANGS    
 PLTORB=       F     MOLPLT=       F     AIMPAC=       F     FRIEND=        
 NPRINT=      -5     IREST =       0     GEOM  =INPUT   
 NORMF =       0     NORMP =       0     ITOL  =      24     ICUT  =      12
 INTTYP=BEST         GRDTYP=BEST         QMTTOL= 1.0E-06

     $SYSTEM OPTIONS
     ---------------
  REPLICATED MEMORY=    63000000 WORDS (ON EVERY NODE).
 DISTRIBUTED MEMDDI=          63 MILLION WORDS IN AGGREGATE,
 MEMDDI DISTRIBUTED OVER  16 PROCESSORS IS     3937500 WORDS/PROCESSOR.
 TOTAL MEMORY REQUESTED ON EACH PROCESSOR=    66937500 WORDS.
 TIMLIM=      525600.00 MINUTES, OR     365.0 DAYS.
 PARALL= T  BALTYP=  DLB     KDIAG=    0  COREFL= F
 MXSEQ2=     300 MXSEQ3=     150  mem10=         0

 ** LOOKING UP INTERNALLY STORED DATA FOR SOLVENT=WATER    **
 OPTICAL AND PHYSICAL CONSTANTS:
 EPS= 78.390; EPSINF=  1.776; RSOLV=  1.385 A; VMOL=  18.070 ML/MOL;
 TCE= .25700E-03 1/K; STEN= 71.810 DYN/CM;  DSTEN=  0.6500; CMF=  1.2770


     -----------------------------------
     INPUT FOR PCM SOLVATION CALCULATION 
     -----------------------------------
     IEF   =     -10
     ICOMP =       2     IFIELD=       0     ICAV  =       1
     IDISP =       1     IREP  =       0     IDP   =       0

     SOLVNT=WATER        EPS   = 78.3900     EPSINF=  1.7760
     VMOL  = 18.0700     TCE   =  0.00025700 STEN  = 71.8100
     DSTEN =  0.6500     CMF   =  1.2770     RSOLV =  1.3850

     NESFP =       0
     OMEGA = 40.0000     RET   =100.0000     FRO   =  0.7000

     TABS  =298.0000     IPRINT=       0

     --------------------------------
     INPUT FOR ITERATIVE C-PCM METHOD 
     --------------------------------
     IPCMIT  =         1     MXDIIS  =        50
     MXITR1  =       200     MXITR2  =       200
     THRES   = 0.100E-09     IMUL    =         3
     RCUT(1) =   20.0000     RCUT(2) =   50.0000

     IDIRCT  =         1
     IMGABI  =         0     RABI    =    4.0000
     IMGASC  =         0     RASC    =   20.0000
     THRSLS  = 0.500E-03     DENSLS  =    0.0100
     IEFPOL  =         1     REFPOL  =    0.0000

     INPUT FOR ISOTROPIC DIELECTRICS
     -------------------------------
     EPS=    78.39

          ----------------
          PROPERTIES INPUT
          ----------------

     MOMENTS            FIELD           POTENTIAL          DENSITY
 IEMOM =       1   IEFLD =       0   IEPOT =       0   IEDEN =       0
 WHERE =COMASS     WHERE =NUCLEI     WHERE =NUCLEI     WHERE =NUCLEI  
 OUTPUT=BOTH       OUTPUT=BOTH       OUTPUT=NONE       OUTPUT=BOTH    
 IEMINT=       0   IEFINT=       0                     IEDINT=       0
                                                       MORB  =       0
          EXTRAPOLATION IN EFFECT
          SOSCF IN EFFECT
 ORBITAL PRINTING OPTION: NPREO=     1 32767     2     1

     -------------------------------
     INTEGRAL TRANSFORMATION OPTIONS
     -------------------------------
     NWORD  =            0
     CUTOFF = 1.0E-10     MPTRAN =       0
     DIRTRF =       T     AOINTS =DUP     

          ----------------------
          INTEGRAL INPUT OPTIONS
          ----------------------
 NOPK  =       1 NORDER=       0 SCHWRZ=       T

 ..... DONE SETTING UP THE RUN .....
 CPU     0: STEP CPU TIME=     0.08 TOTAL CPU TIME=          0.1 (      0.0 MIN)
 TOTAL WALL CLOCK TIME=          0.2 SECONDS, CPU UTILIZATION IS    50.00%
 CPU     0: STEP CPU TIME=     0.00 TOTAL CPU TIME=          0.1 (      0.0 MIN)
 TOTAL WALL CLOCK TIME=          0.2 SECONDS, CPU UTILIZATION IS    50.00%

                    ----------------------
                    AO INTEGRAL TECHNOLOGY
                    ----------------------
     S,P,L SHELL ROTATED AXIS INTEGRALS, REPROGRAMMED BY
        KAZUYA ISHIMURA (IMS) AND JOSE SIERRA (SYNSTAR).
     S,P,D,L SHELL ROTATED AXIS INTEGRALS PROGRAMMED BY
        KAZUYA ISHIMURA (INSTITUTE FOR MOLECULAR SCIENCE).
     S,P,D,F,G SHELL TO TOTAL QUARTET ANGULAR MOMENTUM SUM 5,
        ERIC PROGRAM BY GRAHAM FLETCHER (ELORET AND NASA ADVANCED
        SUPERCOMPUTING DIVISION, AMES RESEARCH CENTER).
     S,P,D,F,G,L SHELL GENERAL RYS QUADRATURE PROGRAMMED BY
        MICHEL DUPUIS (PACIFIC NORTHWEST NATIONAL LABORATORY).
 Setting modorb=1 flag...
 Setting modorb=1 flag...

          -----------------------
          MP2 CONTROL INFORMATION
          -----------------------
          NACORE =        8  NBCORE =        8
          LMOMP2 =        F  AOINTS = DUP     
          METHOD =        2  NWORD  =               0
          MP2PRP =        F  OSPT   = NONE    
          CUTOFF = 1.00E-12  CPHFBS = BASISAO 
          CODE   = IMS     

          NUMBER OF CORE -A-  ORBITALS =     8
          NUMBER OF CORE -B-  ORBITALS =     8
          NUMBER OF OCC. -A-  ORBITALS =    18
          NUMBER OF OCC. -B-  ORBITALS =    18
          NUMBER OF MOLECULAR ORBITALS =    66
          NUMBER OF   BASIS  FUNCTIONS =    66

 CPU     0: STEP CPU TIME=     0.03 TOTAL CPU TIME=          0.1 (      0.0 MIN)
 TOTAL WALL CLOCK TIME=          0.2 SECONDS, CPU UTILIZATION IS    55.00%
 CPU     0: STEP CPU TIME=     0.00 TOTAL CPU TIME=          0.1 (      0.0 MIN)
 TOTAL WALL CLOCK TIME=          0.2 SECONDS, CPU UTILIZATION IS    55.00%

     INPUT FOR CAVITY DEFINITION 
     ---------------------------
   ATOM               COORDINATES                RADIUS       EPS
      1     -6.0200     -7.6660      6.7790      0.0100     78.3900
      2     -6.1400     -6.7830      7.1740      1.5900     78.3900
      3     -5.7750     -6.8890      8.5580      1.7700     78.3900
      4     -4.7170     -7.2310      8.6240      0.0100     78.3900
      5     -6.4160     -7.6520      9.0550      0.0100     78.3900
      6     -5.9110     -5.5670      9.3210      1.7700     78.3900
      7     -5.6320     -5.7010     10.3890      0.0100     78.3900
      8     -5.0180     -4.5580      8.7580      1.5900     78.3900
      9     -5.6740     -3.3000      8.7670      1.7700     78.3900
     10     -5.0030     -2.5920      9.3050      0.0100     78.3900
     11     -5.8920     -2.7890      7.4030      1.6800     78.3900
     12     -6.1470     -1.4880      7.0580      1.7700     78.3900
     13     -6.6880      1.8090      7.9610      1.6800     78.3900
     14     -6.6390      1.7740      8.9540      0.0100     78.3900
     15     -6.8730      2.6870      7.5100      0.0100     78.3900
     16     -6.2680     -0.4530      7.9100      1.6800     78.3900
     17     -6.4990      0.6960      7.2810      1.7700     78.3900
     18     -6.5510      0.8070      5.9170      1.6800     78.3900
     19     -6.7310      1.7160      5.5220      0.0100     78.3900
     20     -6.4070     -0.2350      5.0110      1.7700     78.3900
     21     -6.4680     -0.0410      3.7930      1.5900     78.3900
     22     -6.2150     -1.4770      5.6750      1.7700     78.3900
     23     -6.0320     -2.7550      5.1580      1.6800     78.3900
     24     -5.8510     -3.5030      6.2240      1.7700     78.3900
     25     -5.6740     -4.5810      6.2260      0.0100     78.3900
     26     -6.9570     -3.4660      9.5500      1.7700     78.3900
     27     -7.7550     -2.7810      9.2030      0.0100     78.3900
     28     -6.7010     -3.2450     10.9250      1.5900     78.3900
     29     -7.5330     -3.3860     11.3960      0.0100     78.3900
     30     -7.3020     -4.9260      9.2740      1.7700     78.3900
     31     -7.6680     -5.0480      8.2290      0.0100     78.3900
     32     -8.1600     -5.5510     10.2570      1.5900     78.3900
     33     -9.7140     -5.5800     10.0050      2.1000     78.3900
     34     -9.9640     -6.0260      8.6190      1.5900     78.3900
     35    -10.3630     -6.3650     11.0820      1.5900     78.3900
     36    -10.1390     -4.0680     10.1300      1.5900     78.3900
     37    -10.1110     -3.4010     11.4160      1.7700     78.3900
     38     -9.1270     -3.5160     11.9230      0.0100     78.3900
     39    -10.8730     -3.8340     12.0940      0.0100     78.3900
     40    -10.4100     -1.9020     11.3100      1.7700     78.3900
     41    -10.3570     -1.4160     12.3090      0.0100     78.3900
     42     -9.4220     -1.2690     10.4590      1.5900     78.3900
     43    -10.0430     -0.2420      9.7060      1.7700     78.3900
     44     -9.4950      0.6910      9.9810      0.0100     78.3900
     45     -9.9330     -0.4590      8.2400      1.6800     78.3900
     46     -9.6680     -1.7140      7.7400      1.7700     78.3900
     47     -9.5810     -2.5120      8.4770      0.0100     78.3900
     48     -9.5110     -1.9240      6.4280      1.7700     78.3900
     49     -9.2640     -2.9000      6.0160      0.0100     78.3900
     50    -10.1140      0.6070      7.3650      1.7700     78.3900
     51    -10.3850      1.7260      7.8230      1.5900     78.3900
     52     -9.9750      0.4110      6.0360      1.6800     78.3900
     53     -9.6650     -0.8060      5.5610      1.7700     78.3900
     54     -9.4950     -0.9610      4.2540      1.6800     78.3900
     55     -9.6850     -0.1860      3.6450      0.0100     78.3900
     56     -9.2710     -1.8440      3.8420      0.0100     78.3900
     57    -11.4780     -0.1270     10.1810      1.7700     78.3900
     58    -12.1700      0.1600      9.3670      0.0100     78.3900
     59    -11.5680      0.8130     11.2360      1.5900     78.3900
     60    -12.4630      0.7470     11.6040      0.0100     78.3900
     61    -11.7550     -1.5420     10.6710      1.7700     78.3900
     62    -11.8950     -2.2320      9.8070      0.0100     78.3900
     63    -12.8060     -1.6460     11.6570      1.5900     78.3900
     64    -14.2890     -1.8410     11.1660      2.1000     78.3900
     65    -14.3220     -2.9650     10.2070      1.5900     78.3900
     66    -15.1820     -1.9190     12.3440      1.5900     78.3900
     67    -14.6210     -0.5070     10.4120      1.5900     78.3900
     68    -15.7120     -0.4420      9.4570      1.7700     78.3900
     69    -16.6610     -0.2240      9.9900      0.0100     78.3900
     70    -15.8530     -1.4100      8.9210      0.0100     78.3900
     71    -15.4740      0.6310      8.3730      1.7700     78.3900
     72    -15.7070      1.6430      8.7570      0.0100     78.3900
     73    -14.0640      0.6280      7.9900      1.5900     78.3900
     74    -13.9310      0.6710      6.5920      1.7700     78.3900
     75    -13.1820      1.4710      6.3880      0.0100     78.3900
     76    -13.4300     -0.6190      6.0380      1.6800     78.3900
     77    -13.1960     -1.7220      6.8370      1.7700     78.3900
     78    -13.4450     -1.6080      7.8960      0.0100     78.3900
     79    -13.0620     -0.6210      4.7130      1.7700     78.3900
     80    -13.1130      0.3870      4.0180      1.5900     78.3900
     81    -12.5710     -1.8150      4.2570      1.6800     78.3900
     82    -12.5620     -1.9250      3.2530      0.0100     78.3900
     83    -12.3400     -2.9620      4.9740      1.7700     78.3900
     84    -11.8500     -3.9480      4.4260      1.5900     78.3900
     85    -12.6570     -2.8570      6.3650      1.7700     78.3900
     86    -12.4450     -3.7060      7.0070      0.0100     78.3900
     87    -15.2860      1.0800      6.0520      1.7700     78.3900
     88    -15.4750      0.7160      5.0170      0.0100     78.3900
     89    -15.4010      2.4920      6.1240      1.5900     78.3900
     90    -14.6170      2.8920      5.7300      0.0100     78.3900
     91    -16.2180      0.3990      7.0460      1.7700     78.3900
     92    -16.2110     -0.6980      6.8840      0.0100     78.3900
     93    -17.5630      0.9150      7.1060      1.5900     78.3900
     94    -18.5540      0.8470      5.8790      2.1000     78.3900
     95    -19.8290      0.3120      6.3960      1.5900     78.3900
     96    -18.6480      2.1640      5.2130      1.5900     78.3900
     97    -17.9380     -0.1920      4.8690      1.5900     78.3900
     98    -17.9730     -1.6220      5.0750      1.7700     78.3900
     99    -18.7340     -1.9280      5.8320      0.0100     78.3900
    100    -16.9780     -1.9620      5.4360      0.0100     78.3900
    101    -18.2580     -2.3760      3.7700      1.7700     78.3900
    102    -18.1100     -3.4710      3.9030      0.0100     78.3900
    103    -19.6520     -2.1900      3.4160      1.5900     78.3900
    104    -19.7680     -2.0760      2.0050      1.7700     78.3900
    105    -20.4490     -2.9110      1.7080      0.0100     78.3900
    106    -20.3680     -0.7840      1.5880      1.6800     78.3900
    107    -20.3440      0.3010      2.4380      1.7700     78.3900
    108    -19.8530      0.1490      3.4000      0.0100     78.3900
    109    -20.9190      1.4610      2.1020      1.7700     78.3900
    110    -20.9400      2.3180      2.7750      0.0100     78.3900
    111    -20.9400     -0.6630      0.3240      1.7700     78.3900
    112    -20.9290     -1.6420     -0.4400      1.5900     78.3900
    113    -21.5060      0.5100     -0.0390      1.6800     78.3900
    114    -21.5290      1.5460      0.8180      1.7700     78.3900
    115    -22.1570      2.6600      0.4550      1.6800     78.3900
    116    -22.1980      3.4680      1.0500      0.0100     78.3900
    117    -22.5690      2.7170     -0.4530      0.0100     78.3900
    118    -18.4000     -2.3220      1.3910      1.7700     78.3900
    119    -18.2170     -1.6960      0.4920      0.0100     78.3900
    120    -18.2470     -3.6910      1.0550      1.5900     78.3900
    121    -17.3090     -3.8390      0.8560      0.0100     78.3900
    122    -17.4710     -1.9160      2.5270      1.7700     78.3900
    123    -17.3970     -0.8050      2.5800      0.0100     78.3900
    124    -16.1820     -2.5620      2.4980      1.5900     78.3900
    125    -14.9750     -1.8880      1.7470      2.1000     78.3900
    126    -14.9220     -0.4570      2.0840      1.5900     78.3900
    127    -13.7780     -2.7180      2.0000      1.5900     78.3900
    128    -15.2860     -2.0190      0.2110      1.5900     78.3900
    129    -14.5570     -1.1750     -0.7340      1.7700     78.3900
    130    -13.7270     -1.7520     -1.2020      0.0100     78.3900
    131    -14.0830     -0.2900     -0.2440      0.0100     78.3900
    132    -15.4450     -0.6130     -1.8600      1.7700     78.3900
    133    -15.4680     -1.3020     -2.7280      0.0100     78.3900
    134    -16.8270     -0.4960     -1.3920      1.5900     78.3900
    135    -17.3860      0.7280     -1.8090      1.7700     78.3900
    136    -18.3460      0.4630     -2.3140      0.0100     78.3900
    137    -17.6620      1.6050     -0.6700      1.6800     78.3900
    138    -18.4710      3.2260      0.5680      1.7700     78.3900
    139    -17.7040      2.4390      1.4120      1.6800     78.3900
    140    -17.2410      1.4920      0.6370      1.7700     78.3900
    141    -16.5860      0.6800      0.9610      0.0100     78.3900
    142    -19.9190      4.9020     -0.2700      1.6800     78.3900
    143    -19.7730      4.3180     -1.4660      1.7700     78.3900
    144    -20.3220      4.7880     -2.2890      0.0100     78.3900
    145    -19.0770      3.2250     -1.7940      1.6800     78.3900
    146    -18.4520      2.7220     -0.7180      1.7700     78.3900
    147    -19.2580      4.3730      0.7920      1.7700     78.3900
    148    -19.3930      4.9370      2.0020      1.6800     78.3900
    149    -18.8990      4.5830      2.7970      0.0100     78.3900
    150    -19.9380      5.7690      2.1120      0.0100     78.3900
    151    -16.4390      1.3520     -2.8070      1.7700     78.3900
    152    -16.4510      2.4630     -2.7820      0.0100     78.3900
    153    -16.7590      0.8960     -4.1090      1.5900     78.3900
    154    -15.9950      1.0790     -4.6810      0.0100     78.3900
    155    -15.0940      0.8150     -2.3400      1.7700     78.3900
    156    -14.7690      1.3890     -1.4390      0.0100     78.3900
    157    -14.1050      0.7880     -3.3970      1.5900     78.3900
    158    -12.6970      1.4580     -3.1940      2.1000     78.3900
    159    -12.0860      0.8680     -1.9880      1.5900     78.3900
    160    -11.9290      1.3900     -4.4580      1.5900     78.3900
    161    -13.0130      2.9680     -2.9140      1.5900     78.3900
    162    -13.5750      3.8460     -3.9120      1.7700     78.3900
    163    -14.4450      3.3690     -4.4220      0.0100     78.3900
    164    -12.8170      4.0940     -4.6860      0.0100     78.3900
    165    -14.0530      5.1660     -3.2920      1.7700     78.3900
    166    -14.4580      5.8400     -4.0790      0.0100     78.3900
    167    -15.1460      4.8770     -2.3670      1.5900     78.3900
    168    -15.0610      5.7430     -1.2480      1.7700     78.3900
    169    -16.0330      6.2890     -1.2170      0.0100     78.3900
    170    -14.8670      4.9990      0.0270      1.6800     78.3900
    171    -14.0760      3.8770      0.0300      1.7700     78.3900
    172    -13.6320      3.6040     -0.9200      0.0100     78.3900
    173    -13.8900      3.1490      1.1340      1.7700     78.3900
    174    -13.2950      2.2370      1.1420      0.0100     78.3900
    175    -15.4150      5.4570      1.2250      1.7700     78.3900
    176    -16.0700      6.5110      1.2240      1.5900     78.3900
    177    -15.2320      4.7390      2.3590      1.6800     78.3900
    178    -14.5210      3.5970      2.3230      1.7700     78.3900
    179    -14.4150      2.8740      3.4260      1.6800     78.3900
    180    -14.0720      1.9300      3.3480      0.0100     78.3900
    181    -15.1180      3.0470      4.1120      0.0100     78.3900
    182    -13.9510      6.7380     -1.5220      1.7700     78.3900
    183    -13.4380      7.0070     -0.5940      0.0100     78.3900
    184    -14.4550      7.9110     -2.1330      1.5900     78.3900
    185    -13.6970      8.4170     -2.4670      0.0100     78.3900
    186    -13.0280      5.9590     -2.4510      1.7700     78.3900
    187    -12.4490      5.2060     -1.8700      0.0100     78.3900
    188    -12.1880      6.7960     -3.2840      1.5900     78.3900
    189    -10.6320      6.9130     -3.0090      2.1000     78.3900
    190    -10.0290      5.5690     -3.1190      1.5900     78.3900
    191    -10.0690      7.9560     -3.8960      1.5900     78.3900
    192    -10.5140      7.3880     -1.5180      1.5900     78.3900
    193    -10.9400      8.6960     -1.0910      1.7700     78.3900
    194    -11.9270      8.9720     -1.5300      0.0100     78.3900
    195    -10.1970      9.4610     -1.4120      0.0100     78.3900
    196    -11.0750      8.7530      0.4420      1.7700     78.3900
    197    -11.4920      9.7310      0.7640      0.0100     78.3900
    198    -11.9830      7.7190      0.9060      1.5900     78.3900
    199    -11.5070      7.1420      2.0990      1.7700     78.3900
    200    -12.3430      7.1940      2.8340      0.0100     78.3900
    201    -11.1250      5.7320      1.9020      1.6800     78.3900
    202    -10.9580      4.8040      2.8940      1.7700     78.3900
    203    -11.0080      3.9550      6.2510      1.6800     78.3900
    204    -11.2380      4.8160      6.6980      0.0100     78.3900
    205    -10.7940      3.1520      6.8160      0.0100     78.3900
    206    -11.1030      5.0260      4.2110      1.6800     78.3900
    207    -10.9050      3.9270      4.9350      1.7700     78.3900
    208    -10.5850      2.7150      4.3830      1.6800     78.3900
    209    -10.4500      1.9250      4.9960      0.0100     78.3900
    210    -10.4310      2.4570      3.0280      1.7700     78.3900
    211    -10.1350      1.3350      2.6110      1.5900     78.3900
    212    -10.6300      3.6270      2.2500      1.7700     78.3900
    213    -10.5740      3.8100      0.8750      1.6800     78.3900
    214    -10.8800      5.0740      0.7140      1.7700     78.3900
    215    -10.9620      5.5780     -0.2470      0.0100     78.3900
    216    -10.3560      7.9990      2.5640      1.7700     78.3900
    217     -9.6100      7.4230      3.1430      0.0100     78.3900
    218    -10.8440      9.0660      3.3510      1.5900     78.3900
    219    -10.0870      9.6220      3.5660      0.0100     78.3900
    220     -9.7900      8.5000      1.2370      1.7700     78.3900
    221     -9.2630      7.6730      0.7070      0.0100     78.3900
    222     -9.0150      9.7220      1.3260      1.5900     78.3900
    223     -7.4510      9.5930      1.4360      2.1000     78.3900
    224     -6.9950      8.5410      0.5020      1.5900     78.3900
    225     -6.8450     10.9350      1.2870      1.5900     78.3900
    226     -7.2350      9.0810      2.9050      1.5900     78.3900
    227     -7.5880      9.9050      4.0370      1.7700     78.3900
    228     -8.6420     10.2630      3.9770      0.0100     78.3900
    229     -6.9300     10.8080      4.0660      0.0100     78.3900
    230     -7.4130      9.1280      5.3500      1.7700     78.3900
    231     -7.6450      9.7720      6.2280      0.0100     78.3900
    232     -8.3290      7.9920      5.3950      1.5900     78.3900
    233     -7.6640      6.8830      5.9980      1.7700     78.3900
    234     -8.3040      6.5840      6.8630      0.0100     78.3900
    235     -7.5190      5.7200      5.0770      1.6800     78.3900
    236     -7.5710      5.9040      3.7150      1.7700     78.3900
    237     -7.7400      6.9230      3.3770      0.0100     78.3900
    238     -7.4510      4.8800      2.8620      1.7700     78.3900
    239     -7.5320      5.0050      1.7840      0.0100     78.3900
    240     -7.2660      4.4500      5.5890      1.7700     78.3900
    241     -7.1590      4.3000      6.8170      1.5900     78.3900
    242     -7.1390      3.4030      4.7440      1.6800     78.3900
    243     -7.2270      3.5880      3.4150      1.7700     78.3900
    244     -7.1100      2.5370      2.6100      1.6800     78.3900
    245     -6.9720      1.6240      3.0020      0.0100     78.3900
    246     -7.2050      2.6170      1.6200      0.0100     78.3900
    247     -6.3240      7.3770      6.5210      1.7700     78.3900
    248     -5.5390      6.5920      6.4680      0.0100     78.3900
    249     -6.4580      7.8390      7.8560      1.5900     78.3900
    250     -5.6480      8.3210      8.0960      0.0100     78.3900
    251     -6.0240      8.5060      5.5430      1.7700     78.3900
    252     -5.6820      8.0840      4.5710      0.0100     78.3900
    253     -5.0880      9.4830      6.0320      1.5900     78.3900
    254     -4.1960      9.0890      6.0920      0.0100     78.3900

     ----------------------------
     INPUT FOR TESSERA DEFINITION
     ----------------------------
     NTSALL  =        60     MTHALL  =         4
     MTHAUT  =         0     AUTFRE  =    2.0000
     NTSFRZ  =        60     KEEPSM  =         0
     AREAKP  =   10.0000     BONDRY  =    1.0000
     AREATL  =    0.0100

     SPHERE     INITS       METHOD
          1        60       FIXPVA
          2        60       FIXPVA
          3        60       FIXPVA
          4        60       FIXPVA
          5        60       FIXPVA
          6        60       FIXPVA
          7        60       FIXPVA
          8        60       FIXPVA
          9        60       FIXPVA
         10        60       FIXPVA
         11        60       FIXPVA
         12        60       FIXPVA
         13        60       FIXPVA
         14        60       FIXPVA
         15        60       FIXPVA
         16        60       FIXPVA
         17        60       FIXPVA
         18        60       FIXPVA
         19        60       FIXPVA
         20        60       FIXPVA
         21        60       FIXPVA
         22        60       FIXPVA
         23        60       FIXPVA
         24        60       FIXPVA
         25        60       FIXPVA
         26        60       FIXPVA
         27        60       FIXPVA
         28        60       FIXPVA
         29        60       FIXPVA
         30        60       FIXPVA
         31        60       FIXPVA
         32        60       FIXPVA
         33        60       FIXPVA
         34        60       FIXPVA
         35        60       FIXPVA
         36        60       FIXPVA
         37        60       FIXPVA
         38        60       FIXPVA
         39        60       FIXPVA
         40        60       FIXPVA
         41        60       FIXPVA
         42        60       FIXPVA
         43        60       FIXPVA
         44        60       FIXPVA
         45        60       FIXPVA
         46        60       FIXPVA
         47        60       FIXPVA
         48        60       FIXPVA
         49        60       FIXPVA
         50        60       FIXPVA
         51        60       FIXPVA
         52        60       FIXPVA
         53        60       FIXPVA
         54        60       FIXPVA
         55        60       FIXPVA
         56        60       FIXPVA
         57        60       FIXPVA
         58        60       FIXPVA
         59        60       FIXPVA
         60        60       FIXPVA
         61        60       FIXPVA
         62        60       FIXPVA
         63        60       FIXPVA
         64        60       FIXPVA
         65        60       FIXPVA
         66        60       FIXPVA
         67        60       FIXPVA
         68        60       FIXPVA
         69        60       FIXPVA
         70        60       FIXPVA
         71        60       FIXPVA
         72        60       FIXPVA
         73        60       FIXPVA
         74        60       FIXPVA
         75        60       FIXPVA
         76        60       FIXPVA
         77        60       FIXPVA
         78        60       FIXPVA
         79        60       FIXPVA
         80        60       FIXPVA
         81        60       FIXPVA
         82        60       FIXPVA
         83        60       FIXPVA
         84        60       FIXPVA
         85        60       FIXPVA
         86        60       FIXPVA
         87        60       FIXPVA
         88        60       FIXPVA
         89        60       FIXPVA
         90        60       FIXPVA
         91        60       FIXPVA
         92        60       FIXPVA
         93        60       FIXPVA
         94        60       FIXPVA
         95        60       FIXPVA
         96        60       FIXPVA
         97        60       FIXPVA
         98        60       FIXPVA
         99        60       FIXPVA
        100        60       FIXPVA
        101        60       FIXPVA
        102        60       FIXPVA
        103        60       FIXPVA
        104        60       FIXPVA
        105        60       FIXPVA
        106        60       FIXPVA
        107        60       FIXPVA
        108        60       FIXPVA
        109        60       FIXPVA
        110        60       FIXPVA
        111        60       FIXPVA
        112        60       FIXPVA
        113        60       FIXPVA
        114        60       FIXPVA
        115        60       FIXPVA
        116        60       FIXPVA
        117        60       FIXPVA
        118        60       FIXPVA
        119        60       FIXPVA
        120        60       FIXPVA
        121        60       FIXPVA
        122        60       FIXPVA
        123        60       FIXPVA
        124        60       FIXPVA
        125        60       FIXPVA
        126        60       FIXPVA
        127        60       FIXPVA
        128        60       FIXPVA
        129        60       FIXPVA
        130        60       FIXPVA
        131        60       FIXPVA
        132        60       FIXPVA
        133        60       FIXPVA
        134        60       FIXPVA
        135        60       FIXPVA
        136        60       FIXPVA
        137        60       FIXPVA
        138        60       FIXPVA
        139        60       FIXPVA
        140        60       FIXPVA
        141        60       FIXPVA
        142        60       FIXPVA
        143        60       FIXPVA
        144        60       FIXPVA
        145        60       FIXPVA
        146        60       FIXPVA
        147        60       FIXPVA
        148        60       FIXPVA
        149        60       FIXPVA
        150        60       FIXPVA
        151        60       FIXPVA
        152        60       FIXPVA
        153        60       FIXPVA
        154        60       FIXPVA
        155        60       FIXPVA
        156        60       FIXPVA
        157        60       FIXPVA
        158        60       FIXPVA
        159        60       FIXPVA
        160        60       FIXPVA
        161        60       FIXPVA
        162        60       FIXPVA
        163        60       FIXPVA
        164        60       FIXPVA
        165        60       FIXPVA
        166        60       FIXPVA
        167        60       FIXPVA
        168        60       FIXPVA
        169        60       FIXPVA
        170        60       FIXPVA
        171        60       FIXPVA
        172        60       FIXPVA
        173        60       FIXPVA
        174        60       FIXPVA
        175        60       FIXPVA
        176        60       FIXPVA
        177        60       FIXPVA
        178        60       FIXPVA
        179        60       FIXPVA
        180        60       FIXPVA
        181        60       FIXPVA
        182        60       FIXPVA
        183        60       FIXPVA
        184        60       FIXPVA
        185        60       FIXPVA
        186        60       FIXPVA
        187        60       FIXPVA
        188        60       FIXPVA
        189        60       FIXPVA
        190        60       FIXPVA
        191        60       FIXPVA
        192        60       FIXPVA
        193        60       FIXPVA
        194        60       FIXPVA
        195        60       FIXPVA
        196        60       FIXPVA
        197        60       FIXPVA
        198        60       FIXPVA
        199        60       FIXPVA
        200        60       FIXPVA
        201        60       FIXPVA
        202        60       FIXPVA
        203        60       FIXPVA
        204        60       FIXPVA
        205        60       FIXPVA
        206        60       FIXPVA
        207        60       FIXPVA
        208        60       FIXPVA
        209        60       FIXPVA
        210        60       FIXPVA
        211        60       FIXPVA
        212        60       FIXPVA
        213        60       FIXPVA
        214        60       FIXPVA
        215        60       FIXPVA
        216        60       FIXPVA
        217        60       FIXPVA
        218        60       FIXPVA
        219        60       FIXPVA
        220        60       FIXPVA
        221        60       FIXPVA
        222        60       FIXPVA
        223        60       FIXPVA
        224        60       FIXPVA
        225        60       FIXPVA
        226        60       FIXPVA
        227        60       FIXPVA
        228        60       FIXPVA
        229        60       FIXPVA
        230        60       FIXPVA
        231        60       FIXPVA
        232        60       FIXPVA
        233        60       FIXPVA
        234        60       FIXPVA
        235        60       FIXPVA
        236        60       FIXPVA
        237        60       FIXPVA
        238        60       FIXPVA
        239        60       FIXPVA
        240        60       FIXPVA
        241        60       FIXPVA
        242        60       FIXPVA
        243        60       FIXPVA
        244        60       FIXPVA
        245        60       FIXPVA
        246        60       FIXPVA
        247        60       FIXPVA
        248        60       FIXPVA
        249        60       FIXPVA
        250        60       FIXPVA
        251        60       FIXPVA
        252        60       FIXPVA
        253        60       FIXPVA
        254        60       FIXPVA

     ------------------------------
      FIXPVA TESSELLATION FOR PCM
         PEIFENG SU AND HUI LI
     UNIVERSITY OF NEBRASKA-LINCOLN
     ------------------------------


 PCM DIMENSIONS: MXSP=   254, MXTS=     10160, MEMORY=        104397

     INPUT FOR CAVITY DEFINITION 
     ---------------------------
   ATOM               COORDINATES                RADIUS       EPS
      1     -6.0200     -7.6660      6.7790      0.0100     78.3900
      2     -6.1400     -6.7830      7.1740      1.5900     78.3900
      3     -5.7750     -6.8890      8.5580      1.7700     78.3900
      4     -4.7170     -7.2310      8.6240      0.0100     78.3900
      5     -6.4160     -7.6520      9.0550      0.0100     78.3900
      6     -5.9110     -5.5670      9.3210      1.7700     78.3900
      7     -5.6320     -5.7010     10.3890      0.0100     78.3900
      8     -5.0180     -4.5580      8.7580      1.5900     78.3900
      9     -5.6740     -3.3000      8.7670      1.7700     78.3900
     10     -5.0030     -2.5920      9.3050      0.0100     78.3900
     11     -5.8920     -2.7890      7.4030      1.6800     78.3900
     12     -6.1470     -1.4880      7.0580      1.7700     78.3900
     13     -6.6880      1.8090      7.9610      1.6800     78.3900
     14     -6.6390      1.7740      8.9540      0.0100     78.3900
     15     -6.8730      2.6870      7.5100      0.0100     78.3900
     16     -6.2680     -0.4530      7.9100      1.6800     78.3900
     17     -6.4990      0.6960      7.2810      1.7700     78.3900
     18     -6.5510      0.8070      5.9170      1.6800     78.3900
     19     -6.7310      1.7160      5.5220      0.0100     78.3900
     20     -6.4070     -0.2350      5.0110      1.7700     78.3900
     21     -6.4680     -0.0410      3.7930      1.5900     78.3900
     22     -6.2150     -1.4770      5.6750      1.7700     78.3900
     23     -6.0320     -2.7550      5.1580      1.6800     78.3900
     24     -5.8510     -3.5030      6.2240      1.7700     78.3900
     25     -5.6740     -4.5810      6.2260      0.0100     78.3900
     26     -6.9570     -3.4660      9.5500      1.7700     78.3900
     27     -7.7550     -2.7810      9.2030      0.0100     78.3900
     28     -6.7010     -3.2450     10.9250      1.5900     78.3900
     29     -7.5330     -3.3860     11.3960      0.0100     78.3900
     30     -7.3020     -4.9260      9.2740      1.7700     78.3900
     31     -7.6680     -5.0480      8.2290      0.0100     78.3900
     32     -8.1600     -5.5510     10.2570      1.5900     78.3900
     33     -9.7140     -5.5800     10.0050      2.1000     78.3900
     34     -9.9640     -6.0260      8.6190      1.5900     78.3900
     35    -10.3630     -6.3650     11.0820      1.5900     78.3900
     36    -10.1390     -4.0680     10.1300      1.5900     78.3900
     37    -10.1110     -3.4010     11.4160      1.7700     78.3900
     38     -9.1270     -3.5160     11.9230      0.0100     78.3900
     39    -10.8730     -3.8340     12.0940      0.0100     78.3900
     40    -10.4100     -1.9020     11.3100      1.7700     78.3900
     41    -10.3570     -1.4160     12.3090      0.0100     78.3900
     42     -9.4220     -1.2690     10.4590      1.5900     78.3900
     43    -10.0430     -0.2420      9.7060      1.7700     78.3900
     44     -9.4950      0.6910      9.9810      0.0100     78.3900
     45     -9.9330     -0.4590      8.2400      1.6800     78.3900
     46     -9.6680     -1.7140      7.7400      1.7700     78.3900
     47     -9.5810     -2.5120      8.4770      0.0100     78.3900
     48     -9.5110     -1.9240      6.4280      1.7700     78.3900
     49     -9.2640     -2.9000      6.0160      0.0100     78.3900
     50    -10.1140      0.6070      7.3650      1.7700     78.3900
     51    -10.3850      1.7260      7.8230      1.5900     78.3900
     52     -9.9750      0.4110      6.0360      1.6800     78.3900
     53     -9.6650     -0.8060      5.5610      1.7700     78.3900
     54     -9.4950     -0.9610      4.2540      1.6800     78.3900
     55     -9.6850     -0.1860      3.6450      0.0100     78.3900
     56     -9.2710     -1.8440      3.8420      0.0100     78.3900
     57    -11.4780     -0.1270     10.1810      1.7700     78.3900
     58    -12.1700      0.1600      9.3670      0.0100     78.3900
     59    -11.5680      0.8130     11.2360      1.5900     78.3900
     60    -12.4630      0.7470     11.6040      0.0100     78.3900
     61    -11.7550     -1.5420     10.6710      1.7700     78.3900
     62    -11.8950     -2.2320      9.8070      0.0100     78.3900
     63    -12.8060     -1.6460     11.6570      1.5900     78.3900
     64    -14.2890     -1.8410     11.1660      2.1000     78.3900
     65    -14.3220     -2.9650     10.2070      1.5900     78.3900
     66    -15.1820     -1.9190     12.3440      1.5900     78.3900
     67    -14.6210     -0.5070     10.4120      1.5900     78.3900
     68    -15.7120     -0.4420      9.4570      1.7700     78.3900
     69    -16.6610     -0.2240      9.9900      0.0100     78.3900
     70    -15.8530     -1.4100      8.9210      0.0100     78.3900
     71    -15.4740      0.6310      8.3730      1.7700     78.3900
     72    -15.7070      1.6430      8.7570      0.0100     78.3900
     73    -14.0640      0.6280      7.9900      1.5900     78.3900
     74    -13.9310      0.6710      6.5920      1.7700     78.3900
     75    -13.1820      1.4710      6.3880      0.0100     78.3900
     76    -13.4300     -0.6190      6.0380      1.6800     78.3900
     77    -13.1960     -1.7220      6.8370      1.7700     78.3900
     78    -13.4450     -1.6080      7.8960      0.0100     78.3900
     79    -13.0620     -0.6210      4.7130      1.7700     78.3900
     80    -13.1130      0.3870      4.0180      1.5900     78.3900
     81    -12.5710     -1.8150      4.2570      1.6800     78.3900
     82    -12.5620     -1.9250      3.2530      0.0100     78.3900
     83    -12.3400     -2.9620      4.9740      1.7700     78.3900
     84    -11.8500     -3.9480      4.4260      1.5900     78.3900
     85    -12.6570     -2.8570      6.3650      1.7700     78.3900
     86    -12.4450     -3.7060      7.0070      0.0100     78.3900
     87    -15.2860      1.0800      6.0520      1.7700     78.3900
     88    -15.4750      0.7160      5.0170      0.0100     78.3900
     89    -15.4010      2.4920      6.1240      1.5900     78.3900
     90    -14.6170      2.8920      5.7300      0.0100     78.3900
     91    -16.2180      0.3990      7.0460      1.7700     78.3900
     92    -16.2110     -0.6980      6.8840      0.0100     78.3900
     93    -17.5630      0.9150      7.1060      1.5900     78.3900
     94    -18.5540      0.8470      5.8790      2.1000     78.3900
     95    -19.8290      0.3120      6.3960      1.5900     78.3900
     96    -18.6480      2.1640      5.2130      1.5900     78.3900
     97    -17.9380     -0.1920      4.8690      1.5900     78.3900
     98    -17.9730     -1.6220      5.0750      1.7700     78.3900
     99    -18.7340     -1.9280      5.8320      0.0100     78.3900
    100    -16.9780     -1.9620      5.4360      0.0100     78.3900
    101    -18.2580     -2.3760      3.7700      1.7700     78.3900
    102    -18.1100     -3.4710      3.9030      0.0100     78.3900
    103    -19.6520     -2.1900      3.4160      1.5900     78.3900
    104    -19.7680     -2.0760      2.0050      1.7700     78.3900
    105    -20.4490     -2.9110      1.7080      0.0100     78.3900
    106    -20.3680     -0.7840      1.5880      1.6800     78.3900
    107    -20.3440      0.3010      2.4380      1.7700     78.3900
    108    -19.8530      0.1490      3.4000      0.0100     78.3900
    109    -20.9190      1.4610      2.1020      1.7700     78.3900
    110    -20.9400      2.3180      2.7750      0.0100     78.3900
    111    -20.9400     -0.6630      0.3240      1.7700     78.3900
    112    -20.9290     -1.6420     -0.4400      1.5900     78.3900
    113    -21.5060      0.5100     -0.0390      1.6800     78.3900
    114    -21.5290      1.5460      0.8180      1.7700     78.3900
    115    -22.1570      2.6600      0.4550      1.6800     78.3900
    116    -22.1980      3.4680      1.0500      0.0100     78.3900
    117    -22.5690      2.7170     -0.4530      0.0100     78.3900
    118    -18.4000     -2.3220      1.3910      1.7700     78.3900
    119    -18.2170     -1.6960      0.4920      0.0100     78.3900
    120    -18.2470     -3.6910      1.0550      1.5900     78.3900
    121    -17.3090     -3.8390      0.8560      0.0100     78.3900
    122    -17.4710     -1.9160      2.5270      1.7700     78.3900
    123    -17.3970     -0.8050      2.5800      0.0100     78.3900
    124    -16.1820     -2.5620      2.4980      1.5900     78.3900
    125    -14.9750     -1.8880      1.7470      2.1000     78.3900
    126    -14.9220     -0.4570      2.0840      1.5900     78.3900
    127    -13.7780     -2.7180      2.0000      1.5900     78.3900
    128    -15.2860     -2.0190      0.2110      1.5900     78.3900
    129    -14.5570     -1.1750     -0.7340      1.7700     78.3900
    130    -13.7270     -1.7520     -1.2020      0.0100     78.3900
    131    -14.0830     -0.2900     -0.2440      0.0100     78.3900
    132    -15.4450     -0.6130     -1.8600      1.7700     78.3900
    133    -15.4680     -1.3020     -2.7280      0.0100     78.3900
    134    -16.8270     -0.4960     -1.3920      1.5900     78.3900
    135    -17.3860      0.7280     -1.8090      1.7700     78.3900
    136    -18.3460      0.4630     -2.3140      0.0100     78.3900
    137    -17.6620      1.6050     -0.6700      1.6800     78.3900
    138    -18.4710      3.2260      0.5680      1.7700     78.3900
    139    -17.7040      2.4390      1.4120      1.6800     78.3900
    140    -17.2410      1.4920      0.6370      1.7700     78.3900
    141    -16.5860      0.6800      0.9610      0.0100     78.3900
    142    -19.9190      4.9020     -0.2700      1.6800     78.3900
    143    -19.7730      4.3180     -1.4660      1.7700     78.3900
    144    -20.3220      4.7880     -2.2890      0.0100     78.3900
    145    -19.0770      3.2250     -1.7940      1.6800     78.3900
    146    -18.4520      2.7220     -0.7180      1.7700     78.3900
    147    -19.2580      4.3730      0.7920      1.7700     78.3900
    148    -19.3930      4.9370      2.0020      1.6800     78.3900
    149    -18.8990      4.5830      2.7970      0.0100     78.3900
    150    -19.9380      5.7690      2.1120      0.0100     78.3900
    151    -16.4390      1.3520     -2.8070      1.7700     78.3900
    152    -16.4510      2.4630     -2.7820      0.0100     78.3900
    153    -16.7590      0.8960     -4.1090      1.5900     78.3900
    154    -15.9950      1.0790     -4.6810      0.0100     78.3900
    155    -15.0940      0.8150     -2.3400      1.7700     78.3900
    156    -14.7690      1.3890     -1.4390      0.0100     78.3900
    157    -14.1050      0.7880     -3.3970      1.5900     78.3900
    158    -12.6970      1.4580     -3.1940      2.1000     78.3900
    159    -12.0860      0.8680     -1.9880      1.5900     78.3900
    160    -11.9290      1.3900     -4.4580      1.5900     78.3900
    161    -13.0130      2.9680     -2.9140      1.5900     78.3900
    162    -13.5750      3.8460     -3.9120      1.7700     78.3900
    163    -14.4450      3.3690     -4.4220      0.0100     78.3900
    164    -12.8170      4.0940     -4.6860      0.0100     78.3900
    165    -14.0530      5.1660     -3.2920      1.7700     78.3900
    166    -14.4580      5.8400     -4.0790      0.0100     78.3900
    167    -15.1460      4.8770     -2.3670      1.5900     78.3900
    168    -15.0610      5.7430     -1.2480      1.7700     78.3900
    169    -16.0330      6.2890     -1.2170      0.0100     78.3900
    170    -14.8670      4.9990      0.0270      1.6800     78.3900
    171    -14.0760      3.8770      0.0300      1.7700     78.3900
    172    -13.6320      3.6040     -0.9200      0.0100     78.3900
    173    -13.8900      3.1490      1.1340      1.7700     78.3900
    174    -13.2950      2.2370      1.1420      0.0100     78.3900
    175    -15.4150      5.4570      1.2250      1.7700     78.3900
    176    -16.0700      6.5110      1.2240      1.5900     78.3900
    177    -15.2320      4.7390      2.3590      1.6800     78.3900
    178    -14.5210      3.5970      2.3230      1.7700     78.3900
    179    -14.4150      2.8740      3.4260      1.6800     78.3900
    180    -14.0720      1.9300      3.3480      0.0100     78.3900
    181    -15.1180      3.0470      4.1120      0.0100     78.3900
    182    -13.9510      6.7380     -1.5220      1.7700     78.3900
    183    -13.4380      7.0070     -0.5940      0.0100     78.3900
    184    -14.4550      7.9110     -2.1330      1.5900     78.3900
    185    -13.6970      8.4170     -2.4670      0.0100     78.3900
    186    -13.0280      5.9590     -2.4510      1.7700     78.3900
    187    -12.4490      5.2060     -1.8700      0.0100     78.3900
    188    -12.1880      6.7960     -3.2840      1.5900     78.3900
    189    -10.6320      6.9130     -3.0090      2.1000     78.3900
    190    -10.0290      5.5690     -3.1190      1.5900     78.3900
    191    -10.0690      7.9560     -3.8960      1.5900     78.3900
    192    -10.5140      7.3880     -1.5180      1.5900     78.3900
    193    -10.9400      8.6960     -1.0910      1.7700     78.3900
    194    -11.9270      8.9720     -1.5300      0.0100     78.3900
    195    -10.1970      9.4610     -1.4120      0.0100     78.3900
    196    -11.0750      8.7530      0.4420      1.7700     78.3900
    197    -11.4920      9.7310      0.7640      0.0100     78.3900
    198    -11.9830      7.7190      0.9060      1.5900     78.3900
    199    -11.5070      7.1420      2.0990      1.7700     78.3900
    200    -12.3430      7.1940      2.8340      0.0100     78.3900
    201    -11.1250      5.7320      1.9020      1.6800     78.3900
    202    -10.9580      4.8040      2.8940      1.7700     78.3900
    203    -11.0080      3.9550      6.2510      1.6800     78.3900
    204    -11.2380      4.8160      6.6980      0.0100     78.3900
    205    -10.7940      3.1520      6.8160      0.0100     78.3900
    206    -11.1030      5.0260      4.2110      1.6800     78.3900
    207    -10.9050      3.9270      4.9350      1.7700     78.3900
    208    -10.5850      2.7150      4.3830      1.6800     78.3900
    209    -10.4500      1.9250      4.9960      0.0100     78.3900
    210    -10.4310      2.4570      3.0280      1.7700     78.3900
    211    -10.1350      1.3350      2.6110      1.5900     78.3900
    212    -10.6300      3.6270      2.2500      1.7700     78.3900
    213    -10.5740      3.8100      0.8750      1.6800     78.3900
    214    -10.8800      5.0740      0.7140      1.7700     78.3900
    215    -10.9620      5.5780     -0.2470      0.0100     78.3900
    216    -10.3560      7.9990      2.5640      1.7700     78.3900
    217     -9.6100      7.4230      3.1430      0.0100     78.3900
    218    -10.8440      9.0660      3.3510      1.5900     78.3900
    219    -10.0870      9.6220      3.5660      0.0100     78.3900
    220     -9.7900      8.5000      1.2370      1.7700     78.3900
    221     -9.2630      7.6730      0.7070      0.0100     78.3900
    222     -9.0150      9.7220      1.3260      1.5900     78.3900
    223     -7.4510      9.5930      1.4360      2.1000     78.3900
    224     -6.9950      8.5410      0.5020      1.5900     78.3900
    225     -6.8450     10.9350      1.2870      1.5900     78.3900
    226     -7.2350      9.0810      2.9050      1.5900     78.3900
    227     -7.5880      9.9050      4.0370      1.7700     78.3900
    228     -8.6420     10.2630      3.9770      0.0100     78.3900
    229     -6.9300     10.8080      4.0660      0.0100     78.3900
    230     -7.4130      9.1280      5.3500      1.7700     78.3900
    231     -7.6450      9.7720      6.2280      0.0100     78.3900
    232     -8.3290      7.9920      5.3950      1.5900     78.3900
    233     -7.6640      6.8830      5.9980      1.7700     78.3900
    234     -8.3040      6.5840      6.8630      0.0100     78.3900
    235     -7.5190      5.7200      5.0770      1.6800     78.3900
    236     -7.5710      5.9040      3.7150      1.7700     78.3900
    237     -7.7400      6.9230      3.3770      0.0100     78.3900
    238     -7.4510      4.8800      2.8620      1.7700     78.3900
    239     -7.5320      5.0050      1.7840      0.0100     78.3900
    240     -7.2660      4.4500      5.5890      1.7700     78.3900
    241     -7.1590      4.3000      6.8170      1.5900     78.3900
    242     -7.1390      3.4030      4.7440      1.6800     78.3900
    243     -7.2270      3.5880      3.4150      1.7700     78.3900
    244     -7.1100      2.5370      2.6100      1.6800     78.3900
    245     -6.9720      1.6240      3.0020      0.0100     78.3900
    246     -7.2050      2.6170      1.6200      0.0100     78.3900
    247     -6.3240      7.3770      6.5210      1.7700     78.3900
    248     -5.5390      6.5920      6.4680      0.0100     78.3900
    249     -6.4580      7.8390      7.8560      1.5900     78.3900
    250     -5.6480      8.3210      8.0960      0.0100     78.3900
    251     -6.0240      8.5060      5.5430      1.7700     78.3900
    252     -5.6820      8.0840      4.5710      0.0100     78.3900
    253     -5.0880      9.4830      6.0320      1.5900     78.3900
    254     -4.1960      9.0890      6.0920      0.0100     78.3900

 CREATION OF A NEW CAVITY WITH THE ORIGINAL SPHERE
 SIZES FOR THE COMPUTATION OF THE CAVITATION ENERGY.

     INPUT FOR CAVITY DEFINITION 
     ---------------------------
   ATOM               COORDINATES                RADIUS       EPS
      1     -6.0200     -7.6660      6.7790      0.0100     78.3900
      2     -6.1400     -6.7830      7.1740      1.5900     78.3900
      3     -5.7750     -6.8890      8.5580      1.7700     78.3900
      4     -4.7170     -7.2310      8.6240      0.0100     78.3900
      5     -6.4160     -7.6520      9.0550      0.0100     78.3900
      6     -5.9110     -5.5670      9.3210      1.7700     78.3900
      7     -5.6320     -5.7010     10.3890      0.0100     78.3900
      8     -5.0180     -4.5580      8.7580      1.5900     78.3900
      9     -5.6740     -3.3000      8.7670      1.7700     78.3900
     10     -5.0030     -2.5920      9.3050      0.0100     78.3900
     11     -5.8920     -2.7890      7.4030      1.6800     78.3900
     12     -6.1470     -1.4880      7.0580      1.7700     78.3900
     13     -6.6880      1.8090      7.9610      1.6800     78.3900
     14     -6.6390      1.7740      8.9540      0.0100     78.3900
     15     -6.8730      2.6870      7.5100      0.0100     78.3900
     16     -6.2680     -0.4530      7.9100      1.6800     78.3900
     17     -6.4990      0.6960      7.2810      1.7700     78.3900
     18     -6.5510      0.8070      5.9170      1.6800     78.3900
     19     -6.7310      1.7160      5.5220      0.0100     78.3900
     20     -6.4070     -0.2350      5.0110      1.7700     78.3900
     21     -6.4680     -0.0410      3.7930      1.5900     78.3900
     22     -6.2150     -1.4770      5.6750      1.7700     78.3900
     23     -6.0320     -2.7550      5.1580      1.6800     78.3900
     24     -5.8510     -3.5030      6.2240      1.7700     78.3900
     25     -5.6740     -4.5810      6.2260      0.0100     78.3900
     26     -6.9570     -3.4660      9.5500      1.7700     78.3900
     27     -7.7550     -2.7810      9.2030      0.0100     78.3900
     28     -6.7010     -3.2450     10.9250      1.5900     78.3900
     29     -7.5330     -3.3860     11.3960      0.0100     78.3900
     30     -7.3020     -4.9260      9.2740      1.7700     78.3900
     31     -7.6680     -5.0480      8.2290      0.0100     78.3900
     32     -8.1600     -5.5510     10.2570      1.5900     78.3900
     33     -9.7140     -5.5800     10.0050      2.1000     78.3900
     34     -9.9640     -6.0260      8.6190      1.5900     78.3900
     35    -10.3630     -6.3650     11.0820      1.5900     78.3900
     36    -10.1390     -4.0680     10.1300      1.5900     78.3900
     37    -10.1110     -3.4010     11.4160      1.7700     78.3900
     38     -9.1270     -3.5160     11.9230      0.0100     78.3900
     39    -10.8730     -3.8340     12.0940      0.0100     78.3900
     40    -10.4100     -1.9020     11.3100      1.7700     78.3900
     41    -10.3570     -1.4160     12.3090      0.0100     78.3900
     42     -9.4220     -1.2690     10.4590      1.5900     78.3900
     43    -10.0430     -0.2420      9.7060      1.7700     78.3900
     44     -9.4950      0.6910      9.9810      0.0100     78.3900
     45     -9.9330     -0.4590      8.2400      1.6800     78.3900
     46     -9.6680     -1.7140      7.7400      1.7700     78.3900
     47     -9.5810     -2.5120      8.4770      0.0100     78.3900
     48     -9.5110     -1.9240      6.4280      1.7700     78.3900
     49     -9.2640     -2.9000      6.0160      0.0100     78.3900
     50    -10.1140      0.6070      7.3650      1.7700     78.3900
     51    -10.3850      1.7260      7.8230      1.5900     78.3900
     52     -9.9750      0.4110      6.0360      1.6800     78.3900
     53     -9.6650     -0.8060      5.5610      1.7700     78.3900
     54     -9.4950     -0.9610      4.2540      1.6800     78.3900
     55     -9.6850     -0.1860      3.6450      0.0100     78.3900
     56     -9.2710     -1.8440      3.8420      0.0100     78.3900
     57    -11.4780     -0.1270     10.1810      1.7700     78.3900
     58    -12.1700      0.1600      9.3670      0.0100     78.3900
     59    -11.5680      0.8130     11.2360      1.5900     78.3900
     60    -12.4630      0.7470     11.6040      0.0100     78.3900
     61    -11.7550     -1.5420     10.6710      1.7700     78.3900
     62    -11.8950     -2.2320      9.8070      0.0100     78.3900
     63    -12.8060     -1.6460     11.6570      1.5900     78.3900
     64    -14.2890     -1.8410     11.1660      2.1000     78.3900
     65    -14.3220     -2.9650     10.2070      1.5900     78.3900
     66    -15.1820     -1.9190     12.3440      1.5900     78.3900
     67    -14.6210     -0.5070     10.4120      1.5900     78.3900
     68    -15.7120     -0.4420      9.4570      1.7700     78.3900
     69    -16.6610     -0.2240      9.9900      0.0100     78.3900
     70    -15.8530     -1.4100      8.9210      0.0100     78.3900
     71    -15.4740      0.6310      8.3730      1.7700     78.3900
     72    -15.7070      1.6430      8.7570      0.0100     78.3900
     73    -14.0640      0.6280      7.9900      1.5900     78.3900
     74    -13.9310      0.6710      6.5920      1.7700     78.3900
     75    -13.1820      1.4710      6.3880      0.0100     78.3900
     76    -13.4300     -0.6190      6.0380      1.6800     78.3900
     77    -13.1960     -1.7220      6.8370      1.7700     78.3900
     78    -13.4450     -1.6080      7.8960      0.0100     78.3900
     79    -13.0620     -0.6210      4.7130      1.7700     78.3900
     80    -13.1130      0.3870      4.0180      1.5900     78.3900
     81    -12.5710     -1.8150      4.2570      1.6800     78.3900
     82    -12.5620     -1.9250      3.2530      0.0100     78.3900
     83    -12.3400     -2.9620      4.9740      1.7700     78.3900
     84    -11.8500     -3.9480      4.4260      1.5900     78.3900
     85    -12.6570     -2.8570      6.3650      1.7700     78.3900
     86    -12.4450     -3.7060      7.0070      0.0100     78.3900
     87    -15.2860      1.0800      6.0520      1.7700     78.3900
     88    -15.4750      0.7160      5.0170      0.0100     78.3900
     89    -15.4010      2.4920      6.1240      1.5900     78.3900
     90    -14.6170      2.8920      5.7300      0.0100     78.3900
     91    -16.2180      0.3990      7.0460      1.7700     78.3900
     92    -16.2110     -0.6980      6.8840      0.0100     78.3900
     93    -17.5630      0.9150      7.1060      1.5900     78.3900
     94    -18.5540      0.8470      5.8790      2.1000     78.3900
     95    -19.8290      0.3120      6.3960      1.5900     78.3900
     96    -18.6480      2.1640      5.2130      1.5900     78.3900
     97    -17.9380     -0.1920      4.8690      1.5900     78.3900
     98    -17.9730     -1.6220      5.0750      1.7700     78.3900
     99    -18.7340     -1.9280      5.8320      0.0100     78.3900
    100    -16.9780     -1.9620      5.4360      0.0100     78.3900
    101    -18.2580     -2.3760      3.7700      1.7700     78.3900
    102    -18.1100     -3.4710      3.9030      0.0100     78.3900
    103    -19.6520     -2.1900      3.4160      1.5900     78.3900
    104    -19.7680     -2.0760      2.0050      1.7700     78.3900
    105    -20.4490     -2.9110      1.7080      0.0100     78.3900
    106    -20.3680     -0.7840      1.5880      1.6800     78.3900
    107    -20.3440      0.3010      2.4380      1.7700     78.3900
    108    -19.8530      0.1490      3.4000      0.0100     78.3900
    109    -20.9190      1.4610      2.1020      1.7700     78.3900
    110    -20.9400      2.3180      2.7750      0.0100     78.3900
    111    -20.9400     -0.6630      0.3240      1.7700     78.3900
    112    -20.9290     -1.6420     -0.4400      1.5900     78.3900
    113    -21.5060      0.5100     -0.0390      1.6800     78.3900
    114    -21.5290      1.5460      0.8180      1.7700     78.3900
    115    -22.1570      2.6600      0.4550      1.6800     78.3900
    116    -22.1980      3.4680      1.0500      0.0100     78.3900
    117    -22.5690      2.7170     -0.4530      0.0100     78.3900
    118    -18.4000     -2.3220      1.3910      1.7700     78.3900
    119    -18.2170     -1.6960      0.4920      0.0100     78.3900
    120    -18.2470     -3.6910      1.0550      1.5900     78.3900
    121    -17.3090     -3.8390      0.8560      0.0100     78.3900
    122    -17.4710     -1.9160      2.5270      1.7700     78.3900
    123    -17.3970     -0.8050      2.5800      0.0100     78.3900
    124    -16.1820     -2.5620      2.4980      1.5900     78.3900
    125    -14.9750     -1.8880      1.7470      2.1000     78.3900
    126    -14.9220     -0.4570      2.0840      1.5900     78.3900
    127    -13.7780     -2.7180      2.0000      1.5900     78.3900
    128    -15.2860     -2.0190      0.2110      1.5900     78.3900
    129    -14.5570     -1.1750     -0.7340      1.7700     78.3900
    130    -13.7270     -1.7520     -1.2020      0.0100     78.3900
    131    -14.0830     -0.2900     -0.2440      0.0100     78.3900
    132    -15.4450     -0.6130     -1.8600      1.7700     78.3900
    133    -15.4680     -1.3020     -2.7280      0.0100     78.3900
    134    -16.8270     -0.4960     -1.3920      1.5900     78.3900
    135    -17.3860      0.7280     -1.8090      1.7700     78.3900
    136    -18.3460      0.4630     -2.3140      0.0100     78.3900
    137    -17.6620      1.6050     -0.6700      1.6800     78.3900
    138    -18.4710      3.2260      0.5680      1.7700     78.3900
    139    -17.7040      2.4390      1.4120      1.6800     78.3900
    140    -17.2410      1.4920      0.6370      1.7700     78.3900
    141    -16.5860      0.6800      0.9610      0.0100     78.3900
    142    -19.9190      4.9020     -0.2700      1.6800     78.3900
    143    -19.7730      4.3180     -1.4660      1.7700     78.3900
    144    -20.3220      4.7880     -2.2890      0.0100     78.3900
    145    -19.0770      3.2250     -1.7940      1.6800     78.3900
    146    -18.4520      2.7220     -0.7180      1.7700     78.3900
    147    -19.2580      4.3730      0.7920      1.7700     78.3900
    148    -19.3930      4.9370      2.0020      1.6800     78.3900
    149    -18.8990      4.5830      2.7970      0.0100     78.3900
    150    -19.9380      5.7690      2.1120      0.0100     78.3900
    151    -16.4390      1.3520     -2.8070      1.7700     78.3900
    152    -16.4510      2.4630     -2.7820      0.0100     78.3900
    153    -16.7590      0.8960     -4.1090      1.5900     78.3900
    154    -15.9950      1.0790     -4.6810      0.0100     78.3900
    155    -15.0940      0.8150     -2.3400      1.7700     78.3900
    156    -14.7690      1.3890     -1.4390      0.0100     78.3900
    157    -14.1050      0.7880     -3.3970      1.5900     78.3900
    158    -12.6970      1.4580     -3.1940      2.1000     78.3900
    159    -12.0860      0.8680     -1.9880      1.5900     78.3900
    160    -11.9290      1.3900     -4.4580      1.5900     78.3900
    161    -13.0130      2.9680     -2.9140      1.5900     78.3900
    162    -13.5750      3.8460     -3.9120      1.7700     78.3900
    163    -14.4450      3.3690     -4.4220      0.0100     78.3900
    164    -12.8170      4.0940     -4.6860      0.0100     78.3900
    165    -14.0530      5.1660     -3.2920      1.7700     78.3900
    166    -14.4580      5.8400     -4.0790      0.0100     78.3900
    167    -15.1460      4.8770     -2.3670      1.5900     78.3900
    168    -15.0610      5.7430     -1.2480      1.7700     78.3900
    169    -16.0330      6.2890     -1.2170      0.0100     78.3900
    170    -14.8670      4.9990      0.0270      1.6800     78.3900
    171    -14.0760      3.8770      0.0300      1.7700     78.3900
    172    -13.6320      3.6040     -0.9200      0.0100     78.3900
    173    -13.8900      3.1490      1.1340      1.7700     78.3900
    174    -13.2950      2.2370      1.1420      0.0100     78.3900
    175    -15.4150      5.4570      1.2250      1.7700     78.3900
    176    -16.0700      6.5110      1.2240      1.5900     78.3900
    177    -15.2320      4.7390      2.3590      1.6800     78.3900
    178    -14.5210      3.5970      2.3230      1.7700     78.3900
    179    -14.4150      2.8740      3.4260      1.6800     78.3900
    180    -14.0720      1.9300      3.3480      0.0100     78.3900
    181    -15.1180      3.0470      4.1120      0.0100     78.3900
    182    -13.9510      6.7380     -1.5220      1.7700     78.3900
    183    -13.4380      7.0070     -0.5940      0.0100     78.3900
    184    -14.4550      7.9110     -2.1330      1.5900     78.3900
    185    -13.6970      8.4170     -2.4670      0.0100     78.3900
    186    -13.0280      5.9590     -2.4510      1.7700     78.3900
    187    -12.4490      5.2060     -1.8700      0.0100     78.3900
    188    -12.1880      6.7960     -3.2840      1.5900     78.3900
    189    -10.6320      6.9130     -3.0090      2.1000     78.3900
    190    -10.0290      5.5690     -3.1190      1.5900     78.3900
    191    -10.0690      7.9560     -3.8960      1.5900     78.3900
    192    -10.5140      7.3880     -1.5180      1.5900     78.3900
    193    -10.9400      8.6960     -1.0910      1.7700     78.3900
    194    -11.9270      8.9720     -1.5300      0.0100     78.3900
    195    -10.1970      9.4610     -1.4120      0.0100     78.3900
    196    -11.0750      8.7530      0.4420      1.7700     78.3900
    197    -11.4920      9.7310      0.7640      0.0100     78.3900
    198    -11.9830      7.7190      0.9060      1.5900     78.3900
    199    -11.5070      7.1420      2.0990      1.7700     78.3900
    200    -12.3430      7.1940      2.8340      0.0100     78.3900
    201    -11.1250      5.7320      1.9020      1.6800     78.3900
    202    -10.9580      4.8040      2.8940      1.7700     78.3900
    203    -11.0080      3.9550      6.2510      1.6800     78.3900
    204    -11.2380      4.8160      6.6980      0.0100     78.3900
    205    -10.7940      3.1520      6.8160      0.0100     78.3900
    206    -11.1030      5.0260      4.2110      1.6800     78.3900
    207    -10.9050      3.9270      4.9350      1.7700     78.3900
    208    -10.5850      2.7150      4.3830      1.6800     78.3900
    209    -10.4500      1.9250      4.9960      0.0100     78.3900
    210    -10.4310      2.4570      3.0280      1.7700     78.3900
    211    -10.1350      1.3350      2.6110      1.5900     78.3900
    212    -10.6300      3.6270      2.2500      1.7700     78.3900
    213    -10.5740      3.8100      0.8750      1.6800     78.3900
    214    -10.8800      5.0740      0.7140      1.7700     78.3900
    215    -10.9620      5.5780     -0.2470      0.0100     78.3900
[...]


 AO spaces for     5     0     0 n-mer: L1=   371, L0=   348

 DIRECT SCF CALCULATION, SCHWRZ=T   FDIFF=T,  DIRTHR=  0.00E+00 NITDIR=10

                                                                                   NONZERO     BLOCKS
 ITER EX DEM     TOTAL ENERGY        E CHANGE  DENSITY CHANGE     ORB. GRAD      INTEGRALS    SKIPPED
   1  0  0    -1392.4946092010 -1392.4946092010   0.054913501   0.000000000      828354015   14984173
          ---------------START SECOND ORDER SCF---------------
   2  1  0    -1392.5219641670    -0.0273549660   0.026847090   0.003914708      795487695   15745403
   3  2  0    -1392.5242153178    -0.0022511508   0.009925590   0.001925345      762235165   16162876
   4  3  0    -1392.5241920047     0.0000233131   0.001699292   0.000358305      727370711   16518547
   5  4  0    -1392.5240577141     0.0001342906   0.000472355   0.000186370      695772387   16827614
   6  5  0    -1392.5240593140    -0.0000015999   0.000168314   0.000099024      658418834   17166362
   7  6  0    -1392.5240737207    -0.0000144067   0.000084039   0.000046151      626767736   17433160
   8  7  0    -1392.5240733543     0.0000003664   0.000046424   0.000022480      594129903   17731300
   9  8  0    -1392.5240702972     0.0000030571   0.000016178   0.000010770      565741606   17979271
  10  9  0    -1392.5240696675     0.0000006297   0.000006377   0.000001813      539068042   18185341
  11 10  0    -1392.5240697508    -0.0000000833   0.000003367   0.000000892      495653646   18555353
  12 11  0    -1392.5240699211    -0.0000001703   0.000000754   0.000000336      459059139   18862239
  13 12  0    -1392.5240699067     0.0000000144   0.000000235   0.000000138      413612897   19226793
  14 13  0    -1392.5240698989     0.0000000078   0.000000120   0.000000048      378028493   19535033
  15 14  0    -1392.5240699030    -0.0000000041   0.000000050   0.000000019      335183773   19880928

          -----------------
          DENSITY CONVERGED
          -----------------
     TIME TO FORM FOCK OPERATORS=      44.5 SECONDS (       3.0 SEC/ITER)
     FOCK TIME ON FIRST ITERATION=       4.5, LAST ITERATION=       1.8
     TIME TO SOLVE SCF EQUATIONS=       0.6 SECONDS (       0.0 SEC/ITER)

 FINAL RHF ENERGY IS    -1392.5240699030 AFTER  15 ITERATIONS
 ...... END OF RHF CALCULATION ......
 CPU     0: STEP CPU TIME=    74.94 TOTAL CPU TIME=        998.9 (     16.6 MIN)
 TOTAL WALL CLOCK TIME=       1991.3 SECONDS, CPU UTILIZATION IS    50.16%
 DONE PCM POT.
 CPU     0: STEP CPU TIME=     0.40 TOTAL CPU TIME=        999.3 (     16.7 MIN)
 TOTAL WALL CLOCK TIME=       1992.3 SECONDS, CPU UTILIZATION IS    50.16%

 Iter=  2 iFrag=      5 EFMO= -1432.579301749, DD= 0.062639858, DE=-0.436469561


 RHF      monomer      6 corr= NONE       , L1=   341, L0=   320 ID=      4


 AO spaces for     6     0     0 n-mer: L1=   341, L0=   320

 DIRECT SCF CALCULATION, SCHWRZ=T   FDIFF=T,  DIRTHR=  0.00E+00 NITDIR=10

                                                                                   NONZERO     BLOCKS
 ITER EX DEM     TOTAL ENERGY        E CHANGE  DENSITY CHANGE     ORB. GRAD      INTEGRALS    SKIPPED
   1  0  0    -1321.7116699308 -1321.7116699308   0.089707682   0.000000000      657509464   10581475
          ---------------START SECOND ORDER SCF---------------
   2  1  0    -1321.7404169572    -0.0287470264   0.026989930   0.005588439      632348655   11218086
   3  2  0    -1321.7426749268    -0.0022579696   0.012114161   0.003237089      610027481   11523288
   4  3  0    -1321.7429280834    -0.0002531567   0.003232862   0.000413960      583400851   11821456
   5  4  0    -1321.7428491452     0.0000789382   0.000718568   0.000419663      559705632   12076804
   6  5  0    -1321.7428555136    -0.0000063684   0.000200730   0.000098543      530981833   12373869
   7  6  0    -1321.7428679532    -0.0000124396   0.000110575   0.000064466      507758226   12582617
   8  7  0    -1321.7428681319    -0.0000001787   0.000034404   0.000025717      483340719   12812947
   9  8  0    -1321.7428664648     0.0000016671   0.000014177   0.000004938      457174208   13043519
  10  9  0    -1321.7428663563     0.0000001085   0.000004781   0.000001502      425510149   13314273
  11 10  0    -1321.7428664805    -0.0000001242   0.000001621   0.000000478      385224915   13676961
  12 11  0    -1321.7428665262    -0.0000000457   0.000000534   0.000000138      354977544   13943017
  13 12  0    -1321.7428665171     0.0000000091   0.000000145   0.000000061      314491941   14285906
  14 13  0    -1321.7428665152     0.0000000019   0.000000051   0.000000035      281450716   14570490

          -----------------
          DENSITY CONVERGED
          -----------------
     TIME TO FORM FOCK OPERATORS=      35.9 SECONDS (       2.6 SEC/ITER)
     FOCK TIME ON FIRST ITERATION=       3.5, LAST ITERATION=       1.4
     TIME TO SOLVE SCF EQUATIONS=       0.5 SECONDS (       0.0 SEC/ITER)

 FINAL RHF ENERGY IS    -1321.7428665152 AFTER  14 ITERATIONS
 ...... END OF RHF CALCULATION ......
 CPU     0: STEP CPU TIME=    77.71 TOTAL CPU TIME=       1077.0 (     17.9 MIN)
 TOTAL WALL CLOCK TIME=       2140.7 SECONDS, CPU UTILIZATION IS    50.31%
 DONE PCM POT.
 CPU     0: STEP CPU TIME=     0.36 TOTAL CPU TIME=       1077.3 (     18.0 MIN)
 TOTAL WALL CLOCK TIME=       2141.5 SECONDS, CPU UTILIZATION IS    50.31%

 Iter=  2 iFrag=      6 EFMO= -1360.662265061, DD= 0.103092393, DE=-0.456278494


 RHF      monomer      4 corr= NONE       , L1=   341, L0=   320 ID=      5


 AO spaces for     4     0     0 n-mer: L1=   341, L0=   320

 DIRECT SCF CALCULATION, SCHWRZ=T   FDIFF=T,  DIRTHR=  0.00E+00 NITDIR=10

                                                                                   NONZERO     BLOCKS
 ITER EX DEM     TOTAL ENERGY        E CHANGE  DENSITY CHANGE     ORB. GRAD      INTEGRALS    SKIPPED
   1  0  0    -1327.5312178495 -1327.5312178495   0.045501226   0.000000000      639760113   10714428
          ---------------START SECOND ORDER SCF---------------
   2  1  0    -1327.5543915863    -0.0231737368   0.023793242   0.005093952      615969701   11364624
   3  2  0    -1327.5560733013    -0.0016817150   0.007650238   0.002700676      590757164   11710839
   4  3  0    -1327.5561826472    -0.0001093460   0.001927137   0.000586612      570356378   11953231
   5  4  0    -1327.5560965955     0.0000860518   0.000597211   0.000271589      547510567   12191896
   6  5  0    -1327.5560765738     0.0000200216   0.000208641   0.000057946      521398180   12451183
   7  6  0    -1327.5560825821    -0.0000060082   0.000091971   0.000041928      493629417   12704771
   8  7  0    -1327.5560829069    -0.0000003248   0.000028885   0.000016095      465577450   12967106
   9  8  0    -1327.5560817421     0.0000011647   0.000010965   0.000004813      435513448   13241093
  10  9  0    -1327.5560812775     0.0000004646   0.000004463   0.000001931      406155989   13489515
  11 10  0    -1327.5560813070    -0.0000000295   0.000001079   0.000000869      369181964   13830521
  12 11  0    -1327.5560813916    -0.0000000845   0.000000610   0.000000418      350081683   13999066
  13 12  0    -1327.5560813927    -0.0000000011   0.000000200   0.000000058      309816785   14349385
  14 13  0    -1327.5560813904     0.0000000023   0.000000083   0.000000023      288037285   14532553

          -----------------
          DENSITY CONVERGED
          -----------------
     TIME TO FORM FOCK OPERATORS=      33.0 SECONDS (       2.4 SEC/ITER)
     FOCK TIME ON FIRST ITERATION=       3.2, LAST ITERATION=       1.4
     TIME TO SOLVE SCF EQUATIONS=       0.5 SECONDS (       0.0 SEC/ITER)

 FINAL RHF ENERGY IS    -1327.5560813904 AFTER  14 ITERATIONS
 ...... END OF RHF CALCULATION ......
 CPU     0: STEP CPU TIME=    65.59 TOTAL CPU TIME=       1142.9 (     19.0 MIN)
 TOTAL WALL CLOCK TIME=       2278.5 SECONDS, CPU UTILIZATION IS    50.16%
 DONE PCM POT.
 CPU     0: STEP CPU TIME=     0.35 TOTAL CPU TIME=       1143.3 (     19.1 MIN)
 TOTAL WALL CLOCK TIME=       2279.3 SECONDS, CPU UTILIZATION IS    50.16%

 Iter=  2 iFrag=      4 EFMO= -1360.688955141, DD= 0.053570097, DE=-0.371828193


 RHF      monomer      2 corr= NONE       , L1=   341, L0=   320 ID=      6


 AO spaces for     2     0     0 n-mer: L1=   341, L0=   320

 DIRECT SCF CALCULATION, SCHWRZ=T   FDIFF=T,  DIRTHR=  0.00E+00 NITDIR=10

                                                                                   NONZERO     BLOCKS
 ITER EX DEM     TOTAL ENERGY        E CHANGE  DENSITY CHANGE     ORB. GRAD      INTEGRALS    SKIPPED
   1  0  0    -1329.3632947503 -1329.3632947503   0.052248190   0.000000000      647899909   10606632
          ---------------START SECOND ORDER SCF---------------
   2  1  0    -1329.3901389117    -0.0268441614   0.029205472   0.004109021      625803705   11258629
   3  2  0    -1329.3922642679    -0.0021253563   0.008943983   0.003064045      607029700   11554477
   4  3  0    -1329.3928435459    -0.0005792780   0.002974332   0.000732901      582805464   11849423
   5  4  0    -1329.3928067771     0.0000367688   0.001034498   0.000369634      560952093   12079519
   6  5  0    -1329.3928143948    -0.0000076177   0.000301717   0.000078203      534016519   12356830
   7  6  0    -1329.3928267034    -0.0000123086   0.000107504   0.000050807      507731273   12595495
   8  7  0    -1329.3928293613    -0.0000026580   0.000037137   0.000019711      484701498   12811800
   9  8  0    -1329.3928290553     0.0000003060   0.000015941   0.000007976      448963098   13139250
  10  9  0    -1329.3928290181     0.0000000372   0.000007313   0.000002617      423733049   13364424
  11 10  0    -1329.3928290477    -0.0000000296   0.000001853   0.000000816      383750703   13735019
  12 11  0    -1329.3928290667    -0.0000000191   0.000000511   0.000000291      359532922   13937466
  13 12  0    -1329.3928290675    -0.0000000007   0.000000206   0.000000127      322576552   14255693
  14 13  0    -1329.3928290636     0.0000000039   0.000000076   0.000000036      291059542   14518547

          -----------------
          DENSITY CONVERGED
          -----------------
     TIME TO FORM FOCK OPERATORS=      35.8 SECONDS (       2.6 SEC/ITER)
     FOCK TIME ON FIRST ITERATION=       3.5, LAST ITERATION=       1.5
     TIME TO SOLVE SCF EQUATIONS=       0.5 SECONDS (       0.0 SEC/ITER)

 FINAL RHF ENERGY IS    -1329.3928290636 AFTER  14 ITERATIONS
 ...... END OF RHF CALCULATION ......
 CPU     0: STEP CPU TIME=    75.55 TOTAL CPU TIME=       1218.8 (     20.3 MIN)
 TOTAL WALL CLOCK TIME=       2429.7 SECONDS, CPU UTILIZATION IS    50.16%
 DONE PCM POT.
 CPU     0: STEP CPU TIME=     0.39 TOTAL CPU TIME=       1219.2 (     20.3 MIN)
 TOTAL WALL CLOCK TIME=       2430.5 SECONDS, CPU UTILIZATION IS    50.16%

 Iter=  2 iFrag=      2 EFMO= -1360.678643802, DD= 0.060414953, DE=-0.399607843


 RHF      monomer      3 corr= NONE       , L1=   339, L0=   318 ID=      7


 AO spaces for     3     0     0 n-mer: L1=   339, L0=   318

 DIRECT SCF CALCULATION, SCHWRZ=T   FDIFF=T,  DIRTHR=  0.00E+00 NITDIR=10

                                                                                   NONZERO     BLOCKS
 ITER EX DEM     TOTAL ENERGY        E CHANGE  DENSITY CHANGE     ORB. GRAD      INTEGRALS    SKIPPED
   1  0  0    -1342.2571827243 -1342.2571827243   0.094079792   0.000000000      678165031    9349659
          ---------------START SECOND ORDER SCF---------------
   2  1  0    -1342.2841708072    -0.0269880829   0.028454076   0.004799342      654335654    9963794
   3  2  0    -1342.2865657441    -0.0023949369   0.010973638   0.003917962      635962461   10228874
   4  3  0    -1342.2871071209    -0.0005413768   0.004469990   0.000627831      605736205   10572959
   5  4  0    -1342.2870706968     0.0000364241   0.001377871   0.000339215      586936906   10768385
   6  5  0    -1342.2870654076     0.0000052892   0.000311089   0.000118011      558936343   11047752
   7  6  0    -1342.2870790650    -0.0000136574   0.000143141   0.000064290      532126979   11294495
   8  7  0    -1342.2870804176    -0.0000013526   0.000038948   0.000029128      508499987   11502606
   9  8  0    -1342.2870797413     0.0000006764   0.000019193   0.000004909      472343919   11833689
  10  9  0    -1342.2870793231     0.0000004182   0.000005480   0.000001437      444204778   12057877
  11 10  0    -1342.2870793689    -0.0000000458   0.000002230   0.000000596      398696399   12458016
  12 11  0    -1342.2870794040    -0.0000000352   0.000000589   0.000000257      369431127   12710914
  13 12  0    -1342.2870793995     0.0000000045   0.000000239   0.000000071      331413091   13023769
  14 13  0    -1342.2870793978     0.0000000018   0.000000146   0.000000036      298440156   13295007

          -----------------
          DENSITY CONVERGED
          -----------------
     TIME TO FORM FOCK OPERATORS=      36.3 SECONDS (       2.6 SEC/ITER)
     FOCK TIME ON FIRST ITERATION=       3.7, LAST ITERATION=       1.5
     TIME TO SOLVE SCF EQUATIONS=       0.5 SECONDS (       0.0 SEC/ITER)

 FINAL RHF ENERGY IS    -1342.2870793978 AFTER  14 ITERATIONS
 ...... END OF RHF CALCULATION ......
 CPU     0: STEP CPU TIME=    81.42 TOTAL CPU TIME=       1300.6 (     21.7 MIN)
 TOTAL WALL CLOCK TIME=       2588.9 SECONDS, CPU UTILIZATION IS    50.24%
 DONE PCM POT.
 CPU     0: STEP CPU TIME=     0.37 TOTAL CPU TIME=       1301.0 (     21.7 MIN)
 TOTAL WALL CLOCK TIME=       2589.7 SECONDS, CPU UTILIZATION IS    50.24%

 Iter=  2 iFrag=      3 EFMO= -1380.487671423, DD= 0.109203605, DE=-0.414581047


 RHF      monomer      8 corr= NONE       , L1=   264, L0=   248 ID=      8


 AO spaces for     8     0     0 n-mer: L1=   264, L0=   248

 DIRECT SCF CALCULATION, SCHWRZ=T   FDIFF=T,  DIRTHR=  0.00E+00 NITDIR=10

                                                                                   NONZERO     BLOCKS
 ITER EX DEM     TOTAL ENERGY        E CHANGE  DENSITY CHANGE     ORB. GRAD      INTEGRALS    SKIPPED
   1  0  0     -767.1525529743  -767.1525529743   0.034784192   0.000000000      326818759    3949242
          ---------------START SECOND ORDER SCF---------------
   2  1  0     -767.1622197591    -0.0096667848   0.011525794   0.002586596      317311156    4296854
   3  2  0     -767.1631024866    -0.0008827275   0.007420139   0.004287303      309250776    4457292
   4  3  0     -767.1630710702     0.0000314165   0.002849937   0.000672811      301742626    4581591
   5  4  0     -767.1629673422     0.0001037280   0.000949949   0.000282145      292131714    4720559
   6  5  0     -767.1629896433    -0.0000223011   0.000366545   0.000096052      280609965    4870050
   7  6  0     -767.1630123657    -0.0000227224   0.000078723   0.000033439      272148021    4978417
   8  7  0     -767.1630118999     0.0000004657   0.000031306   0.000019875      256629415    5166747
   9  8  0     -767.1630113838     0.0000005161   0.000011197   0.000005806      246479047    5286779
  10  9  0     -767.1630113435     0.0000000403   0.000004820   0.000001816      230066873    5475546
  11 10  0     -767.1630113861    -0.0000000426   0.000002298   0.000000788      215906935    5648869
  12 11  0     -767.1630113917    -0.0000000056   0.000000427   0.000000244      201912171    5794858
  13 12  0     -767.1630113738     0.0000000179   0.000000219   0.000000048      182275923    6016665
  14 13  0     -767.1630113663     0.0000000075   0.000000103   0.000000023      171497133    6125020
  15 14  0     -767.1630113653     0.0000000010   0.000000000   0.000000007      147244046    6374871

          -----------------
          DENSITY CONVERGED
          -----------------
     TIME TO FORM FOCK OPERATORS=      19.3 SECONDS (       1.3 SEC/ITER)
     FOCK TIME ON FIRST ITERATION=       2.1, LAST ITERATION=       0.9
     TIME TO SOLVE SCF EQUATIONS=       0.3 SECONDS (       0.0 SEC/ITER)

 FINAL RHF ENERGY IS     -767.1630113653 AFTER  15 ITERATIONS
 ...... END OF RHF CALCULATION ......
 CPU     0: STEP CPU TIME=    41.56 TOTAL CPU TIME=       1342.6 (     22.4 MIN)
 TOTAL WALL CLOCK TIME=       2671.6 SECONDS, CPU UTILIZATION IS    50.25%
 DONE PCM POT.
 CPU     0: STEP CPU TIME=     0.27 TOTAL CPU TIME=       1342.8 (     22.4 MIN)
 TOTAL WALL CLOCK TIME=       2672.1 SECONDS, CPU UTILIZATION IS    50.25%

 Iter=  2 iFrag=      8 EFMO=  -795.832231379, DD= 0.048388483, DE=-0.010030332

 CPU     0: STEP CPU TIME=     0.00 TOTAL CPU TIME=       1342.8 (     22.4 MIN)
 TOTAL WALL CLOCK TIME=       2672.1 SECONDS, CPU UTILIZATION IS    50.25%

  Monomer SCF synchronisation on iteration   2.1 took     0.0 s.
 CPU     0: STEP CPU TIME=     0.00 TOTAL CPU TIME=       1342.8 (     22.4 MIN)
 TOTAL WALL CLOCK TIME=       2672.1 SECONDS, CPU UTILIZATION IS    50.25%
 dmexch needs              2967020  words of memory.
 CPU     0: STEP CPU TIME=     0.01 TOTAL CPU TIME=       1342.8 (     22.4 MIN)
 TOTAL WALL CLOCK TIME=       2672.2 SECONDS, CPU UTILIZATION IS    50.25%

 Data exchange of    982767 words took     0.0 s.

 Calculating apparent surface charges...
     Using       40466 words of memory.
 ASC ITERATION=   1 CONVERGED TO  0.964596E-02
 ASC ITERATION=   2 CONVERGED TO  0.975461E-01
 ASC ITERATION=   3 CONVERGED TO  0.119849E+00
 ASC ITERATION=   4 CONVERGED TO  0.963777E-02
 ASC ITERATION=   5 CONVERGED TO  0.402037E-02
 ASC ITERATION=   6 CONVERGED TO  0.271830E-02
 ASC ITERATION=   7 CONVERGED TO  0.113699E-02
 ASC ITERATION=   8 CONVERGED TO  0.669665E-03
 ASC ITERATION=   9 CONVERGED TO  0.579226E-03
 ASC ITERATION=  10 CONVERGED TO  0.181493E-03
 ASC ITERATION=  11 CONVERGED TO  0.107064E-03
 ASC ITERATION=  12 CONVERGED TO  0.404150E-04
 ASC ITERATION=  13 CONVERGED TO  0.320002E-04
 ASC ITERATION=  14 CONVERGED TO  0.139040E-04
 ASC ITERATION=  15 CONVERGED TO  0.743946E-05
 ASC ITERATION=  16 CONVERGED TO  0.412093E-05
 ASC ITERATION=  17 CONVERGED TO  0.235449E-05
 ASC ITERATION=  18 CONVERGED TO  0.141053E-05
 ASC ITERATION=  19 CONVERGED TO  0.916344E-06
 ASC ITERATION=  20 CONVERGED TO  0.557440E-06
 ASC ITERATION=  21 CONVERGED TO  0.302151E-06
 ASC ITERATION=  22 CONVERGED TO  0.181388E-06
 ASC ITERATION=  23 CONVERGED TO  0.116608E-06
 ASC ITERATION=  24 CONVERGED TO  0.635580E-07
 ASC ITERATION=  25 CONVERGED TO  0.369111E-07
 ASC ITERATION=  26 CONVERGED TO  0.227666E-07
 ASC ITERATION=  27 CONVERGED TO  0.116316E-07
 ASC ITERATION=  28 CONVERGED TO  0.655778E-08
 ASC ITERATION=  29 CONVERGED TO  0.306396E-08
 ASC ITERATION=  30 CONVERGED TO  0.166060E-08
 ASC ITERATION=  31 CONVERGED TO  0.876280E-09
 ASC ITERATION=  32 CONVERGED TO  0.437318E-09
 ASC ITERATION=  33 CONVERGED TO  0.213998E-09
 ASC ITERATION=  34 CONVERGED TO  0.103383E-09
 ASC ITERATION=  35 CONVERGED TO  0.756894E-10

 THE ASC EQUATIONS FOR PHASE=1 CONVERGED IN  35 ITERATIONS.

 PCM ASC=      6.8583702725 normalised to=      6.9107028958
 Nuclear factor=   1.0033673662, electronic factor=   1.0033904736

 CPU     0: STEP CPU TIME=     0.21 TOTAL CPU TIME=       1343.1 (     22.4 MIN)
 TOTAL WALL CLOCK TIME=       2672.5 SECONDS, CPU UTILIZATION IS    50.25%


 ------------------------------------------------------------------------------
 FMO iter  2.1,      0 fragment(s) converged, maxD 0.109203605 maxE 0.456278494
 ------------------------------------------------------------------------------

 RHF      monomer      1 corr= NONE       , L1=   403, L0=   378 ID=      1


 AO spaces for     1     0     0 n-mer: L1=   403, L0=   378

 DIRECT SCF CALCULATION, SCHWRZ=T   FDIFF=T,  DIRTHR=  0.00E+00 NITDIR=10

                                                                                   NONZERO     BLOCKS
 ITER EX DEM     TOTAL ENERGY        E CHANGE  DENSITY CHANGE     ORB. GRAD      INTEGRALS    SKIPPED
   1  0  0    -1551.7937398700 -1551.7937398700   0.010698015   0.000000000     1026867693   21793618
