‘4A4S_1_fmo_input.inp’ -> ‘/scratch/hazwong/824079/./4A4S_1_fmo_input.inp’
‘rungms’ -> ‘/scratch/hazwong/824079/./rungms’
‘gms-files.csh’ -> ‘/scratch/hazwong/824079/./gms-files.csh’
----- GAMESS execution script 'rungms' -----
This job is running on host gollum085.lsa.umich.edu
under operating system Linux at Sat Dec 7 00:01:51 EST 2019
Available scratch disk space (Kbyte units) at beginning of the job is
Filesystem     1K-blocks  Used Available Use% Mounted on
/dev/sda4      426933580 33424 426900156   1% /scratch
GAMESS temporary binary files will be written to /scratch/hazwong/824079/4A4S_1/usrc
GAMESS supplementary output files will be written to /scratch/hazwong/824079/4A4S_1/src
Copying input file 4A4S_1_fmo_input.inp to your run's scratch directory...
cp 4A4S_1_fmo_input.inp /scratch/hazwong/824079/4A4S_1/usrc/4A4S_1_fmo_input.F05
unset echo
This is a GDDI run, keeping various output files on local disks
setenv OUTPUT /scratch/hazwong/824079/4A4S_1/usrc/4A4S_1_fmo_input.F06
setenv PUNCH /scratch/hazwong/824079/4A4S_1/usrc/4A4S_1_fmo_input.F07
unset echo
 
Assuming a single but multicore node.
 
/export/apps/CentOS7/gamess/src/build//ddikick.x /export/apps/CentOS7/gamess/src/build//gamess.R3.x 4A4S_1_fmo_input -ddi 1 16 gollum085.lsa.umich.edu:cpus=16 -scr /scratch/hazwong/824079/4A4S_1/usrc

 Distributed Data Interface kickoff program.
 Initiating 16 compute processes on 1 nodes to run the following command:
 /export/apps/CentOS7/gamess/src/build//gamess.R3.x 4A4S_1_fmo_input 

          ******************************************************
          *         GAMESS VERSION = 30 SEP 2018 (R3)         *
          *             FROM IOWA STATE UNIVERSITY             *
          * M.W.SCHMIDT, K.K.BALDRIDGE, J.A.BOATZ, S.T.ELBERT, *
          *   M.S.GORDON, J.H.JENSEN, S.KOSEKI, N.MATSUNAGA,   *
          *          K.A.NGUYEN, S.J.SU, T.L.WINDUS,           *
          *       TOGETHER WITH M.DUPUIS, J.A.MONTGOMERY       *
          *         J.COMPUT.CHEM.  14, 1347-1363(1993)        *
          **************** 64 BIT LINUX VERSION ****************

  SINCE 1993, STUDENTS AND POSTDOCS WORKING AT IOWA STATE UNIVERSITY
  AND ALSO IN THEIR VARIOUS JOBS AFTER LEAVING ISU HAVE MADE IMPORTANT
  CONTRIBUTIONS TO THE CODE:
     IVANA ADAMOVIC, CHRISTINE AIKENS, YURI ALEXEEV, POOJA ARORA,
     ANDREY ASADCHEV, ROB BELL, PRADIPTA BANDYOPADHYAY, JONATHAN BENTZ,
     BRETT BODE, KURT BRORSEN, CALEB CARLIN, GALINA CHABAN, WEI CHEN,
     CHEOL HO CHOI, PAUL DAY, ALBERT DEFUSCO, NUWAN DESILVA, TIM DUDLEY,
     DMITRI FEDOROV, ALEX FINDLATER, GRAHAM FLETCHER, MARK FREITAG,
     KURT GLAESEMANN, ANASTASIA GUNINA,
     DAN KEMP, GRANT MERRILL, NORIYUKI MINEZAWA, JONATHAN MULLIN,
     TAKESHI NAGATA, SEAN NEDD, HEATHER NETZLOFF, BOSILJKA NJEGIC, RYAN OLSON,
     MIKE PAK, BUU PHAM,
     SPENCER PRUITT, LUKE ROSKOP, JIM SHOEMAKER, LYUDMILA SLIPCHENKO,
     TONY SMITH, SAROM SOK LEANG, JIE SONG, TETSUYA TAKETSUGU, SIMON WEBB,
     PENG XU, SOOHAENG YOO, FEDERICO ZAHARIEV

  ADDITIONAL CODE HAS BEEN PROVIDED BY COLLABORATORS IN OTHER GROUPS:
     IOWA STATE UNIVERSITY:
          JOE IVANIC, AARON WEST, LAIMUTIS BYTAUTAS, KLAUS RUEDENBERG
     UNIVERSITY OF TOKYO: KIMIHIKO HIRAO, TAKAHITO NAKAJIMA,
          TAKAO TSUNEDA, MUNEAKI KAMIYA, SUSUMU YANAGISAWA,
          KIYOSHI YAGI, MAHITO CHIBA, SEIKEN TOKURA, NAOAKI KAWAKAMI
     UNIVERSITY OF AARHUS: FRANK JENSEN
     UNIVERSITY OF IOWA: VISVALDAS KAIRYS, HUI LI
     NATIONAL INST. OF STANDARDS AND TECHNOLOGY: WALT STEVENS, DAVID GARMER
     UNIVERSITY OF PISA: BENEDETTA MENNUCCI, JACOPO TOMASI
     UNIVERSITY OF MEMPHIS: HENRY KURTZ, PRAKASHAN KORAMBATH
     UNIVERSITY OF ALBERTA: TOBY ZENG, MARIUSZ KLOBUKOWSKI
     UNIVERSITY OF NEW ENGLAND: MARK SPACKMAN
     MIE UNIVERSITY: HIROAKI UMEDA
     NAT. INST. OF ADVANCED INDUSTRIAL SCIENCE AND TECHNOLOGY: KAZUO KITAURA
     MICHIGAN STATE UNIVERSITY:
          KAROL KOWALSKI, MARTA WLOCH, JEFFREY GOUR, JESSE LUTZ,
          WEI LI, JUN SHEN, J. EMILIANO DEUSTUA, PIOTR PIECUCH
     UNIVERSITY OF MINNESOTA:
          YINAN SHU
     UNIVERSITY OF SILESIA: MONIKA MUSIAL, STANISLAW KUCHARSKI
     FACULTES UNIVERSITAIRES NOTRE-DAME DE LA PAIX:
          OLIVIER QUINET, BENOIT CHAMPAGNE
     UNIVERSITY OF CALIFORNIA - SANTA BARBARA: BERNARD KIRTMAN
     INSTITUTE FOR MOLECULAR SCIENCE:
          KAZUYA ISHIMURA, MICHIO KATOUDA, AND SHIGERU NAGASE
     UNIVERSITY OF NOTRE DAME: ANNA POMOGAEVA, DAN CHIPMAN
     KYUSHU UNIVERSITY:
          HARUYUKI NAKANO,
          FENG LONG GU, JACEK KORCHOWIEC, MARCIN MAKOWSKI, AND YURIKO AOKI,
          HIROTOSHI MORI AND EISAKU MIYOSHI
     PENNSYLVANIA STATE UNIVERSITY:
          TZVETELIN IORDANOV, CHET SWALINA, JONATHAN SKONE,
          SHARON HAMMES-SCHIFFER
     WASEDA UNIVERSITY:
          MASATO KOBAYASHI, TOMOKO AKAMA, TSUGUKI TOUMA,
          TAKESHI YOSHIKAWA, YASUHIRO IKABATA, JUNJI SEINO,
          YUYA NAKAJIMA, HIROMI NAKAI
     NANJING UNIVERSITY: SHUHUA LI
     UNIVERSITY OF NEBRASKA:
          PEIFENG SU, DEJUN SI, NANDUN THELLAMUREGE, YALI WANG, HUI LI
     UNIVERSITY OF ZURICH: ROBERTO PEVERATI, KIM BALDRIDGE
     N. COPERNICUS UNIVERSITY AND JACKSON STATE UNIVERSITY:
          MARIA BARYSZ
     UNIVERSITY OF COPENHAGEN: Jimmy Kromann, CASPER STEINMANN
     TOKYO INSTITUTE OF TECHNOLOGY: HIROYA NAKATA
     NAGOYA UNIVERSITY: YOSHIO NISHIMOTO, STEPHAN IRLE
     MOSCOW STATE UNIVERSITY: VLADIMIR MIRONOV


 PARALLEL VERSION RUNNING ON       16 PROCESSORS IN        1 NODES.

 EXECUTION OF GAMESS BEGUN Sat Dec  7 00:01:51 2019

            ECHO OF THE FIRST FEW INPUT CARDS -
 INPUT CARD>!*** FMO 5.3 (Gamess) INPUT generated by Facio 22.1.1.32 ***                    
 INPUT CARD> $CONTRL RUNTYP=ENERGY NPRINT=-5 ISPHER=1 MAXIT=200 $END                        
 INPUT CARD> $SYSTEM MWORDS=63 MEMDDI=63 $END                                               
 INPUT CARD> $GDDI NGROUP=1 $END                                                            
 INPUT CARD> $SCF DIRSCF=.TRUE. NPUNCH=0 $END                                               
 INPUT CARD>!*** NumCPU : 2  MemPerNode : 512MB                                             
 INPUT CARD> $PCM SOLVNT=WATER IEF=-10 ICOMP=2 ICAV=1 IDISP=1 IFMO=-1 $END                  
 INPUT CARD> $PCMCAV RADII=SUAHF $END                                                       
 INPUT CARD> $TESCAV NTSALL=60 $END                                                         
 INPUT CARD> $FMOPRP                                                                        
 INPUT CARD>    NAODIR=200                                                                  
 INPUT CARD>    NGRFMO(1)=1, 1, 0, 0, 0,   0, 0, 0, 0, 0                                    
 INPUT CARD>    IPIEDA=1                                                                    
 INPUT CARD>    NPRINT=9                                                                    
 INPUT CARD> $END                                                                           
 INPUT CARD> $FMO                                                                           
 INPUT CARD>      SCFTYP(1)=RHF                                                             
 INPUT CARD>      MODGRD=10                                                                 
 INPUT CARD>      MODMUL=0                                                                  
 INPUT CARD>      MAXCAO=5                                                                  
 INPUT CARD>      MAXBND=10                                                                 
 INPUT CARD>      NLAYER=1                                                                  
 INPUT CARD>      MPLEVL(1)=2                                                               
 INPUT CARD>      NFRAG=8                                                                   
 INPUT CARD>      ICHARG(1)=-1, -1, -1, -1, -1, -1, -1, 0                                   
 INPUT CARD>      FRGNAM(1)=F1, F2, F3, F4, F5, F6, F7, F8                                  
 INPUT CARD>      indat(1)=0                                                                
 INPUT CARD>               1   -36   0                                                      
 INPUT CARD>               37   -67   0                                                     
 INPUT CARD>               68   -97   0                                                     
 INPUT CARD>               98   -128   0                                                    
 INPUT CARD>               129   -161   0                                                   
 INPUT CARD>               162   -192   0                                                   
 INPUT CARD>               193   -226   0                                                   
 INPUT CARD>               227   -254   0                                                   
 INPUT CARD> $END                                                                           
 INPUT CARD>                                                                                
 INPUT CARD> $FMOBND                                                                        
 INPUT CARD>   -37   36       6-31G*    MINI                                                
 INPUT CARD>   -68   67       6-31G*    MINI                                                
 INPUT CARD>   -98   97       6-31G*    MINI                                                
 INPUT CARD>   -129   128       6-31G*    MINI                                              
 INPUT CARD>   -162   161       6-31G*    MINI                                              
 INPUT CARD>   -193   192       6-31G*    MINI                                              
 INPUT CARD>   -227   226       6-31G*    MINI                                              
 INPUT CARD> $END                                                                           
 INPUT CARD> $FMOHYB                                                                        
 INPUT CARD> 6-31G*      15   5                                                             
 INPUT CARD>   1 0  -0.065034   0.288264   0.000000   0.000000   0.604412                   
 INPUT CARD>         0.290129   0.000000   0.000000   0.319045  -0.017106                   


 -------------------------------------------------------------
 GROUP DDI, PROGRAMMED BY: RYAN M. OLSON AND DMITRI G. FEDOROV
        FEDOROV ET AL., J. COMPUT. CHEM., 25 (2004) 872.
 -------------------------------------------------------------

 -------------------------------------------------------
 GDDI: INITIALIZATION COMPLETED FOR GROUP     1 OF     1
 WITH    16 PROCESSES BALTYP=DLB   global rank=        0
 -------------------------------------------------------

   63000000 WORDS OF MEMORY AVAILABLE


     RUN TITLE
     ---------
  FMO calculation                                                                

 THE POINT GROUP OF THE MOLECULE IS C1      
 THE ORDER OF THE PRINCIPAL AXIS IS     0

 ATOM   ATOMIC CHARGE
 H.1-1       1.0
 O.1-1       8.0
 C.1-1       6.0
 N.1-1       7.0
 P.1-1      15.0

     ATOMIC BASIS SET LIBRARY
     ----------------
 THE CONTRACTED PRIMITIVE FUNCTIONS HAVE BEEN UNNORMALIZED
 THE CONTRACTED BASIS FUNCTIONS ARE NOW NORMALIZED TO UNITY

  SHELL TYPE  PRIMITIVE        EXPONENT          CONTRACTION COEFFICIENT(S)

 H.1-1     

      1   S       1            18.7311370    0.033494604338
      1   S       2             2.8253944    0.234726953484
      1   S       3             0.6401217    0.813757326146

      2   S       4             0.1612778    1.000000000000

 O.1-1     

      3   S       5          5484.6716600    0.001831074430
      3   S       6           825.2349460    0.013950172200
      3   S       7           188.0469580    0.068445078098
      3   S       8            52.9645000    0.232714335992
      3   S       9            16.8975704    0.470192897984
      3   S      10             5.7996353    0.358520852987

      4   L      11            15.5396162   -0.110777549525    0.070874268231
      4   L      12             3.5999336   -0.148026262701    0.339752839147
      4   L      13             1.0137618    1.130767015354    0.727158577316

      5   L      14             0.2700058    1.000000000000    1.000000000000

      6   D      15             0.8000000    1.000000000000

 C.1-1     

      7   S      16          3047.5248800    0.001834737132
      7   S      17           457.3695180    0.014037322813
      7   S      18           103.9486850    0.068842622264
      7   S      19            29.2101553    0.232184443216
      7   S      20             9.2866630    0.467941348435
      7   S      21             3.1639270    0.362311985337

      8   L      22             7.8682723   -0.119332419775    0.068999066591
      8   L      23             1.8812885   -0.160854151696    0.316423960957
      8   L      24             0.5442493    1.143456437840    0.744308290898

      9   L      25             0.1687145    1.000000000000    1.000000000000

     10   D      26             0.8000000    1.000000000000

 N.1-1     

     11   S      27          4173.5114600    0.001834772160
     11   S      28           627.4579110    0.013994627002
     11   S      29           142.9020930    0.068586551812
     11   S      30            40.2343293    0.232240873040
     11   S      31            12.8202129    0.469069948082
     11   S      32             4.3904370    0.360455199063

     12   L      33            11.6263619   -0.114961181702    0.067579743878
     12   L      34             2.7162798   -0.169117478561    0.323907295893
     12   L      35             0.7722184    1.145851947027    0.740895139755

     13   L      36             0.2120315    1.000000000000    1.000000000000

     14   D      37             0.8000000    1.000000000000

 P.1-1     

     15   S      38         19413.3000000    0.001851598923
     15   S      39          2909.4200000    0.014206191735
     15   S      40           661.3640000    0.069999459277
     15   S      41           185.7590000    0.240078860331
     15   S      42            59.1943000    0.484761717984
     15   S      43            20.0310000    0.335199804993

     16   L      44           339.4780000   -0.002782170105    0.004564616191
     16   L      45            81.0101000   -0.036049901354    0.033693571881
     16   L      46            25.8780000   -0.116631004382    0.139754883368
     16   L      47             9.4522100    0.096832803638    0.339361716786
     16   L      48             3.6656600    0.614418023082    0.450920623685
     16   L      49             1.4674600    0.403798015170    0.238585800889

     17   L      50             2.1562300   -0.252924113863   -0.017765312733
     17   L      51             0.7489970    0.032851844678    0.274058196433
     17   L      52             0.2831450    1.081254761783    0.785421562957

     18   L      53             0.0998317    1.000000000000    1.000000000000

     19   D      54             0.5500000    1.000000000000

 TOTAL NUMBER OF BASIS SET SHELLS             =   19
 NUMBER OF CARTESIAN GAUSSIAN BASIS FUNCTIONS =   66

     $CONTRL OPTIONS
     ---------------
 SCFTYP=RHF          RUNTYP=ENERGY       EXETYP=RUN     
 MPLEVL=       0     CITYP =NONE         CCTYP =NONE         VBTYP =NONE    
 DFTTYP=NONE         TDDFT =NONE    
 MULT  =       1     ICHARG=       0     NZVAR =       0     COORD =UNIQUE  
 PP    =NONE         RELWFN=NONE         LOCAL =NONE         NUMGRD=       F
 ISPHER=       1     NOSYM =       0     MAXIT =     200     UNITS =ANGS    
 PLTORB=       F     MOLPLT=       F     AIMPAC=       F     FRIEND=        
 NPRINT=      -5     IREST =       0     GEOM  =INPUT   
 NORMF =       0     NORMP =       0     ITOL  =      24     ICUT  =      12
 INTTYP=BEST         GRDTYP=BEST         QMTTOL= 1.0E-06

     $SYSTEM OPTIONS
     ---------------
  REPLICATED MEMORY=    63000000 WORDS (ON EVERY NODE).
 DISTRIBUTED MEMDDI=          63 MILLION WORDS IN AGGREGATE,
 MEMDDI DISTRIBUTED OVER  16 PROCESSORS IS     3937500 WORDS/PROCESSOR.
 TOTAL MEMORY REQUESTED ON EACH PROCESSOR=    66937500 WORDS.
 TIMLIM=      525600.00 MINUTES, OR     365.0 DAYS.
 PARALL= T  BALTYP=  DLB     KDIAG=    0  COREFL= F
 MXSEQ2=     300 MXSEQ3=     150  mem10=         0

 ** LOOKING UP INTERNALLY STORED DATA FOR SOLVENT=WATER    **
 OPTICAL AND PHYSICAL CONSTANTS:
 EPS= 78.390; EPSINF=  1.776; RSOLV=  1.385 A; VMOL=  18.070 ML/MOL;
 TCE= .25700E-03 1/K; STEN= 71.810 DYN/CM;  DSTEN=  0.6500; CMF=  1.2770


     -----------------------------------
     INPUT FOR PCM SOLVATION CALCULATION 
     -----------------------------------
     IEF   =     -10
     ICOMP =       2     IFIELD=       0     ICAV  =       1
     IDISP =       1     IREP  =       0     IDP   =       0

     SOLVNT=WATER        EPS   = 78.3900     EPSINF=  1.7760
     VMOL  = 18.0700     TCE   =  0.00025700 STEN  = 71.8100
     DSTEN =  0.6500     CMF   =  1.2770     RSOLV =  1.3850

     NESFP =       0
     OMEGA = 40.0000     RET   =100.0000     FRO   =  0.7000

     TABS  =298.0000     IPRINT=       0

     --------------------------------
     INPUT FOR ITERATIVE C-PCM METHOD 
     --------------------------------
     IPCMIT  =         1     MXDIIS  =        50
     MXITR1  =       200     MXITR2  =       200
     THRES   = 0.100E-09     IMUL    =         3
     RCUT(1) =   20.0000     RCUT(2) =   50.0000

     IDIRCT  =         1
     IMGABI  =         0     RABI    =    4.0000
     IMGASC  =         0     RASC    =   20.0000
     THRSLS  = 0.500E-03     DENSLS  =    0.0100
     IEFPOL  =         1     REFPOL  =    0.0000

     INPUT FOR ISOTROPIC DIELECTRICS
     -------------------------------
     EPS=    78.39

          ----------------
          PROPERTIES INPUT
          ----------------

     MOMENTS            FIELD           POTENTIAL          DENSITY
 IEMOM =       1   IEFLD =       0   IEPOT =       0   IEDEN =       0
 WHERE =COMASS     WHERE =NUCLEI     WHERE =NUCLEI     WHERE =NUCLEI  
 OUTPUT=BOTH       OUTPUT=BOTH       OUTPUT=NONE       OUTPUT=BOTH    
 IEMINT=       0   IEFINT=       0                     IEDINT=       0
                                                       MORB  =       0
          EXTRAPOLATION IN EFFECT
          SOSCF IN EFFECT
 ORBITAL PRINTING OPTION: NPREO=     1 32767     2     1

     -------------------------------
     INTEGRAL TRANSFORMATION OPTIONS
     -------------------------------
     NWORD  =            0
     CUTOFF = 1.0E-10     MPTRAN =       0
     DIRTRF =       T     AOINTS =DUP     

          ----------------------
          INTEGRAL INPUT OPTIONS
          ----------------------
 NOPK  =       1 NORDER=       0 SCHWRZ=       T

 ..... DONE SETTING UP THE RUN .....
 CPU     0: STEP CPU TIME=     0.04 TOTAL CPU TIME=          0.0 (      0.0 MIN)
 TOTAL WALL CLOCK TIME=          0.1 SECONDS, CPU UTILIZATION IS    57.14%
 CPU     0: STEP CPU TIME=     0.00 TOTAL CPU TIME=          0.0 (      0.0 MIN)
 TOTAL WALL CLOCK TIME=          0.1 SECONDS, CPU UTILIZATION IS    57.14%

                    ----------------------
                    AO INTEGRAL TECHNOLOGY
                    ----------------------
     S,P,L SHELL ROTATED AXIS INTEGRALS, REPROGRAMMED BY
        KAZUYA ISHIMURA (IMS) AND JOSE SIERRA (SYNSTAR).
     S,P,D,L SHELL ROTATED AXIS INTEGRALS PROGRAMMED BY
        KAZUYA ISHIMURA (INSTITUTE FOR MOLECULAR SCIENCE).
     S,P,D,F,G SHELL TO TOTAL QUARTET ANGULAR MOMENTUM SUM 5,
        ERIC PROGRAM BY GRAHAM FLETCHER (ELORET AND NASA ADVANCED
        SUPERCOMPUTING DIVISION, AMES RESEARCH CENTER).
     S,P,D,F,G,L SHELL GENERAL RYS QUADRATURE PROGRAMMED BY
        MICHEL DUPUIS (PACIFIC NORTHWEST NATIONAL LABORATORY).
 Setting modorb=1 flag...
 Setting modorb=1 flag...

          -----------------------
          MP2 CONTROL INFORMATION
          -----------------------
          NACORE =        8  NBCORE =        8
          LMOMP2 =        F  AOINTS = DUP     
          METHOD =        2  NWORD  =               0
          MP2PRP =        F  OSPT   = NONE    
          CUTOFF = 1.00E-12  CPHFBS = BASISAO 
          CODE   = IMS     

          NUMBER OF CORE -A-  ORBITALS =     8
          NUMBER OF CORE -B-  ORBITALS =     8
          NUMBER OF OCC. -A-  ORBITALS =    18
          NUMBER OF OCC. -B-  ORBITALS =    18
          NUMBER OF MOLECULAR ORBITALS =    66
          NUMBER OF   BASIS  FUNCTIONS =    66

 CPU     0: STEP CPU TIME=     0.02 TOTAL CPU TIME=          0.1 (      0.0 MIN)
 TOTAL WALL CLOCK TIME=          0.1 SECONDS, CPU UTILIZATION IS    60.00%
 CPU     0: STEP CPU TIME=     0.00 TOTAL CPU TIME=          0.1 (      0.0 MIN)
 TOTAL WALL CLOCK TIME=          0.1 SECONDS, CPU UTILIZATION IS    60.00%

     INPUT FOR CAVITY DEFINITION 
     ---------------------------
   ATOM               COORDINATES                RADIUS       EPS
      1     -4.6080     -5.5440      9.7540      0.0100     78.3900
      2     -5.0160     -4.6880      9.9790      1.5900     78.3900
      3     -5.1540     -4.6600     11.4080      1.7700     78.3900
      4     -4.1470     -4.7390     11.8770      0.0100     78.3900
      5     -5.7490     -5.5420     11.7360      0.0100     78.3900
      6     -5.8390     -3.3890     11.9190      1.7700     78.3900
      7     -5.9170     -3.4030     13.0260      0.0100     78.3900
      8     -5.0700     -2.2060     11.5460      1.5900     78.3900
      9     -5.9680     -1.1640     11.1900      1.7700     78.3900
     10     -5.7160     -0.2900     11.8350      0.0100     78.3900
     11     -5.8070     -0.7680      9.7860      1.6800     78.3900
     12     -6.2370      0.4020      9.2210      1.7700     78.3900
     13     -7.8380      3.4560      9.4950      1.6800     78.3900
     14     -8.1300      3.4710     10.4500      0.0100     78.3900
     15     -8.0540      4.2410      8.9070      0.0100     78.3900
     16     -6.9040      1.3850      9.8540      1.6800     78.3900
     17     -7.1700      2.4110      9.0510      1.7700     78.3900
     18     -6.7640      2.4670      7.7430      1.6800     78.3900
     19     -7.0050      3.2860      7.2060      0.0100     78.3900
     20     -6.0570      1.4800      7.0690      1.7700     78.3900
     21     -5.7300      1.6170      5.8850      1.5900     78.3900
     22     -5.8140      0.3560      7.9050      1.7700     78.3900
     23     -5.1670     -0.8450      7.6350      1.6800     78.3900
     24     -5.1830     -1.4800      8.7860      1.7700     78.3900
     25     -4.7480     -2.4650      8.9750      0.0100     78.3900
     26     -7.3710     -1.6350     11.5090      1.7700     78.3900
     27     -8.1270     -1.2190     10.8140      0.0100     78.3900
     28     -7.7040     -1.2830     12.8410      1.5900     78.3900
     29     -8.5580     -1.6900     13.0310      0.0100     78.3900
     30     -7.2360     -3.1430     11.3330      1.7700     78.3900
     31     -7.1700     -3.3970     10.2480      0.0100     78.3900
     32     -8.2160     -3.9380     12.0430      1.5900     78.3900
     33     -9.5320     -4.3650     11.2860      2.1000     78.3900
     34     -9.1690     -4.9210      9.9690      1.5900     78.3900
     35    -10.3440     -5.2300     12.1680      1.5900     78.3900
     36    -10.2830     -3.0020     11.0660      1.5900     78.3900
     37    -10.8980     -2.3270     12.1900      1.7700     78.3900
     38    -10.1550     -2.1180     12.9920      0.0100     78.3900
     39    -11.6990     -2.9610     12.6370      0.0100     78.3900
     40    -11.5260     -0.9900     11.7730      1.7700     78.3900
     41    -11.9690     -0.4700     12.6510      0.0100     78.3900
     42    -10.5010     -0.1160     11.2240      1.5900     78.3900
     43    -11.0570      0.6590     10.1680      1.7700     78.3900
     44    -10.9270      1.7210     10.4780      0.0100     78.3900
     45    -10.3660      0.4530      8.8670      1.6800     78.3900
     46     -9.6240     -0.6850      8.6580      1.7700     78.3900
     47     -9.6090     -1.4010      9.4810      0.0100     78.3900
     48     -8.9540     -0.8810      7.5160      1.7700     78.3900
     49     -8.3370     -1.7600      7.3460      0.0100     78.3900
     50    -10.4850      1.3970      7.8490      1.7700     78.3900
     51    -11.1790      2.4070      8.0340      1.5900     78.3900
     52     -9.8270      1.2070      6.6820      1.6800     78.3900
     53     -9.0670      0.1140      6.5040      1.7700     78.3900
     54     -8.4140     -0.0300      5.3540      1.6800     78.3900
     55     -8.5160      0.6680      4.6410      0.0100     78.3900
     56     -7.8190     -0.8120      5.1750      0.0100     78.3900
     57    -12.5380      0.3450     10.1000      1.7700     78.3900
     58    -12.9300      0.3740      9.0620      0.0100     78.3900
     59    -13.2570      1.2540     10.9130      1.5900     78.3900
     60    -14.1350      0.8740     11.0680      0.0100     78.3900
     61    -12.5890     -1.0680     10.6690      1.7700     78.3900
     62    -12.2100     -1.8030      9.9200      0.0100     78.3900
     63    -13.8690     -1.4360     11.2340      1.5900     78.3900
     64    -14.9010     -2.2150     10.3290      2.1000     78.3900
     65    -14.3280     -3.5440     10.0200      1.5900     78.3900
     66    -16.2060     -2.2080     11.0310      1.5900     78.3900
     67    -15.0000     -1.3880      8.9990      1.5900     78.3900
     68    -15.7660     -0.1720      8.8790      1.7700     78.3900
     69    -15.3470      0.6330      9.5220      0.0100     78.3900
     70    -16.8250     -0.3390      9.1810      0.0100     78.3900
     71    -15.7460      0.3470      7.4360      1.7700     78.3900
     72    -16.3730      1.2600      7.3380      0.0100     78.3900
     73    -14.3900      0.7260      7.0610      1.5900     78.3900
     74    -14.1820      0.4280      5.6940      1.7700     78.3900
     75    -13.9120      1.4040      5.2360      0.0100     78.3900
     76    -13.0750     -0.5460      5.5030      1.6800     78.3900
     77    -12.7870     -1.4640      6.4830      1.7700     78.3900
     78    -13.4100     -1.4040      7.3730      0.0100     78.3900
     79    -12.3130     -0.4730      4.3590      1.7700     78.3900
     80    -12.5270      0.3550      3.4780      1.5900     78.3900
     81    -11.2880     -1.3840      4.2830      1.6800     78.3900
     82    -10.7300     -1.3500      3.4400      0.0100     78.3900
     83    -10.9300     -2.3150      5.2370      1.7700     78.3900
     84     -9.9480     -3.0360      5.0710      1.5900     78.3900
     85    -11.7600     -2.3170      6.4020      1.7700     78.3900
     86    -11.5160     -2.9930      7.2170      0.0100     78.3900
     87    -15.5120     -0.0470      5.1260      1.7700     78.3900
     88    -15.4030     -0.8020      4.3180      0.0100     78.3900
     89    -16.2240      1.0820      4.6600      1.5900     78.3900
     90    -16.2370      1.0690      3.6810      0.0100     78.3900
     91    -16.1820     -0.6440      6.3570      1.7700     78.3900
     92    -15.7130     -1.6160      6.6220      0.0100     78.3900
     93    -17.6230     -0.6980      6.2960      1.5900     78.3900
     94    -18.3490     -2.0470      5.9580      2.1000     78.3900
     95    -17.7070     -3.1340      6.7320      1.5900     78.3900
     96    -19.8030     -1.8600      6.1540      1.5900     78.3900
     97    -18.0720     -2.3170      4.4310      1.5900     78.3900
     98    -18.5140     -3.5750      3.8490      1.7700     78.3900
     99    -19.1570     -4.1870      4.5440      0.0100     78.3900
    100    -17.6180     -4.1970      3.6270      0.0100     78.3900
    101    -19.2640     -3.3600      2.5200      1.7700     78.3900
    102    -19.5990     -4.3330      2.0990      0.0100     78.3900
    103    -20.4560     -2.5470      2.7430      1.5900     78.3900
    104    -20.6650     -1.6950      1.6180      1.7700     78.3900
    105    -21.6850     -1.9480      1.2410      0.0100     78.3900
    106    -20.6300     -0.2450      1.9600      1.6800     78.3900
    107    -20.0440      0.1750      3.1330      1.7700     78.3900
    108    -19.5910     -0.6040      3.7500      0.0100     78.3900
    109    -20.0440      1.4660      3.4910      1.7700     78.3900
    110    -19.6040      1.8070      4.4270      0.0100     78.3900
    111    -21.2060      0.6930      1.1000      1.7700     78.3900
    112    -21.7470      0.3070      0.0520      1.5900     78.3900
    113    -21.2020      2.0010      1.4420      1.6800     78.3900
    114    -20.6680      2.3970      2.6090      1.7700     78.3900
    115    -20.7380      3.6850      2.9370      1.6800     78.3900
    116    -20.3280      4.0510      3.7770      0.0100     78.3900
    117    -21.1400      4.3320      2.2910      0.0100     78.3900
    118    -19.6440     -2.0670      0.5670      1.7700     78.3900
    119    -19.3200     -1.1930     -0.0300      0.0100     78.3900
    120    -20.1650     -3.0690     -0.2890      1.5900     78.3900
    121    -19.4240     -3.4400     -0.7910      0.0100     78.3900
    122    -18.5040     -2.5980      1.4180      1.7700     78.3900
    123    -17.9830     -1.7520      1.9260      0.0100     78.3900
    124    -17.6210     -3.4810      0.6920      1.5900     78.3900
    125    -16.1410     -3.0460      0.3970      2.1000     78.3900
    126    -15.5450     -2.5330      1.6430      1.5900     78.3900
    127    -15.4380     -4.1630     -0.2710      1.5900     78.3900
    128    -16.2490     -1.8500     -0.6170      1.5900     78.3900
    129    -16.8690     -1.9430     -1.9140      1.7700     78.3900
    130    -17.8240     -2.5150     -1.8700      0.0100     78.3900
    131    -16.1910     -2.4680     -2.6240      0.0100     78.3900
    132    -17.1730     -0.5470     -2.4920      1.7700     78.3900
    133    -17.5960     -0.6260     -3.5160      0.0100     78.3900
    134    -18.1870      0.1060     -1.6660      1.5900     78.3900
    135    -17.8530      1.4720     -1.4870      1.7700     78.3900
    136    -18.7470      2.0630     -1.7890      0.0100     78.3900
    137    -17.5310      1.7720     -0.0840      1.6800     78.3900
    138    -17.2680      2.7540      1.8690      1.7700     78.3900
    139    -16.7870      1.4600      2.0120      1.6800     78.3900
    140    -16.9830      0.9210      0.8440      1.7700     78.3900
    141    -16.7590     -0.1130      0.6140      0.0100     78.3900
    142    -17.8910      4.9910      2.3050      1.6800     78.3900
    143    -18.2230      5.0660      1.0140      1.7700     78.3900
    144    -18.6260      6.0370      0.6990      0.0100     78.3900
    145    -18.2180      4.1110      0.0750      1.6800     78.3900
    146    -17.7120      2.9690      0.5720      1.7700     78.3900
    147    -17.4040      3.8220      2.7830      1.7700     78.3900
    148    -17.1220      3.7260      4.0970      1.6800     78.3900
    149    -16.8130      2.8580      4.5030      0.0100     78.3900
    150    -17.1970      4.5400      4.6830      0.0100     78.3900
    151    -16.7000      1.7850     -2.4190      1.7700     78.3900
    152    -16.0150      2.5490     -1.9940      0.0100     78.3900
    153    -17.1860      2.2180     -3.6760      1.5900     78.3900
    154    -16.4100      2.3430     -4.2470      0.0100     78.3900
    155    -15.9920      0.4370     -2.5280      1.7700     78.3900
    156    -15.3920      0.2440     -1.6110      0.0100     78.3900
    157    -15.2200      0.2440     -3.7400      1.5900     78.3900
    158    -13.7900      0.9060     -3.8390      2.1000     78.3900
    159    -13.1680      0.8790     -2.4970      1.5900     78.3900
    160    -13.0450      0.2420     -4.9290      1.5900     78.3900
    161    -14.0620      2.3950     -4.2730      1.5900     78.3900
    162    -13.0380      3.4160     -4.0930      1.7700     78.3900
    163    -12.4880      3.5780     -5.0470      0.0100     78.3900
    164    -12.2820      3.1300     -3.3230      0.0100     78.3900
    165    -13.6260      4.7630     -3.6280      1.7700     78.3900
    166    -14.0740      5.3130     -4.4810      0.0100     78.3900
    167    -14.7030      4.5080     -2.6810      1.5900     78.3900
    168    -14.6350      5.4220     -1.6110      1.7700     78.3900
    169    -15.6510      5.8770     -1.5430      0.0100     78.3900
    170    -14.3000      4.7580     -0.3170      1.6800     78.3900
    171    -13.6780      3.5240     -0.2940      1.7700     78.3900
    172    -13.4590      3.0700     -1.2650      0.0100     78.3900
    173    -13.3960      2.9100      0.8630      1.7700     78.3900
    174    -12.9190      1.9310      0.9030      0.0100     78.3900
    175    -14.6120      5.4000      0.8790      1.7700     78.3900
    176    -15.1640      6.5100      0.8350      1.5900     78.3900
    177    -14.3200      4.8000      2.0550      1.6800     78.3900
    178    -13.7520      3.5820      2.0680      1.7700     78.3900
    179    -13.5340      3.0040      3.2450      1.6800     78.3900
    180    -13.8230      3.5000      4.0630      0.0100     78.3900
    181    -13.1840      2.0670      3.3150      0.0100     78.3900
    182    -13.6380      6.4910     -2.0020      1.7700     78.3900
    183    -13.1510      6.9300     -1.1200      0.0100     78.3900
    184    -14.2740      7.5210     -2.7360      1.5900     78.3900
    185    -13.5740      8.0980     -3.0800      0.0100     78.3900
    186    -12.6610      5.7000     -2.8670      1.7700     78.3900
    187    -12.0190      5.0530     -2.2260      0.0100     78.3900
    188    -11.8950      6.4970     -3.8000      1.5900     78.3900
    189    -10.5190      7.1290     -3.3540      2.1000     78.3900
    190     -9.7610      6.1010     -2.6100      1.5900     78.3900
    191     -9.8630      7.7000     -4.5500      1.5900     78.3900
    192    -10.9010      8.3280     -2.4000      1.5900     78.3900
    193    -10.0230      8.7370     -1.3140      1.7700     78.3900
    194     -9.6330      9.7590     -1.5150      0.0100     78.3900
    195     -9.1330      8.0700     -1.2000      0.0100     78.3900
    196    -10.7480      8.7570      0.0420      1.7700     78.3900
    197    -11.5050      9.5700      0.0770      0.0100     78.3900
    198    -11.4410      7.5020      0.2360      1.5900     78.3900
    199    -11.3870      7.1120      1.5870      1.7700     78.3900
    200    -12.4390      6.9660      1.9260      0.0100     78.3900
    201    -10.6550      5.8500      1.7280      1.6800     78.3900
    202    -10.5800      5.0790      2.8550      1.7700     78.3900
    203    -11.4930      4.4530      6.1340      1.6800     78.3900
    204    -12.0280      5.2600      6.3750      0.0100     78.3900
    205    -11.3640      3.7290      6.8190      0.0100     78.3900
    206    -11.1520      5.3510      4.0390      1.6800     78.3900
    207    -10.9740      4.3750      4.9230      1.7700     78.3900
    208    -10.2460      3.2450      4.6570      1.6800     78.3900
    209    -10.1450      2.5590      5.3890      0.0100     78.3900
    210     -9.6180      2.9490      3.4540      1.7700     78.3900
    211     -8.9710      1.9080      3.2960      1.5900     78.3900
    212     -9.8230      3.9790      2.4990      1.7700     78.3900
    213     -9.4120      4.0660      1.1770      1.6800     78.3900
    214     -9.9320      5.1930      0.7520      1.7700     78.3900
    215     -9.8310      5.6010     -0.2590      0.0100     78.3900
    216    -10.7510      8.2460      2.3510      1.7700     78.3900
    217    -10.1720      7.8950      3.2280      0.0100     78.3900
    218    -11.7520      9.1470      2.7820      1.5900     78.3900
    219    -11.3000      9.8810      3.2150      0.0100     78.3900
    220     -9.8500      8.8610      1.2820      1.7700     78.3900
    221     -8.9760      8.1960      1.0880      0.0100     78.3900
    222     -9.4850     10.2390      1.5090      1.5900     78.3900
    223     -8.0960     10.5730      2.1720      2.1000     78.3900
    224     -7.0600      9.7060      1.5710      1.5900     78.3900
    225     -7.8740     12.0340      2.1060      1.5900     78.3900
    226     -8.2940     10.1460      3.6750      1.5900     78.3900
    227     -9.2230     10.8600      4.5230      1.7700     78.3900
    228    -10.2410     10.8670      4.0860      0.0100     78.3900
    229     -8.9000     11.9190      4.6520      0.0100     78.3900
    230     -9.3340     10.2180      5.9110      1.7700     78.3900
    231    -10.0070     10.8000      6.5770      0.0100     78.3900
    232     -9.9010      8.8820      5.7900      1.5900     78.3900
    233     -9.2480      8.0130      6.7090      1.7700     78.3900
    234    -10.0590      7.5780      7.3390      0.0100     78.3900
    235     -8.5090      6.9100      6.0320      1.6800     78.3900
    236     -8.1410      7.0310      4.7120      1.7700     78.3900
    237     -8.4460      7.9490      4.2140      0.0100     78.3900
    238     -7.4830      6.0560      4.0730      1.7700     78.3900
    239     -7.2140      6.1290      3.0210      0.0100     78.3900
    240     -8.1410      5.7730      6.7440      1.7700     78.3900
    241     -8.4290      5.6940      7.9470      1.5900     78.3900
    242     -7.4780      4.7740      6.1180      1.6800     78.3900
    243     -7.1520      4.8880      4.8180      1.7700     78.3900
    244     -6.5320      3.8750      4.2180      1.6800     78.3900
    245     -6.2810      3.0640      4.7510      0.0100     78.3900
    246     -6.2540      3.9190      3.2570      0.0100     78.3900
    247     -8.3430      8.8670      7.5860      1.7700     78.3900
    248     -7.4300      8.3190      7.8960      0.0100     78.3900
    249     -9.0520      9.3130      8.7310      1.5900     78.3900
    250     -8.5080      9.9690      9.2010      0.0100     78.3900
    251     -7.9980     10.0080      6.6340      1.7700     78.3900
    252     -7.2450      9.6740      5.8880      0.0100     78.3900
    253     -7.5780     11.2230      7.2810      1.5900     78.3900
    254     -6.7310     11.0810      7.7430      0.0100     78.3900

     ----------------------------
     INPUT FOR TESSERA DEFINITION
     ----------------------------
     NTSALL  =        60     MTHALL  =         4
     MTHAUT  =         0     AUTFRE  =    2.0000
     NTSFRZ  =        60     KEEPSM  =         0
     AREAKP  =   10.0000     BONDRY  =    1.0000
     AREATL  =    0.0100

     SPHERE     INITS       METHOD
          1        60       FIXPVA
          2        60       FIXPVA
          3        60       FIXPVA
          4        60       FIXPVA
          5        60       FIXPVA
          6        60       FIXPVA
          7        60       FIXPVA
          8        60       FIXPVA
          9        60       FIXPVA
         10        60       FIXPVA
         11        60       FIXPVA
         12        60       FIXPVA
         13        60       FIXPVA
         14        60       FIXPVA
         15        60       FIXPVA
         16        60       FIXPVA
         17        60       FIXPVA
         18        60       FIXPVA
         19        60       FIXPVA
         20        60       FIXPVA
         21        60       FIXPVA
         22        60       FIXPVA
         23        60       FIXPVA
         24        60       FIXPVA
         25        60       FIXPVA
         26        60       FIXPVA
         27        60       FIXPVA
         28        60       FIXPVA
         29        60       FIXPVA
         30        60       FIXPVA
         31        60       FIXPVA
         32        60       FIXPVA
         33        60       FIXPVA
         34        60       FIXPVA
         35        60       FIXPVA
         36        60       FIXPVA
         37        60       FIXPVA
         38        60       FIXPVA
         39        60       FIXPVA
         40        60       FIXPVA
         41        60       FIXPVA
         42        60       FIXPVA
         43        60       FIXPVA
         44        60       FIXPVA
         45        60       FIXPVA
         46        60       FIXPVA
         47        60       FIXPVA
         48        60       FIXPVA
         49        60       FIXPVA
         50        60       FIXPVA
         51        60       FIXPVA
         52        60       FIXPVA
         53        60       FIXPVA
         54        60       FIXPVA
         55        60       FIXPVA
         56        60       FIXPVA
         57        60       FIXPVA
         58        60       FIXPVA
         59        60       FIXPVA
         60        60       FIXPVA
         61        60       FIXPVA
         62        60       FIXPVA
         63        60       FIXPVA
         64        60       FIXPVA
         65        60       FIXPVA
         66        60       FIXPVA
         67        60       FIXPVA
         68        60       FIXPVA
         69        60       FIXPVA
         70        60       FIXPVA
         71        60       FIXPVA
         72        60       FIXPVA
         73        60       FIXPVA
         74        60       FIXPVA
         75        60       FIXPVA
         76        60       FIXPVA
         77        60       FIXPVA
         78        60       FIXPVA
         79        60       FIXPVA
         80        60       FIXPVA
         81        60       FIXPVA
         82        60       FIXPVA
         83        60       FIXPVA
         84        60       FIXPVA
         85        60       FIXPVA
         86        60       FIXPVA
         87        60       FIXPVA
         88        60       FIXPVA
         89        60       FIXPVA
         90        60       FIXPVA
         91        60       FIXPVA
         92        60       FIXPVA
         93        60       FIXPVA
         94        60       FIXPVA
         95        60       FIXPVA
         96        60       FIXPVA
         97        60       FIXPVA
         98        60       FIXPVA
         99        60       FIXPVA
        100        60       FIXPVA
        101        60       FIXPVA
        102        60       FIXPVA
        103        60       FIXPVA
        104        60       FIXPVA
        105        60       FIXPVA
        106        60       FIXPVA
        107        60       FIXPVA
        108        60       FIXPVA
        109        60       FIXPVA
        110        60       FIXPVA
        111        60       FIXPVA
        112        60       FIXPVA
        113        60       FIXPVA
        114        60       FIXPVA
        115        60       FIXPVA
        116        60       FIXPVA
        117        60       FIXPVA
        118        60       FIXPVA
        119        60       FIXPVA
        120        60       FIXPVA
        121        60       FIXPVA
        122        60       FIXPVA
        123        60       FIXPVA
        124        60       FIXPVA
        125        60       FIXPVA
        126        60       FIXPVA
        127        60       FIXPVA
        128        60       FIXPVA
        129        60       FIXPVA
        130        60       FIXPVA
        131        60       FIXPVA
        132        60       FIXPVA
        133        60       FIXPVA
        134        60       FIXPVA
        135        60       FIXPVA
        136        60       FIXPVA
        137        60       FIXPVA
        138        60       FIXPVA
        139        60       FIXPVA
        140        60       FIXPVA
        141        60       FIXPVA
        142        60       FIXPVA
        143        60       FIXPVA
        144        60       FIXPVA
        145        60       FIXPVA
        146        60       FIXPVA
        147        60       FIXPVA
        148        60       FIXPVA
        149        60       FIXPVA
        150        60       FIXPVA
        151        60       FIXPVA
        152        60       FIXPVA
        153        60       FIXPVA
        154        60       FIXPVA
        155        60       FIXPVA
        156        60       FIXPVA
        157        60       FIXPVA
        158        60       FIXPVA
        159        60       FIXPVA
        160        60       FIXPVA
        161        60       FIXPVA
        162        60       FIXPVA
        163        60       FIXPVA
        164        60       FIXPVA
        165        60       FIXPVA
        166        60       FIXPVA
        167        60       FIXPVA
        168        60       FIXPVA
        169        60       FIXPVA
        170        60       FIXPVA
        171        60       FIXPVA
        172        60       FIXPVA
        173        60       FIXPVA
        174        60       FIXPVA
        175        60       FIXPVA
        176        60       FIXPVA
        177        60       FIXPVA
        178        60       FIXPVA
        179        60       FIXPVA
        180        60       FIXPVA
        181        60       FIXPVA
        182        60       FIXPVA
        183        60       FIXPVA
        184        60       FIXPVA
        185        60       FIXPVA
        186        60       FIXPVA
        187        60       FIXPVA
        188        60       FIXPVA
        189        60       FIXPVA
        190        60       FIXPVA
        191        60       FIXPVA
        192        60       FIXPVA
        193        60       FIXPVA
        194        60       FIXPVA
        195        60       FIXPVA
        196        60       FIXPVA
        197        60       FIXPVA
        198        60       FIXPVA
        199        60       FIXPVA
        200        60       FIXPVA
        201        60       FIXPVA
        202        60       FIXPVA
        203        60       FIXPVA
        204        60       FIXPVA
        205        60       FIXPVA
        206        60       FIXPVA
        207        60       FIXPVA
        208        60       FIXPVA
        209        60       FIXPVA
        210        60       FIXPVA
        211        60       FIXPVA
        212        60       FIXPVA
        213        60       FIXPVA
        214        60       FIXPVA
        215        60       FIXPVA
        216        60       FIXPVA
        217        60       FIXPVA
        218        60       FIXPVA
        219        60       FIXPVA
        220        60       FIXPVA
        221        60       FIXPVA
        222        60       FIXPVA
        223        60       FIXPVA
        224        60       FIXPVA
        225        60       FIXPVA
        226        60       FIXPVA
        227        60       FIXPVA
        228        60       FIXPVA
        229        60       FIXPVA
        230        60       FIXPVA
        231        60       FIXPVA
        232        60       FIXPVA
        233        60       FIXPVA
        234        60       FIXPVA
        235        60       FIXPVA
        236        60       FIXPVA
        237        60       FIXPVA
        238        60       FIXPVA
        239        60       FIXPVA
        240        60       FIXPVA
        241        60       FIXPVA
        242        60       FIXPVA
        243        60       FIXPVA
        244        60       FIXPVA
        245        60       FIXPVA
        246        60       FIXPVA
        247        60       FIXPVA
        248        60       FIXPVA
        249        60       FIXPVA
        250        60       FIXPVA
        251        60       FIXPVA
        252        60       FIXPVA
        253        60       FIXPVA
        254        60       FIXPVA

     ------------------------------
      FIXPVA TESSELLATION FOR PCM
         PEIFENG SU AND HUI LI
     UNIVERSITY OF NEBRASKA-LINCOLN
     ------------------------------


 PCM DIMENSIONS: MXSP=   254, MXTS=     10160, MEMORY=        104397

     INPUT FOR CAVITY DEFINITION 
     ---------------------------
   ATOM               COORDINATES                RADIUS       EPS
      1     -4.6080     -5.5440      9.7540      0.0100     78.3900
      2     -5.0160     -4.6880      9.9790      1.5900     78.3900
      3     -5.1540     -4.6600     11.4080      1.7700     78.3900
      4     -4.1470     -4.7390     11.8770      0.0100     78.3900
      5     -5.7490     -5.5420     11.7360      0.0100     78.3900
      6     -5.8390     -3.3890     11.9190      1.7700     78.3900
      7     -5.9170     -3.4030     13.0260      0.0100     78.3900
      8     -5.0700     -2.2060     11.5460      1.5900     78.3900
      9     -5.9680     -1.1640     11.1900      1.7700     78.3900
     10     -5.7160     -0.2900     11.8350      0.0100     78.3900
     11     -5.8070     -0.7680      9.7860      1.6800     78.3900
     12     -6.2370      0.4020      9.2210      1.7700     78.3900
     13     -7.8380      3.4560      9.4950      1.6800     78.3900
     14     -8.1300      3.4710     10.4500      0.0100     78.3900
     15     -8.0540      4.2410      8.9070      0.0100     78.3900
     16     -6.9040      1.3850      9.8540      1.6800     78.3900
     17     -7.1700      2.4110      9.0510      1.7700     78.3900
     18     -6.7640      2.4670      7.7430      1.6800     78.3900
     19     -7.0050      3.2860      7.2060      0.0100     78.3900
     20     -6.0570      1.4800      7.0690      1.7700     78.3900
     21     -5.7300      1.6170      5.8850      1.5900     78.3900
     22     -5.8140      0.3560      7.9050      1.7700     78.3900
     23     -5.1670     -0.8450      7.6350      1.6800     78.3900
     24     -5.1830     -1.4800      8.7860      1.7700     78.3900
     25     -4.7480     -2.4650      8.9750      0.0100     78.3900
     26     -7.3710     -1.6350     11.5090      1.7700     78.3900
     27     -8.1270     -1.2190     10.8140      0.0100     78.3900
     28     -7.7040     -1.2830     12.8410      1.5900     78.3900
     29     -8.5580     -1.6900     13.0310      0.0100     78.3900
     30     -7.2360     -3.1430     11.3330      1.7700     78.3900
     31     -7.1700     -3.3970     10.2480      0.0100     78.3900
     32     -8.2160     -3.9380     12.0430      1.5900     78.3900
     33     -9.5320     -4.3650     11.2860      2.1000     78.3900
     34     -9.1690     -4.9210      9.9690      1.5900     78.3900
     35    -10.3440     -5.2300     12.1680      1.5900     78.3900
     36    -10.2830     -3.0020     11.0660      1.5900     78.3900
     37    -10.8980     -2.3270     12.1900      1.7700     78.3900
     38    -10.1550     -2.1180     12.9920      0.0100     78.3900
     39    -11.6990     -2.9610     12.6370      0.0100     78.3900
     40    -11.5260     -0.9900     11.7730      1.7700     78.3900
     41    -11.9690     -0.4700     12.6510      0.0100     78.3900
     42    -10.5010     -0.1160     11.2240      1.5900     78.3900
     43    -11.0570      0.6590     10.1680      1.7700     78.3900
     44    -10.9270      1.7210     10.4780      0.0100     78.3900
     45    -10.3660      0.4530      8.8670      1.6800     78.3900
     46     -9.6240     -0.6850      8.6580      1.7700     78.3900
     47     -9.6090     -1.4010      9.4810      0.0100     78.3900
     48     -8.9540     -0.8810      7.5160      1.7700     78.3900
     49     -8.3370     -1.7600      7.3460      0.0100     78.3900
     50    -10.4850      1.3970      7.8490      1.7700     78.3900
     51    -11.1790      2.4070      8.0340      1.5900     78.3900
     52     -9.8270      1.2070      6.6820      1.6800     78.3900
     53     -9.0670      0.1140      6.5040      1.7700     78.3900
     54     -8.4140     -0.0300      5.3540      1.6800     78.3900
     55     -8.5160      0.6680      4.6410      0.0100     78.3900
     56     -7.8190     -0.8120      5.1750      0.0100     78.3900
     57    -12.5380      0.3450     10.1000      1.7700     78.3900
     58    -12.9300      0.3740      9.0620      0.0100     78.3900
     59    -13.2570      1.2540     10.9130      1.5900     78.3900
     60    -14.1350      0.8740     11.0680      0.0100     78.3900
     61    -12.5890     -1.0680     10.6690      1.7700     78.3900
     62    -12.2100     -1.8030      9.9200      0.0100     78.3900
     63    -13.8690     -1.4360     11.2340      1.5900     78.3900
     64    -14.9010     -2.2150     10.3290      2.1000     78.3900
     65    -14.3280     -3.5440     10.0200      1.5900     78.3900
     66    -16.2060     -2.2080     11.0310      1.5900     78.3900
     67    -15.0000     -1.3880      8.9990      1.5900     78.3900
     68    -15.7660     -0.1720      8.8790      1.7700     78.3900
     69    -15.3470      0.6330      9.5220      0.0100     78.3900
     70    -16.8250     -0.3390      9.1810      0.0100     78.3900
     71    -15.7460      0.3470      7.4360      1.7700     78.3900
     72    -16.3730      1.2600      7.3380      0.0100     78.3900
     73    -14.3900      0.7260      7.0610      1.5900     78.3900
     74    -14.1820      0.4280      5.6940      1.7700     78.3900
     75    -13.9120      1.4040      5.2360      0.0100     78.3900
     76    -13.0750     -0.5460      5.5030      1.6800     78.3900
     77    -12.7870     -1.4640      6.4830      1.7700     78.3900
     78    -13.4100     -1.4040      7.3730      0.0100     78.3900
     79    -12.3130     -0.4730      4.3590      1.7700     78.3900
     80    -12.5270      0.3550      3.4780      1.5900     78.3900
     81    -11.2880     -1.3840      4.2830      1.6800     78.3900
     82    -10.7300     -1.3500      3.4400      0.0100     78.3900
     83    -10.9300     -2.3150      5.2370      1.7700     78.3900
     84     -9.9480     -3.0360      5.0710      1.5900     78.3900
     85    -11.7600     -2.3170      6.4020      1.7700     78.3900
     86    -11.5160     -2.9930      7.2170      0.0100     78.3900
     87    -15.5120     -0.0470      5.1260      1.7700     78.3900
     88    -15.4030     -0.8020      4.3180      0.0100     78.3900
     89    -16.2240      1.0820      4.6600      1.5900     78.3900
     90    -16.2370      1.0690      3.6810      0.0100     78.3900
     91    -16.1820     -0.6440      6.3570      1.7700     78.3900
     92    -15.7130     -1.6160      6.6220      0.0100     78.3900
     93    -17.6230     -0.6980      6.2960      1.5900     78.3900
     94    -18.3490     -2.0470      5.9580      2.1000     78.3900
     95    -17.7070     -3.1340      6.7320      1.5900     78.3900
     96    -19.8030     -1.8600      6.1540      1.5900     78.3900
     97    -18.0720     -2.3170      4.4310      1.5900     78.3900
     98    -18.5140     -3.5750      3.8490      1.7700     78.3900
     99    -19.1570     -4.1870      4.5440      0.0100     78.3900
    100    -17.6180     -4.1970      3.6270      0.0100     78.3900
    101    -19.2640     -3.3600      2.5200      1.7700     78.3900
    102    -19.5990     -4.3330      2.0990      0.0100     78.3900
    103    -20.4560     -2.5470      2.7430      1.5900     78.3900
    104    -20.6650     -1.6950      1.6180      1.7700     78.3900
    105    -21.6850     -1.9480      1.2410      0.0100     78.3900
    106    -20.6300     -0.2450      1.9600      1.6800     78.3900
    107    -20.0440      0.1750      3.1330      1.7700     78.3900
    108    -19.5910     -0.6040      3.7500      0.0100     78.3900
    109    -20.0440      1.4660      3.4910      1.7700     78.3900
    110    -19.6040      1.8070      4.4270      0.0100     78.3900
    111    -21.2060      0.6930      1.1000      1.7700     78.3900
    112    -21.7470      0.3070      0.0520      1.5900     78.3900
    113    -21.2020      2.0010      1.4420      1.6800     78.3900
    114    -20.6680      2.3970      2.6090      1.7700     78.3900
    115    -20.7380      3.6850      2.9370      1.6800     78.3900
    116    -20.3280      4.0510      3.7770      0.0100     78.3900
    117    -21.1400      4.3320      2.2910      0.0100     78.3900
    118    -19.6440     -2.0670      0.5670      1.7700     78.3900
    119    -19.3200     -1.1930     -0.0300      0.0100     78.3900
    120    -20.1650     -3.0690     -0.2890      1.5900     78.3900
    121    -19.4240     -3.4400     -0.7910      0.0100     78.3900
    122    -18.5040     -2.5980      1.4180      1.7700     78.3900
    123    -17.9830     -1.7520      1.9260      0.0100     78.3900
    124    -17.6210     -3.4810      0.6920      1.5900     78.3900
    125    -16.1410     -3.0460      0.3970      2.1000     78.3900
    126    -15.5450     -2.5330      1.6430      1.5900     78.3900
    127    -15.4380     -4.1630     -0.2710      1.5900     78.3900
    128    -16.2490     -1.8500     -0.6170      1.5900     78.3900
    129    -16.8690     -1.9430     -1.9140      1.7700     78.3900
    130    -17.8240     -2.5150     -1.8700      0.0100     78.3900
    131    -16.1910     -2.4680     -2.6240      0.0100     78.3900
    132    -17.1730     -0.5470     -2.4920      1.7700     78.3900
    133    -17.5960     -0.6260     -3.5160      0.0100     78.3900
    134    -18.1870      0.1060     -1.6660      1.5900     78.3900
    135    -17.8530      1.4720     -1.4870      1.7700     78.3900
    136    -18.7470      2.0630     -1.7890      0.0100     78.3900
    137    -17.5310      1.7720     -0.0840      1.6800     78.3900
    138    -17.2680      2.7540      1.8690      1.7700     78.3900
    139    -16.7870      1.4600      2.0120      1.6800     78.3900
    140    -16.9830      0.9210      0.8440      1.7700     78.3900
    141    -16.7590     -0.1130      0.6140      0.0100     78.3900
    142    -17.8910      4.9910      2.3050      1.6800     78.3900
    143    -18.2230      5.0660      1.0140      1.7700     78.3900
    144    -18.6260      6.0370      0.6990      0.0100     78.3900
    145    -18.2180      4.1110      0.0750      1.6800     78.3900
    146    -17.7120      2.9690      0.5720      1.7700     78.3900
    147    -17.4040      3.8220      2.7830      1.7700     78.3900
    148    -17.1220      3.7260      4.0970      1.6800     78.3900
    149    -16.8130      2.8580      4.5030      0.0100     78.3900
    150    -17.1970      4.5400      4.6830      0.0100     78.3900
    151    -16.7000      1.7850     -2.4190      1.7700     78.3900
    152    -16.0150      2.5490     -1.9940      0.0100     78.3900
    153    -17.1860      2.2180     -3.6760      1.5900     78.3900
    154    -16.4100      2.3430     -4.2470      0.0100     78.3900
    155    -15.9920      0.4370     -2.5280      1.7700     78.3900
    156    -15.3920      0.2440     -1.6110      0.0100     78.3900
    157    -15.2200      0.2440     -3.7400      1.5900     78.3900
    158    -13.7900      0.9060     -3.8390      2.1000     78.3900
    159    -13.1680      0.8790     -2.4970      1.5900     78.3900
    160    -13.0450      0.2420     -4.9290      1.5900     78.3900
    161    -14.0620      2.3950     -4.2730      1.5900     78.3900
    162    -13.0380      3.4160     -4.0930      1.7700     78.3900
    163    -12.4880      3.5780     -5.0470      0.0100     78.3900
    164    -12.2820      3.1300     -3.3230      0.0100     78.3900
    165    -13.6260      4.7630     -3.6280      1.7700     78.3900
    166    -14.0740      5.3130     -4.4810      0.0100     78.3900
    167    -14.7030      4.5080     -2.6810      1.5900     78.3900
    168    -14.6350      5.4220     -1.6110      1.7700     78.3900
    169    -15.6510      5.8770     -1.5430      0.0100     78.3900
    170    -14.3000      4.7580     -0.3170      1.6800     78.3900
    171    -13.6780      3.5240     -0.2940      1.7700     78.3900
    172    -13.4590      3.0700     -1.2650      0.0100     78.3900
    173    -13.3960      2.9100      0.8630      1.7700     78.3900
    174    -12.9190      1.9310      0.9030      0.0100     78.3900
    175    -14.6120      5.4000      0.8790      1.7700     78.3900
    176    -15.1640      6.5100      0.8350      1.5900     78.3900
    177    -14.3200      4.8000      2.0550      1.6800     78.3900
    178    -13.7520      3.5820      2.0680      1.7700     78.3900
    179    -13.5340      3.0040      3.2450      1.6800     78.3900
    180    -13.8230      3.5000      4.0630      0.0100     78.3900
    181    -13.1840      2.0670      3.3150      0.0100     78.3900
    182    -13.6380      6.4910     -2.0020      1.7700     78.3900
    183    -13.1510      6.9300     -1.1200      0.0100     78.3900
    184    -14.2740      7.5210     -2.7360      1.5900     78.3900
    185    -13.5740      8.0980     -3.0800      0.0100     78.3900
    186    -12.6610      5.7000     -2.8670      1.7700     78.3900
    187    -12.0190      5.0530     -2.2260      0.0100     78.3900
    188    -11.8950      6.4970     -3.8000      1.5900     78.3900
    189    -10.5190      7.1290     -3.3540      2.1000     78.3900
    190     -9.7610      6.1010     -2.6100      1.5900     78.3900
    191     -9.8630      7.7000     -4.5500      1.5900     78.3900
    192    -10.9010      8.3280     -2.4000      1.5900     78.3900
    193    -10.0230      8.7370     -1.3140      1.7700     78.3900
    194     -9.6330      9.7590     -1.5150      0.0100     78.3900
    195     -9.1330      8.0700     -1.2000      0.0100     78.3900
    196    -10.7480      8.7570      0.0420      1.7700     78.3900
    197    -11.5050      9.5700      0.0770      0.0100     78.3900
    198    -11.4410      7.5020      0.2360      1.5900     78.3900
    199    -11.3870      7.1120      1.5870      1.7700     78.3900
    200    -12.4390      6.9660      1.9260      0.0100     78.3900
    201    -10.6550      5.8500      1.7280      1.6800     78.3900
    202    -10.5800      5.0790      2.8550      1.7700     78.3900
    203    -11.4930      4.4530      6.1340      1.6800     78.3900
    204    -12.0280      5.2600      6.3750      0.0100     78.3900
    205    -11.3640      3.7290      6.8190      0.0100     78.3900
    206    -11.1520      5.3510      4.0390      1.6800     78.3900
    207    -10.9740      4.3750      4.9230      1.7700     78.3900
    208    -10.2460      3.2450      4.6570      1.6800     78.3900
    209    -10.1450      2.5590      5.3890      0.0100     78.3900
    210     -9.6180      2.9490      3.4540      1.7700     78.3900
    211     -8.9710      1.9080      3.2960      1.5900     78.3900
    212     -9.8230      3.9790      2.4990      1.7700     78.3900
    213     -9.4120      4.0660      1.1770      1.6800     78.3900
    214     -9.9320      5.1930      0.7520      1.7700     78.3900
    215     -9.8310      5.6010     -0.2590      0.0100     78.3900
    216    -10.7510      8.2460      2.3510      1.7700     78.3900
    217    -10.1720      7.8950      3.2280      0.0100     78.3900
    218    -11.7520      9.1470      2.7820      1.5900     78.3900
    219    -11.3000      9.8810      3.2150      0.0100     78.3900
    220     -9.8500      8.8610      1.2820      1.7700     78.3900
    221     -8.9760      8.1960      1.0880      0.0100     78.3900
    222     -9.4850     10.2390      1.5090      1.5900     78.3900
    223     -8.0960     10.5730      2.1720      2.1000     78.3900
    224     -7.0600      9.7060      1.5710      1.5900     78.3900
    225     -7.8740     12.0340      2.1060      1.5900     78.3900
    226     -8.2940     10.1460      3.6750      1.5900     78.3900
    227     -9.2230     10.8600      4.5230      1.7700     78.3900
    228    -10.2410     10.8670      4.0860      0.0100     78.3900
    229     -8.9000     11.9190      4.6520      0.0100     78.3900
    230     -9.3340     10.2180      5.9110      1.7700     78.3900
    231    -10.0070     10.8000      6.5770      0.0100     78.3900
    232     -9.9010      8.8820      5.7900      1.5900     78.3900
    233     -9.2480      8.0130      6.7090      1.7700     78.3900
    234    -10.0590      7.5780      7.3390      0.0100     78.3900
    235     -8.5090      6.9100      6.0320      1.6800     78.3900
    236     -8.1410      7.0310      4.7120      1.7700     78.3900
    237     -8.4460      7.9490      4.2140      0.0100     78.3900
    238     -7.4830      6.0560      4.0730      1.7700     78.3900
    239     -7.2140      6.1290      3.0210      0.0100     78.3900
    240     -8.1410      5.7730      6.7440      1.7700     78.3900
    241     -8.4290      5.6940      7.9470      1.5900     78.3900
    242     -7.4780      4.7740      6.1180      1.6800     78.3900
    243     -7.1520      4.8880      4.8180      1.7700     78.3900
    244     -6.5320      3.8750      4.2180      1.6800     78.3900
    245     -6.2810      3.0640      4.7510      0.0100     78.3900
    246     -6.2540      3.9190      3.2570      0.0100     78.3900
    247     -8.3430      8.8670      7.5860      1.7700     78.3900
    248     -7.4300      8.3190      7.8960      0.0100     78.3900
    249     -9.0520      9.3130      8.7310      1.5900     78.3900
    250     -8.5080      9.9690      9.2010      0.0100     78.3900
    251     -7.9980     10.0080      6.6340      1.7700     78.3900
    252     -7.2450      9.6740      5.8880      0.0100     78.3900
    253     -7.5780     11.2230      7.2810      1.5900     78.3900
    254     -6.7310     11.0810      7.7430      0.0100     78.3900

 CREATION OF A NEW CAVITY WITH THE ORIGINAL SPHERE
 SIZES FOR THE COMPUTATION OF THE CAVITATION ENERGY.

     INPUT FOR CAVITY DEFINITION 
     ---------------------------
   ATOM               COORDINATES                RADIUS       EPS
      1     -4.6080     -5.5440      9.7540      0.0100     78.3900
      2     -5.0160     -4.6880      9.9790      1.5900     78.3900
      3     -5.1540     -4.6600     11.4080      1.7700     78.3900
      4     -4.1470     -4.7390     11.8770      0.0100     78.3900
      5     -5.7490     -5.5420     11.7360      0.0100     78.3900
      6     -5.8390     -3.3890     11.9190      1.7700     78.3900
      7     -5.9170     -3.4030     13.0260      0.0100     78.3900
      8     -5.0700     -2.2060     11.5460      1.5900     78.3900
      9     -5.9680     -1.1640     11.1900      1.7700     78.3900
     10     -5.7160     -0.2900     11.8350      0.0100     78.3900
     11     -5.8070     -0.7680      9.7860      1.6800     78.3900
     12     -6.2370      0.4020      9.2210      1.7700     78.3900
     13     -7.8380      3.4560      9.4950      1.6800     78.3900
     14     -8.1300      3.4710     10.4500      0.0100     78.3900
     15     -8.0540      4.2410      8.9070      0.0100     78.3900
     16     -6.9040      1.3850      9.8540      1.6800     78.3900
     17     -7.1700      2.4110      9.0510      1.7700     78.3900
     18     -6.7640      2.4670      7.7430      1.6800     78.3900
     19     -7.0050      3.2860      7.2060      0.0100     78.3900
     20     -6.0570      1.4800      7.0690      1.7700     78.3900
     21     -5.7300      1.6170      5.8850      1.5900     78.3900
     22     -5.8140      0.3560      7.9050      1.7700     78.3900
     23     -5.1670     -0.8450      7.6350      1.6800     78.3900
     24     -5.1830     -1.4800      8.7860      1.7700     78.3900
     25     -4.7480     -2.4650      8.9750      0.0100     78.3900
     26     -7.3710     -1.6350     11.5090      1.7700     78.3900
     27     -8.1270     -1.2190     10.8140      0.0100     78.3900
     28     -7.7040     -1.2830     12.8410      1.5900     78.3900
     29     -8.5580     -1.6900     13.0310      0.0100     78.3900
     30     -7.2360     -3.1430     11.3330      1.7700     78.3900
     31     -7.1700     -3.3970     10.2480      0.0100     78.3900
     32     -8.2160     -3.9380     12.0430      1.5900     78.3900
     33     -9.5320     -4.3650     11.2860      2.1000     78.3900
     34     -9.1690     -4.9210      9.9690      1.5900     78.3900
     35    -10.3440     -5.2300     12.1680      1.5900     78.3900
     36    -10.2830     -3.0020     11.0660      1.5900     78.3900
     37    -10.8980     -2.3270     12.1900      1.7700     78.3900
     38    -10.1550     -2.1180     12.9920      0.0100     78.3900
     39    -11.6990     -2.9610     12.6370      0.0100     78.3900
     40    -11.5260     -0.9900     11.7730      1.7700     78.3900
     41    -11.9690     -0.4700     12.6510      0.0100     78.3900
     42    -10.5010     -0.1160     11.2240      1.5900     78.3900
     43    -11.0570      0.6590     10.1680      1.7700     78.3900
     44    -10.9270      1.7210     10.4780      0.0100     78.3900
     45    -10.3660      0.4530      8.8670      1.6800     78.3900
     46     -9.6240     -0.6850      8.6580      1.7700     78.3900
     47     -9.6090     -1.4010      9.4810      0.0100     78.3900
     48     -8.9540     -0.8810      7.5160      1.7700     78.3900
     49     -8.3370     -1.7600      7.3460      0.0100     78.3900
     50    -10.4850      1.3970      7.8490      1.7700     78.3900
     51    -11.1790      2.4070      8.0340      1.5900     78.3900
     52     -9.8270      1.2070      6.6820      1.6800     78.3900
     53     -9.0670      0.1140      6.5040      1.7700     78.3900
     54     -8.4140     -0.0300      5.3540      1.6800     78.3900
     55     -8.5160      0.6680      4.6410      0.0100     78.3900
     56     -7.8190     -0.8120      5.1750      0.0100     78.3900
     57    -12.5380      0.3450     10.1000      1.7700     78.3900
     58    -12.9300      0.3740      9.0620      0.0100     78.3900
     59    -13.2570      1.2540     10.9130      1.5900     78.3900
     60    -14.1350      0.8740     11.0680      0.0100     78.3900
     61    -12.5890     -1.0680     10.6690      1.7700     78.3900
     62    -12.2100     -1.8030      9.9200      0.0100     78.3900
     63    -13.8690     -1.4360     11.2340      1.5900     78.3900
     64    -14.9010     -2.2150     10.3290      2.1000     78.3900
     65    -14.3280     -3.5440     10.0200      1.5900     78.3900
     66    -16.2060     -2.2080     11.0310      1.5900     78.3900
     67    -15.0000     -1.3880      8.9990      1.5900     78.3900
     68    -15.7660     -0.1720      8.8790      1.7700     78.3900
     69    -15.3470      0.6330      9.5220      0.0100     78.3900
     70    -16.8250     -0.3390      9.1810      0.0100     78.3900
     71    -15.7460      0.3470      7.4360      1.7700     78.3900
     72    -16.3730      1.2600      7.3380      0.0100     78.3900
     73    -14.3900      0.7260      7.0610      1.5900     78.3900
     74    -14.1820      0.4280      5.6940      1.7700     78.3900
     75    -13.9120      1.4040      5.2360      0.0100     78.3900
     76    -13.0750     -0.5460      5.5030      1.6800     78.3900
     77    -12.7870     -1.4640      6.4830      1.7700     78.3900
     78    -13.4100     -1.4040      7.3730      0.0100     78.3900
     79    -12.3130     -0.4730      4.3590      1.7700     78.3900
     80    -12.5270      0.3550      3.4780      1.5900     78.3900
     81    -11.2880     -1.3840      4.2830      1.6800     78.3900
     82    -10.7300     -1.3500      3.4400      0.0100     78.3900
     83    -10.9300     -2.3150      5.2370      1.7700     78.3900
     84     -9.9480     -3.0360      5.0710      1.5900     78.3900
     85    -11.7600     -2.3170      6.4020      1.7700     78.3900
     86    -11.5160     -2.9930      7.2170      0.0100     78.3900
     87    -15.5120     -0.0470      5.1260      1.7700     78.3900
     88    -15.4030     -0.8020      4.3180      0.0100     78.3900
     89    -16.2240      1.0820      4.6600      1.5900     78.3900
     90    -16.2370      1.0690      3.6810      0.0100     78.3900
     91    -16.1820     -0.6440      6.3570      1.7700     78.3900
     92    -15.7130     -1.6160      6.6220      0.0100     78.3900
     93    -17.6230     -0.6980      6.2960      1.5900     78.3900
     94    -18.3490     -2.0470      5.9580      2.1000     78.3900
     95    -17.7070     -3.1340      6.7320      1.5900     78.3900
     96    -19.8030     -1.8600      6.1540      1.5900     78.3900
     97    -18.0720     -2.3170      4.4310      1.5900     78.3900
     98    -18.5140     -3.5750      3.8490      1.7700     78.3900
     99    -19.1570     -4.1870      4.5440      0.0100     78.3900
    100    -17.6180     -4.1970      3.6270      0.0100     78.3900
    101    -19.2640     -3.3600      2.5200      1.7700     78.3900
    102    -19.5990     -4.3330      2.0990      0.0100     78.3900
    103    -20.4560     -2.5470      2.7430      1.5900     78.3900
    104    -20.6650     -1.6950      1.6180      1.7700     78.3900
    105    -21.6850     -1.9480      1.2410      0.0100     78.3900
    106    -20.6300     -0.2450      1.9600      1.6800     78.3900
    107    -20.0440      0.1750      3.1330      1.7700     78.3900
    108    -19.5910     -0.6040      3.7500      0.0100     78.3900
    109    -20.0440      1.4660      3.4910      1.7700     78.3900
    110    -19.6040      1.8070      4.4270      0.0100     78.3900
    111    -21.2060      0.6930      1.1000      1.7700     78.3900
    112    -21.7470      0.3070      0.0520      1.5900     78.3900
    113    -21.2020      2.0010      1.4420      1.6800     78.3900
    114    -20.6680      2.3970      2.6090      1.7700     78.3900
    115    -20.7380      3.6850      2.9370      1.6800     78.3900
    116    -20.3280      4.0510      3.7770      0.0100     78.3900
    117    -21.1400      4.3320      2.2910      0.0100     78.3900
    118    -19.6440     -2.0670      0.5670      1.7700     78.3900
    119    -19.3200     -1.1930     -0.0300      0.0100     78.3900
    120    -20.1650     -3.0690     -0.2890      1.5900     78.3900
    121    -19.4240     -3.4400     -0.7910      0.0100     78.3900
    122    -18.5040     -2.5980      1.4180      1.7700     78.3900
    123    -17.9830     -1.7520      1.9260      0.0100     78.3900
    124    -17.6210     -3.4810      0.6920      1.5900     78.3900
    125    -16.1410     -3.0460      0.3970      2.1000     78.3900
    126    -15.5450     -2.5330      1.6430      1.5900     78.3900
    127    -15.4380     -4.1630     -0.2710      1.5900     78.3900
    128    -16.2490     -1.8500     -0.6170      1.5900     78.3900
    129    -16.8690     -1.9430     -1.9140      1.7700     78.3900
    130    -17.8240     -2.5150     -1.8700      0.0100     78.3900
    131    -16.1910     -2.4680     -2.6240      0.0100     78.3900
    132    -17.1730     -0.5470     -2.4920      1.7700     78.3900
    133    -17.5960     -0.6260     -3.5160      0.0100     78.3900
    134    -18.1870      0.1060     -1.6660      1.5900     78.3900
    135    -17.8530      1.4720     -1.4870      1.7700     78.3900
    136    -18.7470      2.0630     -1.7890      0.0100     78.3900
    137    -17.5310      1.7720     -0.0840      1.6800     78.3900
    138    -17.2680      2.7540      1.8690      1.7700     78.3900
    139    -16.7870      1.4600      2.0120      1.6800     78.3900
    140    -16.9830      0.9210      0.8440      1.7700     78.3900
    141    -16.7590     -0.1130      0.6140      0.0100     78.3900
    142    -17.8910      4.9910      2.3050      1.6800     78.3900
    143    -18.2230      5.0660      1.0140      1.7700     78.3900
    144    -18.6260      6.0370      0.6990      0.0100     78.3900
    145    -18.2180      4.1110      0.0750      1.6800     78.3900
    146    -17.7120      2.9690      0.5720      1.7700     78.3900
    147    -17.4040      3.8220      2.7830      1.7700     78.3900
    148    -17.1220      3.7260      4.0970      1.6800     78.3900
    149    -16.8130      2.8580      4.5030      0.0100     78.3900
    150    -17.1970      4.5400      4.6830      0.0100     78.3900
    151    -16.7000      1.7850     -2.4190      1.7700     78.3900
    152    -16.0150      2.5490     -1.9940      0.0100     78.3900
    153    -17.1860      2.2180     -3.6760      1.5900     78.3900
    154    -16.4100      2.3430     -4.2470      0.0100     78.3900
    155    -15.9920      0.4370     -2.5280      1.7700     78.3900
    156    -15.3920      0.2440     -1.6110      0.0100     78.3900
    157    -15.2200      0.2440     -3.7400      1.5900     78.3900
    158    -13.7900      0.9060     -3.8390      2.1000     78.3900
    159    -13.1680      0.8790     -2.4970      1.5900     78.3900
    160    -13.0450      0.2420     -4.9290      1.5900     78.3900
    161    -14.0620      2.3950     -4.2730      1.5900     78.3900
    162    -13.0380      3.4160     -4.0930      1.7700     78.3900
    163    -12.4880      3.5780     -5.0470      0.0100     78.3900
    164    -12.2820      3.1300     -3.3230      0.0100     78.3900
    165    -13.6260      4.7630     -3.6280      1.7700     78.3900
    166    -14.0740      5.3130     -4.4810      0.0100     78.3900
    167    -14.7030      4.5080     -2.6810      1.5900     78.3900
    168    -14.6350      5.4220     -1.6110      1.7700     78.3900
    169    -15.6510      5.8770     -1.5430      0.0100     78.3900
    170    -14.3000      4.7580     -0.3170      1.6800     78.3900
    171    -13.6780      3.5240     -0.2940      1.7700     78.3900
    172    -13.4590      3.0700     -1.2650      0.0100     78.3900
    173    -13.3960      2.9100      0.8630      1.7700     78.3900
    174    -12.9190      1.9310      0.9030      0.0100     78.3900
    175    -14.6120      5.4000      0.8790      1.7700     78.3900
    176    -15.1640      6.5100      0.8350      1.5900     78.3900
    177    -14.3200      4.8000      2.0550      1.6800     78.3900
    178    -13.7520      3.5820      2.0680      1.7700     78.3900
    179    -13.5340      3.0040      3.2450      1.6800     78.3900
    180    -13.8230      3.5000      4.0630      0.0100     78.3900
    181    -13.1840      2.0670      3.3150      0.0100     78.3900
    182    -13.6380      6.4910     -2.0020      1.7700     78.3900
    183    -13.1510      6.9300     -1.1200      0.0100     78.3900
    184    -14.2740      7.5210     -2.7360      1.5900     78.3900
    185    -13.5740      8.0980     -3.0800      0.0100     78.3900
    186    -12.6610      5.7000     -2.8670      1.7700     78.3900
    187    -12.0190      5.0530     -2.2260      0.0100     78.3900
    188    -11.8950      6.4970     -3.8000      1.5900     78.3900
    189    -10.5190      7.1290     -3.3540      2.1000     78.3900
    190     -9.7610      6.1010     -2.6100      1.5900     78.3900
    191     -9.8630      7.7000     -4.5500      1.5900     78.3900
    192    -10.9010      8.3280     -2.4000      1.5900     78.3900
    193    -10.0230      8.7370     -1.3140      1.7700     78.3900
    194     -9.6330      9.7590     -1.5150      0.0100     78.3900
    195     -9.1330      8.0700     -1.2000      0.0100     78.3900
    196    -10.7480      8.7570      0.0420      1.7700     78.3900
    197    -11.5050      9.5700      0.0770      0.0100     78.3900
    198    -11.4410      7.5020      0.2360      1.5900     78.3900
    199    -11.3870      7.1120      1.5870      1.7700     78.3900
    200    -12.4390      6.9660      1.9260      0.0100     78.3900
    201    -10.6550      5.8500      1.7280      1.6800     78.3900
    202    -10.5800      5.0790      2.8550      1.7700     78.3900
    203    -11.4930      4.4530      6.1340      1.6800     78.3900
    204    -12.0280      5.2600      6.3750      0.0100     78.3900
    205    -11.3640      3.7290      6.8190      0.0100     78.3900
    206    -11.1520      5.3510      4.0390      1.6800     78.3900
    207    -10.9740      4.3750      4.9230      1.7700     78.3900
    208    -10.2460      3.2450      4.6570      1.6800     78.3900
    209    -10.1450      2.5590      5.3890      0.0100     78.3900
    210     -9.6180      2.9490      3.4540      1.7700     78.3900
    211     -8.9710      1.9080      3.2960      1.5900     78.3900
    212     -9.8230      3.9790      2.4990      1.7700     78.3900
    213     -9.4120      4.0660      1.1770      1.6800     78.3900
    214     -9.9320      5.1930      0.7520      1.7700     78.3900
    215     -9.8310      5.6010     -0.2590      0.0100     78.3900
[...]
   6  5  0    -1342.8681585798     0.0000002829   0.000055572   0.000006763      457576584   11867572
   7  6  0    -1342.8681575272     0.0000010526   0.000013392   0.000003678      424628630   12163618
   8  7  0    -1342.8681574236     0.0000001036   0.000004944   0.000001189      390872196   12459179
   9  8  0    -1342.8681575008    -0.0000000772   0.000002366   0.000000619      358545951   12739659
  10  9  0    -1342.8681575460    -0.0000000452   0.000000484   0.000000177      334974798   12952883
  11 10  0    -1342.8681575363     0.0000000097   0.000000256   0.000000107      298391437   13257527
  12 11  0    -1342.8681575356     0.0000000007   0.000000078   0.000000015      276725582   13432668

          -----------------
          DENSITY CONVERGED
          -----------------
     TIME TO FORM FOCK OPERATORS=      16.6 SECONDS (       1.4 SEC/ITER)
     FOCK TIME ON FIRST ITERATION=       1.2, LAST ITERATION=       0.9
     TIME TO SOLVE SCF EQUATIONS=       0.3 SECONDS (       0.0 SEC/ITER)

 FINAL RHF ENERGY IS    -1342.8681575356 AFTER  12 ITERATIONS
 ...... END OF RHF CALCULATION ......
 CPU     0: STEP CPU TIME=    37.36 TOTAL CPU TIME=       1012.0 (     16.9 MIN)
 TOTAL WALL CLOCK TIME=       2252.0 SECONDS, CPU UTILIZATION IS    44.94%
 DONE PCM POT.
 CPU     0: STEP CPU TIME=     0.27 TOTAL CPU TIME=       1012.3 (     16.9 MIN)
 TOTAL WALL CLOCK TIME=       2252.8 SECONDS, CPU UTILIZATION IS    44.93%

 Iter=  3 iFrag=      3 EFMO= -1380.515921522, DD= 0.028253860, DE= 0.020042443


 RHF      monomer      8 corr= NONE       , L1=   264, L0=   248 ID=      8


 AO spaces for     8     0     0 n-mer: L1=   264, L0=   248

 DIRECT SCF CALCULATION, SCHWRZ=T   FDIFF=T,  DIRTHR=  0.00E+00 NITDIR=10

                                                                                   NONZERO     BLOCKS
 ITER EX DEM     TOTAL ENERGY        E CHANGE  DENSITY CHANGE     ORB. GRAD      INTEGRALS    SKIPPED
   1  0  0     -770.4291802368  -770.4291802368   0.031595693   0.000000000      329726759    3958905
          ---------------START SECOND ORDER SCF---------------
   2  1  0     -770.4301141039    -0.0009338671   0.008167091   0.001739418      308607684    4479302
   3  2  0     -770.4304943664    -0.0003802625   0.001551492   0.000416601      298255710    4639885
   4  3  0     -770.4304156376     0.0000787288   0.000359883   0.000076105      284214554    4825724
   5  4  0     -770.4303864034     0.0000292342   0.000155968   0.000042463      269754970    4991514
   6  5  0     -770.4303804981     0.0000059053   0.000041897   0.000019640      259671270    5118827
   7  6  0     -770.4303800293     0.0000004688   0.000014228   0.000005912      244482066    5308625
   8  7  0     -770.4303801079    -0.0000000786   0.000007351   0.000004439      229730691    5477636
   9  8  0     -770.4303802269    -0.0000001190   0.000002135   0.000000860      220256958    5584653
  10  9  0     -770.4303802656    -0.0000000387   0.000001131   0.000000601      205292528    5751095
  11 10  0     -770.4303802504     0.0000000152   0.000000425   0.000000092      187890496    5931749
  12 11  0     -770.4303802488     0.0000000016   0.000000101   0.000000052      173394754    6085641
  13 12  0     -770.4303802488     0.0000000000   0.000000054   0.000000018      152855867    6311240

          -----------------
          DENSITY CONVERGED
          -----------------
     TIME TO FORM FOCK OPERATORS=      10.4 SECONDS (       0.8 SEC/ITER)
     FOCK TIME ON FIRST ITERATION=       1.2, LAST ITERATION=       0.5
     TIME TO SOLVE SCF EQUATIONS=       0.2 SECONDS (       0.0 SEC/ITER)

 FINAL RHF ENERGY IS     -770.4303802488 AFTER  13 ITERATIONS
 ...... END OF RHF CALCULATION ......
 CPU     0: STEP CPU TIME=    19.28 TOTAL CPU TIME=       1031.6 (     17.2 MIN)
 TOTAL WALL CLOCK TIME=       2298.8 SECONDS, CPU UTILIZATION IS    44.87%
 DONE PCM POT.
 CPU     0: STEP CPU TIME=     0.18 TOTAL CPU TIME=       1031.7 (     17.2 MIN)
 TOTAL WALL CLOCK TIME=       2299.3 SECONDS, CPU UTILIZATION IS    44.87%

 Iter=  3 iFrag=      8 EFMO=  -795.794156275, DD= 0.025094164, DE= 0.041968525

 CPU     0: STEP CPU TIME=     0.00 TOTAL CPU TIME=       1031.7 (     17.2 MIN)
 TOTAL WALL CLOCK TIME=       2299.3 SECONDS, CPU UTILIZATION IS    44.87%

  Monomer SCF synchronisation on iteration   3.1 took     0.0 s.
 CPU     0: STEP CPU TIME=     0.00 TOTAL CPU TIME=       1031.7 (     17.2 MIN)
 TOTAL WALL CLOCK TIME=       2299.3 SECONDS, CPU UTILIZATION IS    44.87%
 dmexch needs              2967020  words of memory.
 CPU     0: STEP CPU TIME=     0.01 TOTAL CPU TIME=       1031.8 (     17.2 MIN)
 TOTAL WALL CLOCK TIME=       2299.3 SECONDS, CPU UTILIZATION IS    44.87%

 Data exchange of    982767 words took     0.0 s.

 Calculating apparent surface charges...
     Using       41021 words of memory.
 ASC ITERATION=   1 CONVERGED TO  0.115579E-02
 ASC ITERATION=   2 CONVERGED TO  0.103516E-01
 ASC ITERATION=   3 CONVERGED TO  0.140753E-01
 ASC ITERATION=   4 CONVERGED TO  0.180723E-02
 ASC ITERATION=   5 CONVERGED TO  0.821920E-03
 ASC ITERATION=   6 CONVERGED TO  0.452208E-03
 ASC ITERATION=   7 CONVERGED TO  0.182498E-03
 ASC ITERATION=   8 CONVERGED TO  0.825236E-04
 ASC ITERATION=   9 CONVERGED TO  0.476915E-04
 ASC ITERATION=  10 CONVERGED TO  0.513971E-04
 ASC ITERATION=  11 CONVERGED TO  0.320216E-04
 ASC ITERATION=  12 CONVERGED TO  0.113008E-04
 ASC ITERATION=  13 CONVERGED TO  0.543736E-05
 ASC ITERATION=  14 CONVERGED TO  0.331098E-05
 ASC ITERATION=  15 CONVERGED TO  0.166695E-05
 ASC ITERATION=  16 CONVERGED TO  0.779648E-06
 ASC ITERATION=  17 CONVERGED TO  0.521301E-06
 ASC ITERATION=  18 CONVERGED TO  0.250984E-06
 ASC ITERATION=  19 CONVERGED TO  0.130208E-06
 ASC ITERATION=  20 CONVERGED TO  0.896656E-07
 ASC ITERATION=  21 CONVERGED TO  0.569964E-07
 ASC ITERATION=  22 CONVERGED TO  0.224333E-07
 ASC ITERATION=  23 CONVERGED TO  0.118337E-07
 ASC ITERATION=  24 CONVERGED TO  0.652317E-08
 ASC ITERATION=  25 CONVERGED TO  0.380487E-08
 ASC ITERATION=  26 CONVERGED TO  0.198453E-08
 ASC ITERATION=  27 CONVERGED TO  0.100440E-08
 ASC ITERATION=  28 CONVERGED TO  0.534695E-09
 ASC ITERATION=  29 CONVERGED TO  0.273166E-09
 ASC ITERATION=  30 CONVERGED TO  0.139854E-09
 ASC ITERATION=  31 CONVERGED TO  0.683994E-10

 THE ASC EQUATIONS FOR PHASE=1 CONVERGED IN  31 ITERATIONS.

 PCM ASC=      6.8578241022 normalised to=      6.9107028958
 Nuclear factor=   1.0032221708, electronic factor=   1.0032464948

 CPU     0: STEP CPU TIME=     0.12 TOTAL CPU TIME=       1031.9 (     17.2 MIN)
 TOTAL WALL CLOCK TIME=       2299.6 SECONDS, CPU UTILIZATION IS    44.87%


 ------------------------------------------------------------------------------
 FMO iter  3.1,      0 fragment(s) converged, maxD 0.030237739 maxE 0.041968525
 ------------------------------------------------------------------------------

 RHF      monomer      1 corr= NONE       , L1=   403, L0=   378 ID=      1


 AO spaces for     1     0     0 n-mer: L1=   403, L0=   378

 DIRECT SCF CALCULATION, SCHWRZ=T   FDIFF=T,  DIRTHR=  0.00E+00 NITDIR=10

                                                                                   NONZERO     BLOCKS
 ITER EX DEM     TOTAL ENERGY        E CHANGE  DENSITY CHANGE     ORB. GRAD      INTEGRALS    SKIPPED
   1  0  0    -1554.3221634061 -1554.3221634061   0.006461089   0.000000000     1040164407   21800722
          ---------------START SECOND ORDER SCF---------------
   2  1  0    -1554.3219366701     0.0002267360   0.001049154   0.000322297      889274277   24096763
   3  2  0    -1554.3219957956    -0.0000591254   0.000795428   0.000143819      851810649   24449277
   4  3  0    -1554.3219433263     0.0000524692   0.000126581   0.000052732      800563427   24898705
   5  4  0    -1554.3219473773    -0.0000040510   0.000041330   0.000024251      747897808   25370503
   6  5  0    -1554.3219500722    -0.0000026949   0.000022466   0.000003667      695824048   25804093
   7  6  0    -1554.3219501843    -0.0000001121   0.000004940   0.000002790      638859824   26278984
   8  7  0    -1554.3219499382     0.0000002461   0.000001861   0.000000858      591949295   26684353
   9  8  0    -1554.3219499798    -0.0000000416   0.000000935   0.000000561      544234329   27083881
  10  9  0    -1554.3219500007    -0.0000000209   0.000000438   0.000000175      502925298   27409476
  11 10  0    -1554.3219499885     0.0000000122   0.000000121   0.000000055      455074408   27798321
  12 11  0    -1554.3219499792     0.0000000093   0.000000044   0.000000014      409456385   28144489

          -----------------
          DENSITY CONVERGED
          -----------------
     TIME TO FORM FOCK OPERATORS=      27.4 SECONDS (       2.3 SEC/ITER)
     FOCK TIME ON FIRST ITERATION=       3.2, LAST ITERATION=       1.3
     TIME TO SOLVE SCF EQUATIONS=       0.5 SECONDS (       0.0 SEC/ITER)

 FINAL RHF ENERGY IS    -1554.3219499792 AFTER  12 ITERATIONS
 ...... END OF RHF CALCULATION ......
 CPU     0: STEP CPU TIME=    45.40 TOTAL CPU TIME=       1077.3 (     18.0 MIN)
 TOTAL WALL CLOCK TIME=       2397.8 SECONDS, CPU UTILIZATION IS    44.93%
 DONE PCM POT.
 CPU     0: STEP CPU TIME=     0.35 TOTAL CPU TIME=       1077.6 (     18.0 MIN)
 TOTAL WALL CLOCK TIME=       2399.0 SECONDS, CPU UTILIZATION IS    44.92%

 Iter=  4 iFrag=      1 EFMO= -1597.651888797, DD= 0.007820209, DE=-0.025661517


 RHF      monomer      7 corr= NONE       , L1=   386, L0=   362 ID=      2


 AO spaces for     7     0     0 n-mer: L1=   386, L0=   362

 DIRECT SCF CALCULATION, SCHWRZ=T   FDIFF=T,  DIRTHR=  0.00E+00 NITDIR=10

                                                                                   NONZERO     BLOCKS
 ITER EX DEM     TOTAL ENERGY        E CHANGE  DENSITY CHANGE     ORB. GRAD      INTEGRALS    SKIPPED
   1  0  0    -1470.9339257274 -1470.9339257274   0.004631246   0.000000000      920040806   17492074
          ---------------START SECOND ORDER SCF---------------
   2  1  0    -1470.9336964859     0.0002292415   0.001117582   0.000286866      798864920   19377706
   3  2  0    -1470.9337227343    -0.0000262484   0.000636679   0.000118993      761349841   19715045
   4  3  0    -1470.9336727717     0.0000499626   0.000125114   0.000042422      717532897   20097969
   5  4  0    -1470.9336744478    -0.0000016761   0.000040967   0.000022004      672132881   20489986
   6  5  0    -1470.9336760324    -0.0000015846   0.000021868   0.000005289      620151186   20911494
   7  6  0    -1470.9336763761    -0.0000003437   0.000005830   0.000002531      574050395   21291860
   8  7  0    -1470.9336761562     0.0000002199   0.000001895   0.000000848      527220597   21691030
   9  8  0    -1470.9336761149     0.0000000412   0.000000748   0.000000597      490054112   21999075
  10  9  0    -1470.9336761181    -0.0000000031   0.000000327   0.000000172      451490094   22297478
  11 10  0    -1470.9336761205    -0.0000000025   0.000000145   0.000000076      410480183   22640272

          -----------------
          DENSITY CONVERGED
          -----------------
     TIME TO FORM FOCK OPERATORS=      20.7 SECONDS (       1.9 SEC/ITER)
     FOCK TIME ON FIRST ITERATION=       3.0, LAST ITERATION=       1.1
     TIME TO SOLVE SCF EQUATIONS=       0.4 SECONDS (       0.0 SEC/ITER)

 FINAL RHF ENERGY IS    -1470.9336761205 AFTER  11 ITERATIONS
 ...... END OF RHF CALCULATION ......
 CPU     0: STEP CPU TIME=    41.82 TOTAL CPU TIME=       1119.4 (     18.7 MIN)
 TOTAL WALL CLOCK TIME=       2496.0 SECONDS, CPU UTILIZATION IS    44.85%
 DONE PCM POT.
 CPU     0: STEP CPU TIME=     0.33 TOTAL CPU TIME=       1119.8 (     18.7 MIN)
 TOTAL WALL CLOCK TIME=       2497.0 SECONDS, CPU UTILIZATION IS    44.85%

 Iter=  4 iFrag=      7 EFMO= -1507.411996984, DD= 0.005553292, DE=-0.021495944


 RHF      monomer      5 corr= NONE       , L1=   371, L0=   348 ID=      3


 AO spaces for     5     0     0 n-mer: L1=   371, L0=   348

 DIRECT SCF CALCULATION, SCHWRZ=T   FDIFF=T,  DIRTHR=  0.00E+00 NITDIR=10

                                                                                   NONZERO     BLOCKS
 ITER EX DEM     TOTAL ENERGY        E CHANGE  DENSITY CHANGE     ORB. GRAD      INTEGRALS    SKIPPED
   1  0  0    -1393.1175952863 -1393.1175952863   0.004138879   0.000000000      800710156   15146102
          ---------------START SECOND ORDER SCF---------------
   2  1  0    -1393.1175437426     0.0000515437   0.001099272   0.000352356      681343936   16967096
   3  2  0    -1393.1175559325    -0.0000121899   0.000616713   0.000094037      651533072   17241329
   4  3  0    -1393.1175404697     0.0000154628   0.000118275   0.000032972      616179123   17571202
   5  4  0    -1393.1175384368     0.0000020329   0.000023758   0.000012706      578195913   17911081
   6  5  0    -1393.1175406980    -0.0000022613   0.000014348   0.000003077      540835267   18226676
   7  6  0    -1393.1175406341     0.0000000640   0.000004066   0.000002012      499442275   18578811
   8  7  0    -1393.1175406437    -0.0000000096   0.000001218   0.000000353      455374339   18957074
   9  8  0    -1393.1175406896    -0.0000000460   0.000000490   0.000000176      420218736   19247009
  10  9  0    -1393.1175406966    -0.0000000070   0.000000179   0.000000096      381939920   19550615
  11 10  0    -1393.1175407001    -0.0000000034   0.000000119   0.000000044      351727817   19796846

          -----------------
          DENSITY CONVERGED
          -----------------
     TIME TO FORM FOCK OPERATORS=      17.5 SECONDS (       1.6 SEC/ITER)
     FOCK TIME ON FIRST ITERATION=       1.3, LAST ITERATION=       1.1
     TIME TO SOLVE SCF EQUATIONS=       0.4 SECONDS (       0.0 SEC/ITER)

 FINAL RHF ENERGY IS    -1393.1175407001 AFTER  11 ITERATIONS
 ...... END OF RHF CALCULATION ......
 CPU     0: STEP CPU TIME=    28.62 TOTAL CPU TIME=       1148.4 (     19.1 MIN)
 TOTAL WALL CLOCK TIME=       2568.1 SECONDS, CPU UTILIZATION IS    44.72%
 DONE PCM POT.
 CPU     0: STEP CPU TIME=     0.30 TOTAL CPU TIME=       1148.7 (     19.1 MIN)
 TOTAL WALL CLOCK TIME=       2569.1 SECONDS, CPU UTILIZATION IS    44.71%

 Iter=  4 iFrag=      5 EFMO= -1432.615149770, DD= 0.005039844, DE=-0.015695136


 RHF      monomer      6 corr= NONE       , L1=   341, L0=   320 ID=      4


 AO spaces for     6     0     0 n-mer: L1=   341, L0=   320

 DIRECT SCF CALCULATION, SCHWRZ=T   FDIFF=T,  DIRTHR=  0.00E+00 NITDIR=10

                                                                                   NONZERO     BLOCKS
 ITER EX DEM     TOTAL ENERGY        E CHANGE  DENSITY CHANGE     ORB. GRAD      INTEGRALS    SKIPPED
   1  0  0    -1326.3488693294 -1326.3488693294   0.003962611   0.000000000      657696084   10540586
          ---------------START SECOND ORDER SCF---------------
   2  1  0    -1326.3488559890     0.0000133404   0.001073018   0.000366333      559495787   12048455
   3  2  0    -1326.3488445615     0.0000114275   0.000595258   0.000114492      533843662   12307122
   4  3  0    -1326.3488278987     0.0000166629   0.000147575   0.000024545      499721861   12625753
   5  4  0    -1326.3488265766     0.0000013221   0.000034892   0.000007989      464791161   12961152
   6  5  0    -1326.3488276070    -0.0000010304   0.000008843   0.000002454      429018398   13269801
   7  6  0    -1326.3488276536    -0.0000000467   0.000003003   0.000000728      398170510   13560104
   8  7  0    -1326.3488276456     0.0000000081   0.000000734   0.000000258      361231314   13900488
   9  8  0    -1326.3488276430     0.0000000026   0.000000257   0.000000088      327822493   14186844
  10  9  0    -1326.3488276380     0.0000000050   0.000000118   0.000000041      291278144   14488920

          -----------------
          DENSITY CONVERGED
          -----------------
     TIME TO FORM FOCK OPERATORS=      13.8 SECONDS (       1.4 SEC/ITER)
     FOCK TIME ON FIRST ITERATION=       2.3, LAST ITERATION=       0.8
     TIME TO SOLVE SCF EQUATIONS=       0.3 SECONDS (       0.0 SEC/ITER)

 FINAL RHF ENERGY IS    -1326.3488276380 AFTER  10 ITERATIONS
 ...... END OF RHF CALCULATION ......
 CPU     0: STEP CPU TIME=    28.55 TOTAL CPU TIME=       1177.2 (     19.6 MIN)
 TOTAL WALL CLOCK TIME=       2645.2 SECONDS, CPU UTILIZATION IS    44.50%
 DONE PCM POT.
 CPU     0: STEP CPU TIME=     0.27 TOTAL CPU TIME=       1177.5 (     19.6 MIN)
 TOTAL WALL CLOCK TIME=       2646.1 SECONDS, CPU UTILIZATION IS    44.50%

 Iter=  4 iFrag=      6 EFMO= -1360.678019002, DD= 0.004813239, DE=-0.014014592


 RHF      monomer      4 corr= NONE       , L1=   341, L0=   320 ID=      5


 AO spaces for     4     0     0 n-mer: L1=   341, L0=   320

 DIRECT SCF CALCULATION, SCHWRZ=T   FDIFF=T,  DIRTHR=  0.00E+00 NITDIR=10

                                                                                   NONZERO     BLOCKS
 ITER EX DEM     TOTAL ENERGY        E CHANGE  DENSITY CHANGE     ORB. GRAD      INTEGRALS    SKIPPED
   1  0  0    -1326.4023781613 -1326.4023781613   0.007884149   0.000000000      652392183   10646452
          ---------------START SECOND ORDER SCF---------------
   2  1  0    -1326.4022329024     0.0001452589   0.001247404   0.000349124      556811937   12140893
   3  2  0    -1326.4022634230    -0.0000305206   0.000876393   0.000120675      537360818   12329375
   4  3  0    -1326.4022243471     0.0000390759   0.000116458   0.000044376      507746249   12612202
   5  4  0    -1326.4022283893    -0.0000040422   0.000039497   0.000021329      475469372   12908173
   6  5  0    -1326.4022291137    -0.0000007244   0.000012467   0.000002412      441308396   13211454
   7  6  0    -1326.4022290813     0.0000000324   0.000004681   0.000001343      409791671   13490940
   8  7  0    -1326.4022290095     0.0000000718   0.000001645   0.000000511      377645325   13782778
   9  8  0    -1326.4022289967     0.0000000128   0.000000643   0.000000292      348598829   14030037
  10  9  0    -1326.4022289921     0.0000000045   0.000000176   0.000000121      314825711   14317020
  11 10  0    -1326.4022289816     0.0000000105   0.000000092   0.000000044      284416884   14580867

          -----------------
          DENSITY CONVERGED
          -----------------
     TIME TO FORM FOCK OPERATORS=      15.7 SECONDS (       1.4 SEC/ITER)
     FOCK TIME ON FIRST ITERATION=       2.4, LAST ITERATION=       0.9
     TIME TO SOLVE SCF EQUATIONS=       0.3 SECONDS (       0.0 SEC/ITER)

 FINAL RHF ENERGY IS    -1326.4022289816 AFTER  11 ITERATIONS
 ...... END OF RHF CALCULATION ......
 CPU     0: STEP CPU TIME=    23.90 TOTAL CPU TIME=       1201.4 (     20.0 MIN)
 TOTAL WALL CLOCK TIME=       2708.4 SECONDS, CPU UTILIZATION IS    44.36%
 DONE PCM POT.
 CPU     0: STEP CPU TIME=     0.30 TOTAL CPU TIME=       1201.7 (     20.0 MIN)
 TOTAL WALL CLOCK TIME=       2709.2 SECONDS, CPU UTILIZATION IS    44.36%

 Iter=  4 iFrag=      4 EFMO= -1360.690479799, DD= 0.009554879, DE=-0.021465644


 RHF      monomer      2 corr= NONE       , L1=   341, L0=   320 ID=      6


 AO spaces for     2     0     0 n-mer: L1=   341, L0=   320

 DIRECT SCF CALCULATION, SCHWRZ=T   FDIFF=T,  DIRTHR=  0.00E+00 NITDIR=10

                                                                                   NONZERO     BLOCKS
 ITER EX DEM     TOTAL ENERGY        E CHANGE  DENSITY CHANGE     ORB. GRAD      INTEGRALS    SKIPPED
   1  0  0    -1329.6853614276 -1329.6853614276   0.006929262   0.000000000      667431138   10585491
          ---------------START SECOND ORDER SCF---------------
   2  1  0    -1329.6852051433     0.0001562843   0.001226733   0.000408446      573850621   12001910
   3  2  0    -1329.6852483963    -0.0000432529   0.000741005   0.000141564      548555980   12242606
   4  3  0    -1329.6852134333     0.0000349630   0.000131835   0.000038057      515951758   12543678
