‘4A4T_5_fmo_input.inp’ -> ‘/scratch/hazwong/824141/./4A4T_5_fmo_input.inp’
‘rungms’ -> ‘/scratch/hazwong/824141/./rungms’
‘gms-files.csh’ -> ‘/scratch/hazwong/824141/./gms-files.csh’
----- GAMESS execution script 'rungms' -----
This job is running on host gollum058.lsa.umich.edu
under operating system Linux at Sat Dec 7 00:06:23 EST 2019
Available scratch disk space (Kbyte units) at beginning of the job is
Filesystem     1K-blocks  Used Available Use% Mounted on
/dev/sda4      426933580 33492 426900088   1% /scratch
GAMESS temporary binary files will be written to /scratch/hazwong/824141/4A4T_5/usrc
GAMESS supplementary output files will be written to /scratch/hazwong/824141/4A4T_5/src
Copying input file 4A4T_5_fmo_input.inp to your run's scratch directory...
cp 4A4T_5_fmo_input.inp /scratch/hazwong/824141/4A4T_5/usrc/4A4T_5_fmo_input.F05
unset echo
This is a GDDI run, keeping various output files on local disks
setenv OUTPUT /scratch/hazwong/824141/4A4T_5/usrc/4A4T_5_fmo_input.F06
setenv PUNCH /scratch/hazwong/824141/4A4T_5/usrc/4A4T_5_fmo_input.F07
unset echo
 
Assuming a single but multicore node.
 
/export/apps/CentOS7/gamess/src/build//ddikick.x /export/apps/CentOS7/gamess/src/build//gamess.R3.x 4A4T_5_fmo_input -ddi 1 16 gollum058.lsa.umich.edu:cpus=16 -scr /scratch/hazwong/824141/4A4T_5/usrc

 Distributed Data Interface kickoff program.
 Initiating 16 compute processes on 1 nodes to run the following command:
 /export/apps/CentOS7/gamess/src/build//gamess.R3.x 4A4T_5_fmo_input 

          ******************************************************
          *         GAMESS VERSION = 30 SEP 2018 (R3)         *
          *             FROM IOWA STATE UNIVERSITY             *
          * M.W.SCHMIDT, K.K.BALDRIDGE, J.A.BOATZ, S.T.ELBERT, *
          *   M.S.GORDON, J.H.JENSEN, S.KOSEKI, N.MATSUNAGA,   *
          *          K.A.NGUYEN, S.J.SU, T.L.WINDUS,           *
          *       TOGETHER WITH M.DUPUIS, J.A.MONTGOMERY       *
          *         J.COMPUT.CHEM.  14, 1347-1363(1993)        *
          **************** 64 BIT LINUX VERSION ****************

  SINCE 1993, STUDENTS AND POSTDOCS WORKING AT IOWA STATE UNIVERSITY
  AND ALSO IN THEIR VARIOUS JOBS AFTER LEAVING ISU HAVE MADE IMPORTANT
  CONTRIBUTIONS TO THE CODE:
     IVANA ADAMOVIC, CHRISTINE AIKENS, YURI ALEXEEV, POOJA ARORA,
     ANDREY ASADCHEV, ROB BELL, PRADIPTA BANDYOPADHYAY, JONATHAN BENTZ,
     BRETT BODE, KURT BRORSEN, CALEB CARLIN, GALINA CHABAN, WEI CHEN,
     CHEOL HO CHOI, PAUL DAY, ALBERT DEFUSCO, NUWAN DESILVA, TIM DUDLEY,
     DMITRI FEDOROV, ALEX FINDLATER, GRAHAM FLETCHER, MARK FREITAG,
     KURT GLAESEMANN, ANASTASIA GUNINA,
     DAN KEMP, GRANT MERRILL, NORIYUKI MINEZAWA, JONATHAN MULLIN,
     TAKESHI NAGATA, SEAN NEDD, HEATHER NETZLOFF, BOSILJKA NJEGIC, RYAN OLSON,
     MIKE PAK, BUU PHAM,
     SPENCER PRUITT, LUKE ROSKOP, JIM SHOEMAKER, LYUDMILA SLIPCHENKO,
     TONY SMITH, SAROM SOK LEANG, JIE SONG, TETSUYA TAKETSUGU, SIMON WEBB,
     PENG XU, SOOHAENG YOO, FEDERICO ZAHARIEV

  ADDITIONAL CODE HAS BEEN PROVIDED BY COLLABORATORS IN OTHER GROUPS:
     IOWA STATE UNIVERSITY:
          JOE IVANIC, AARON WEST, LAIMUTIS BYTAUTAS, KLAUS RUEDENBERG
     UNIVERSITY OF TOKYO: KIMIHIKO HIRAO, TAKAHITO NAKAJIMA,
          TAKAO TSUNEDA, MUNEAKI KAMIYA, SUSUMU YANAGISAWA,
          KIYOSHI YAGI, MAHITO CHIBA, SEIKEN TOKURA, NAOAKI KAWAKAMI
     UNIVERSITY OF AARHUS: FRANK JENSEN
     UNIVERSITY OF IOWA: VISVALDAS KAIRYS, HUI LI
     NATIONAL INST. OF STANDARDS AND TECHNOLOGY: WALT STEVENS, DAVID GARMER
     UNIVERSITY OF PISA: BENEDETTA MENNUCCI, JACOPO TOMASI
     UNIVERSITY OF MEMPHIS: HENRY KURTZ, PRAKASHAN KORAMBATH
     UNIVERSITY OF ALBERTA: TOBY ZENG, MARIUSZ KLOBUKOWSKI
     UNIVERSITY OF NEW ENGLAND: MARK SPACKMAN
     MIE UNIVERSITY: HIROAKI UMEDA
     NAT. INST. OF ADVANCED INDUSTRIAL SCIENCE AND TECHNOLOGY: KAZUO KITAURA
     MICHIGAN STATE UNIVERSITY:
          KAROL KOWALSKI, MARTA WLOCH, JEFFREY GOUR, JESSE LUTZ,
          WEI LI, JUN SHEN, J. EMILIANO DEUSTUA, PIOTR PIECUCH
     UNIVERSITY OF MINNESOTA:
          YINAN SHU
     UNIVERSITY OF SILESIA: MONIKA MUSIAL, STANISLAW KUCHARSKI
     FACULTES UNIVERSITAIRES NOTRE-DAME DE LA PAIX:
          OLIVIER QUINET, BENOIT CHAMPAGNE
     UNIVERSITY OF CALIFORNIA - SANTA BARBARA: BERNARD KIRTMAN
     INSTITUTE FOR MOLECULAR SCIENCE:
          KAZUYA ISHIMURA, MICHIO KATOUDA, AND SHIGERU NAGASE
     UNIVERSITY OF NOTRE DAME: ANNA POMOGAEVA, DAN CHIPMAN
     KYUSHU UNIVERSITY:
          HARUYUKI NAKANO,
          FENG LONG GU, JACEK KORCHOWIEC, MARCIN MAKOWSKI, AND YURIKO AOKI,
          HIROTOSHI MORI AND EISAKU MIYOSHI
     PENNSYLVANIA STATE UNIVERSITY:
          TZVETELIN IORDANOV, CHET SWALINA, JONATHAN SKONE,
          SHARON HAMMES-SCHIFFER
     WASEDA UNIVERSITY:
          MASATO KOBAYASHI, TOMOKO AKAMA, TSUGUKI TOUMA,
          TAKESHI YOSHIKAWA, YASUHIRO IKABATA, JUNJI SEINO,
          YUYA NAKAJIMA, HIROMI NAKAI
     NANJING UNIVERSITY: SHUHUA LI
     UNIVERSITY OF NEBRASKA:
          PEIFENG SU, DEJUN SI, NANDUN THELLAMUREGE, YALI WANG, HUI LI
     UNIVERSITY OF ZURICH: ROBERTO PEVERATI, KIM BALDRIDGE
     N. COPERNICUS UNIVERSITY AND JACKSON STATE UNIVERSITY:
          MARIA BARYSZ
     UNIVERSITY OF COPENHAGEN: Jimmy Kromann, CASPER STEINMANN
     TOKYO INSTITUTE OF TECHNOLOGY: HIROYA NAKATA
     NAGOYA UNIVERSITY: YOSHIO NISHIMOTO, STEPHAN IRLE
     MOSCOW STATE UNIVERSITY: VLADIMIR MIRONOV


 PARALLEL VERSION RUNNING ON       16 PROCESSORS IN        1 NODES.

 EXECUTION OF GAMESS BEGUN Sat Dec  7 00:06:24 2019

            ECHO OF THE FIRST FEW INPUT CARDS -
 INPUT CARD>!*** FMO 5.3 (Gamess) INPUT generated by Facio 22.1.1.32 ***                    
 INPUT CARD> $CONTRL RUNTYP=ENERGY NPRINT=-5 ISPHER=1 MAXIT=200 $END                        
 INPUT CARD> $SYSTEM MWORDS=63 MEMDDI=63 $END                                               
 INPUT CARD> $GDDI NGROUP=1 $END                                                            
 INPUT CARD> $SCF DIRSCF=.TRUE. NPUNCH=0 $END                                               
 INPUT CARD>!*** NumCPU : 2  MemPerNode : 512MB                                             
 INPUT CARD> $PCM SOLVNT=WATER IEF=-10 ICOMP=2 ICAV=1 IDISP=1 IFMO=-1 $END                  
 INPUT CARD> $PCMCAV RADII=SUAHF $END                                                       
 INPUT CARD> $TESCAV NTSALL=60 $END                                                         
 INPUT CARD> $FMOPRP                                                                        
 INPUT CARD>    NAODIR=200                                                                  
 INPUT CARD>    NGRFMO(1)=1, 1, 0, 0, 0,   0, 0, 0, 0, 0                                    
 INPUT CARD>    IPIEDA=1                                                                    
 INPUT CARD>    NPRINT=9                                                                    
 INPUT CARD> $END                                                                           
 INPUT CARD> $FMO                                                                           
 INPUT CARD>      SCFTYP(1)=RHF                                                             
 INPUT CARD>      MODGRD=10                                                                 
 INPUT CARD>      MODMUL=0                                                                  
 INPUT CARD>      MAXCAO=5                                                                  
 INPUT CARD>      MAXBND=10                                                                 
 INPUT CARD>      NLAYER=1                                                                  
 INPUT CARD>      MPLEVL(1)=2                                                               
 INPUT CARD>      NFRAG=8                                                                   
 INPUT CARD>      ICHARG(1)=-1, -1, -1, -1, -1, -1, -1, 0                                   
 INPUT CARD>      FRGNAM(1)=F1, F2, F3, F4, F5, F6, F7, F8                                  
 INPUT CARD>      indat(1)=0                                                                
 INPUT CARD>               1   -36   0                                                      
 INPUT CARD>               37   -67   0                                                     
 INPUT CARD>               68   -97   0                                                     
 INPUT CARD>               98   -127   0                                                    
 INPUT CARD>               128   -160   0                                                   
 INPUT CARD>               161   -191   0                                                   
 INPUT CARD>               192   -225   0                                                   
 INPUT CARD>               226   -253   0                                                   
 INPUT CARD> $END                                                                           
 INPUT CARD>                                                                                
 INPUT CARD> $FMOBND                                                                        
 INPUT CARD>   -37   36       6-31G*    MINI                                                
 INPUT CARD>   -68   67       6-31G*    MINI                                                
 INPUT CARD>   -98   97       6-31G*    MINI                                                
 INPUT CARD>   -128   127       6-31G*    MINI                                              
 INPUT CARD>   -161   160       6-31G*    MINI                                              
 INPUT CARD>   -192   191       6-31G*    MINI                                              
 INPUT CARD>   -226   225       6-31G*    MINI                                              
 INPUT CARD> $END                                                                           
 INPUT CARD> $FMOHYB                                                                        
 INPUT CARD> 6-31G*      15   5                                                             
 INPUT CARD>   1 0  -0.065034   0.288264   0.000000   0.000000   0.604412                   
 INPUT CARD>         0.290129   0.000000   0.000000   0.319045  -0.017106                   


 -------------------------------------------------------------
 GROUP DDI, PROGRAMMED BY: RYAN M. OLSON AND DMITRI G. FEDOROV
        FEDOROV ET AL., J. COMPUT. CHEM., 25 (2004) 872.
 -------------------------------------------------------------

 -------------------------------------------------------
 GDDI: INITIALIZATION COMPLETED FOR GROUP     1 OF     1
 WITH    16 PROCESSES BALTYP=DLB   global rank=        0
 -------------------------------------------------------

   63000000 WORDS OF MEMORY AVAILABLE


     RUN TITLE
     ---------
  FMO calculation                                                                

 THE POINT GROUP OF THE MOLECULE IS C1      
 THE ORDER OF THE PRINCIPAL AXIS IS     0

 ATOM   ATOMIC CHARGE
 H.1-1       1.0
 O.1-1       8.0
 C.1-1       6.0
 N.1-1       7.0
 P.1-1      15.0

     ATOMIC BASIS SET LIBRARY
     ----------------
 THE CONTRACTED PRIMITIVE FUNCTIONS HAVE BEEN UNNORMALIZED
 THE CONTRACTED BASIS FUNCTIONS ARE NOW NORMALIZED TO UNITY

  SHELL TYPE  PRIMITIVE        EXPONENT          CONTRACTION COEFFICIENT(S)

 H.1-1     

      1   S       1            18.7311370    0.033494604338
      1   S       2             2.8253944    0.234726953484
      1   S       3             0.6401217    0.813757326146

      2   S       4             0.1612778    1.000000000000

 O.1-1     

      3   S       5          5484.6716600    0.001831074430
      3   S       6           825.2349460    0.013950172200
      3   S       7           188.0469580    0.068445078098
      3   S       8            52.9645000    0.232714335992
      3   S       9            16.8975704    0.470192897984
      3   S      10             5.7996353    0.358520852987

      4   L      11            15.5396162   -0.110777549525    0.070874268231
      4   L      12             3.5999336   -0.148026262701    0.339752839147
      4   L      13             1.0137618    1.130767015354    0.727158577316

      5   L      14             0.2700058    1.000000000000    1.000000000000

      6   D      15             0.8000000    1.000000000000

 C.1-1     

      7   S      16          3047.5248800    0.001834737132
      7   S      17           457.3695180    0.014037322813
      7   S      18           103.9486850    0.068842622264
      7   S      19            29.2101553    0.232184443216
      7   S      20             9.2866630    0.467941348435
      7   S      21             3.1639270    0.362311985337

      8   L      22             7.8682723   -0.119332419775    0.068999066591
      8   L      23             1.8812885   -0.160854151696    0.316423960957
      8   L      24             0.5442493    1.143456437840    0.744308290898

      9   L      25             0.1687145    1.000000000000    1.000000000000

     10   D      26             0.8000000    1.000000000000

 N.1-1     

     11   S      27          4173.5114600    0.001834772160
     11   S      28           627.4579110    0.013994627002
     11   S      29           142.9020930    0.068586551812
     11   S      30            40.2343293    0.232240873040
     11   S      31            12.8202129    0.469069948082
     11   S      32             4.3904370    0.360455199063

     12   L      33            11.6263619   -0.114961181702    0.067579743878
     12   L      34             2.7162798   -0.169117478561    0.323907295893
     12   L      35             0.7722184    1.145851947027    0.740895139755

     13   L      36             0.2120315    1.000000000000    1.000000000000

     14   D      37             0.8000000    1.000000000000

 P.1-1     

     15   S      38         19413.3000000    0.001851598923
     15   S      39          2909.4200000    0.014206191735
     15   S      40           661.3640000    0.069999459277
     15   S      41           185.7590000    0.240078860331
     15   S      42            59.1943000    0.484761717984
     15   S      43            20.0310000    0.335199804993

     16   L      44           339.4780000   -0.002782170105    0.004564616191
     16   L      45            81.0101000   -0.036049901354    0.033693571881
     16   L      46            25.8780000   -0.116631004382    0.139754883368
     16   L      47             9.4522100    0.096832803638    0.339361716786
     16   L      48             3.6656600    0.614418023082    0.450920623685
     16   L      49             1.4674600    0.403798015170    0.238585800889

     17   L      50             2.1562300   -0.252924113863   -0.017765312733
     17   L      51             0.7489970    0.032851844678    0.274058196433
     17   L      52             0.2831450    1.081254761783    0.785421562957

     18   L      53             0.0998317    1.000000000000    1.000000000000

     19   D      54             0.5500000    1.000000000000

 TOTAL NUMBER OF BASIS SET SHELLS             =   19
 NUMBER OF CARTESIAN GAUSSIAN BASIS FUNCTIONS =   66

     $CONTRL OPTIONS
     ---------------
 SCFTYP=RHF          RUNTYP=ENERGY       EXETYP=RUN     
 MPLEVL=       0     CITYP =NONE         CCTYP =NONE         VBTYP =NONE    
 DFTTYP=NONE         TDDFT =NONE    
 MULT  =       1     ICHARG=       0     NZVAR =       0     COORD =UNIQUE  
 PP    =NONE         RELWFN=NONE         LOCAL =NONE         NUMGRD=       F
 ISPHER=       1     NOSYM =       0     MAXIT =     200     UNITS =ANGS    
 PLTORB=       F     MOLPLT=       F     AIMPAC=       F     FRIEND=        
 NPRINT=      -5     IREST =       0     GEOM  =INPUT   
 NORMF =       0     NORMP =       0     ITOL  =      24     ICUT  =      12
 INTTYP=BEST         GRDTYP=BEST         QMTTOL= 1.0E-06

     $SYSTEM OPTIONS
     ---------------
  REPLICATED MEMORY=    63000000 WORDS (ON EVERY NODE).
 DISTRIBUTED MEMDDI=          63 MILLION WORDS IN AGGREGATE,
 MEMDDI DISTRIBUTED OVER  16 PROCESSORS IS     3937500 WORDS/PROCESSOR.
 TOTAL MEMORY REQUESTED ON EACH PROCESSOR=    66937500 WORDS.
 TIMLIM=      525600.00 MINUTES, OR     365.0 DAYS.
 PARALL= T  BALTYP=  DLB     KDIAG=    0  COREFL= F
 MXSEQ2=     300 MXSEQ3=     150  mem10=         0

 ** LOOKING UP INTERNALLY STORED DATA FOR SOLVENT=WATER    **
 OPTICAL AND PHYSICAL CONSTANTS:
 EPS= 78.390; EPSINF=  1.776; RSOLV=  1.385 A; VMOL=  18.070 ML/MOL;
 TCE= .25700E-03 1/K; STEN= 71.810 DYN/CM;  DSTEN=  0.6500; CMF=  1.2770


     -----------------------------------
     INPUT FOR PCM SOLVATION CALCULATION 
     -----------------------------------
     IEF   =     -10
     ICOMP =       2     IFIELD=       0     ICAV  =       1
     IDISP =       1     IREP  =       0     IDP   =       0

     SOLVNT=WATER        EPS   = 78.3900     EPSINF=  1.7760
     VMOL  = 18.0700     TCE   =  0.00025700 STEN  = 71.8100
     DSTEN =  0.6500     CMF   =  1.2770     RSOLV =  1.3850

     NESFP =       0
     OMEGA = 40.0000     RET   =100.0000     FRO   =  0.7000

     TABS  =298.0000     IPRINT=       0

     --------------------------------
     INPUT FOR ITERATIVE C-PCM METHOD 
     --------------------------------
     IPCMIT  =         1     MXDIIS  =        50
     MXITR1  =       200     MXITR2  =       200
     THRES   = 0.100E-09     IMUL    =         3
     RCUT(1) =   20.0000     RCUT(2) =   50.0000

     IDIRCT  =         1
     IMGABI  =         0     RABI    =    4.0000
     IMGASC  =         0     RASC    =   20.0000
     THRSLS  = 0.500E-03     DENSLS  =    0.0100
     IEFPOL  =         1     REFPOL  =    0.0000

     INPUT FOR ISOTROPIC DIELECTRICS
     -------------------------------
     EPS=    78.39

          ----------------
          PROPERTIES INPUT
          ----------------

     MOMENTS            FIELD           POTENTIAL          DENSITY
 IEMOM =       1   IEFLD =       0   IEPOT =       0   IEDEN =       0
 WHERE =COMASS     WHERE =NUCLEI     WHERE =NUCLEI     WHERE =NUCLEI  
 OUTPUT=BOTH       OUTPUT=BOTH       OUTPUT=NONE       OUTPUT=BOTH    
 IEMINT=       0   IEFINT=       0                     IEDINT=       0
                                                       MORB  =       0
          EXTRAPOLATION IN EFFECT
          SOSCF IN EFFECT
 ORBITAL PRINTING OPTION: NPREO=     1 32767     2     1

     -------------------------------
     INTEGRAL TRANSFORMATION OPTIONS
     -------------------------------
     NWORD  =            0
     CUTOFF = 1.0E-10     MPTRAN =       0
     DIRTRF =       T     AOINTS =DUP     

          ----------------------
          INTEGRAL INPUT OPTIONS
          ----------------------
 NOPK  =       1 NORDER=       0 SCHWRZ=       T

 ..... DONE SETTING UP THE RUN .....
 CPU     0: STEP CPU TIME=     0.04 TOTAL CPU TIME=          0.0 (      0.0 MIN)
 TOTAL WALL CLOCK TIME=          0.1 SECONDS, CPU UTILIZATION IS    57.14%
 CPU     0: STEP CPU TIME=     0.00 TOTAL CPU TIME=          0.0 (      0.0 MIN)
 TOTAL WALL CLOCK TIME=          0.1 SECONDS, CPU UTILIZATION IS    57.14%

                    ----------------------
                    AO INTEGRAL TECHNOLOGY
                    ----------------------
     S,P,L SHELL ROTATED AXIS INTEGRALS, REPROGRAMMED BY
        KAZUYA ISHIMURA (IMS) AND JOSE SIERRA (SYNSTAR).
     S,P,D,L SHELL ROTATED AXIS INTEGRALS PROGRAMMED BY
        KAZUYA ISHIMURA (INSTITUTE FOR MOLECULAR SCIENCE).
     S,P,D,F,G SHELL TO TOTAL QUARTET ANGULAR MOMENTUM SUM 5,
        ERIC PROGRAM BY GRAHAM FLETCHER (ELORET AND NASA ADVANCED
        SUPERCOMPUTING DIVISION, AMES RESEARCH CENTER).
     S,P,D,F,G,L SHELL GENERAL RYS QUADRATURE PROGRAMMED BY
        MICHEL DUPUIS (PACIFIC NORTHWEST NATIONAL LABORATORY).
 Setting modorb=1 flag...
 Setting modorb=1 flag...

          -----------------------
          MP2 CONTROL INFORMATION
          -----------------------
          NACORE =        8  NBCORE =        8
          LMOMP2 =        F  AOINTS = DUP     
          METHOD =        2  NWORD  =               0
          MP2PRP =        F  OSPT   = NONE    
          CUTOFF = 1.00E-12  CPHFBS = BASISAO 
          CODE   = IMS     

          NUMBER OF CORE -A-  ORBITALS =     8
          NUMBER OF CORE -B-  ORBITALS =     8
          NUMBER OF OCC. -A-  ORBITALS =    18
          NUMBER OF OCC. -B-  ORBITALS =    18
          NUMBER OF MOLECULAR ORBITALS =    66
          NUMBER OF   BASIS  FUNCTIONS =    66

 CPU     0: STEP CPU TIME=     0.02 TOTAL CPU TIME=          0.1 (      0.0 MIN)
 TOTAL WALL CLOCK TIME=          0.1 SECONDS, CPU UTILIZATION IS    60.00%
 CPU     0: STEP CPU TIME=     0.00 TOTAL CPU TIME=          0.1 (      0.0 MIN)
 TOTAL WALL CLOCK TIME=          0.1 SECONDS, CPU UTILIZATION IS    60.00%

     INPUT FOR CAVITY DEFINITION 
     ---------------------------
   ATOM               COORDINATES                RADIUS       EPS
      1      3.8360     -6.8570     10.8970      0.0100     78.3900
      2      3.2720     -6.1520     11.2650      1.5900     78.3900
      3      3.9970     -5.5680     12.3570      1.7700     78.3900
      4      4.9900     -5.2190     11.9880      0.0100     78.3900
      5      4.1730     -6.3490     13.1310      0.0100     78.3900
      6      3.2690     -4.3840     12.9960      1.7700     78.3900
      7      3.8440     -3.9940     13.8680      0.0100     78.3900
      8      3.1370     -3.2990     12.0320      1.5900     78.3900
      9      1.8790     -2.6690     12.2100      1.7700     78.3900
     10      2.0820     -1.5870     12.3760      0.0100     78.3900
     11      1.0250     -2.8190     11.0240      1.6800     78.3900
     12     -0.0720     -2.0580     10.7210      1.7700     78.3900
     13     -2.2630      0.5020     11.5160      1.6800     78.3900
     14     -1.9090      0.8370     12.3880      0.0100     78.3900
     15     -3.0770      0.9340     11.1200      0.0100     78.3900
     16     -0.5660     -1.0560     11.4690      1.6800     78.3900
     17     -1.6290     -0.4840     10.9080      1.7700     78.3900
     18     -2.1220     -0.8540      9.6840      1.6800     78.3900
     19     -2.9290     -0.3650      9.3300      0.0100     78.3900
     20     -1.6190     -1.8680      8.8780      1.7700     78.3900
     21     -2.1210     -2.1330      7.7790      1.5900     78.3900
     22     -0.5170     -2.5200      9.4960      1.7700     78.3900
     23      0.2710     -3.5740      9.0470      1.6800     78.3900
     24      1.1750     -3.7190      9.9890      1.7700     78.3900
     25      1.9790     -4.4590      9.9850      0.0100     78.3900
     26      1.2500     -3.2630     13.4520      1.7700     78.3900
     27      0.1440     -3.2790     13.3980      0.0100     78.3900
     28      1.6550     -2.5270     14.5890      1.5900     78.3900
     29      1.2640     -2.9650     15.3540      0.0100     78.3900
     30      1.8360     -4.6720     13.4560      1.7700     78.3900
     31      1.3550     -5.2910     12.6620      0.0100     78.3900
     32      1.8700     -5.3330     14.7420      1.5900     78.3900
     33      0.6350     -6.2060     15.1830      2.1000     78.3900
     34      0.2870     -7.1340     14.0890      1.5900     78.3900
     35      0.9410     -6.8150     16.4940      1.5900     78.3900
     36     -0.5120     -5.1440     15.3530      1.5900     78.3900
     37     -0.5330     -4.2300     16.4710      1.7700     78.3900
     38      0.4090     -3.6400     16.5410      0.0100     78.3900
     39     -0.6370     -4.7910     17.4280      0.0100     78.3900
     40     -1.7130     -3.2570     16.3750      1.7700     78.3900
     41     -1.6920     -2.5320     17.2190      0.0100     78.3900
     42     -1.6460     -2.4840     15.1420      1.5900     78.3900
     43     -2.9670     -2.2710     14.6570      1.7700     78.3900
     44     -3.0930     -1.1650     14.5880      0.0100     78.3900
     45     -3.1920     -2.8660     13.3010      1.6800     78.3900
     46     -2.3910     -3.8980     12.8630      1.7700     78.3900
     47     -1.6250     -4.2330     13.5610      0.0100     78.3900
     48     -2.5310     -4.4280     11.6400      1.7700     78.3900
     49     -1.8770     -5.2130     11.2630      0.0100     78.3900
     50     -4.2310     -2.4150     12.4870      1.7700     78.3900
     51     -4.9940     -1.5260     12.9010      1.5900     78.3900
     52     -4.3860     -2.9370     11.2470      1.6800     78.3900
     53     -3.5660     -3.9080     10.8130      1.7700     78.3900
     54     -3.7360     -4.3910      9.5840      1.6800     78.3900
     55     -4.4980     -4.0550      9.0240      0.0100     78.3900
     56     -3.1550     -5.1120      9.2050      0.0100     78.3900
     57     -3.9230     -2.8090     15.7100      1.7700     78.3900
     58     -4.8430     -3.2000     15.2530      0.0100     78.3900
     59     -4.2720     -1.7990     16.6420      1.5900     78.3900
     60     -4.7500     -2.2310     17.3680      0.0100     78.3900
     61     -3.0960     -3.9110     16.3520      1.7700     78.3900
     62     -3.0250     -4.7880     15.6680      0.0100     78.3900
     63     -3.4920     -4.2610     17.6980      1.5900     78.3900
     64     -4.4760     -5.4710     17.9150      2.1000     78.3900
     65     -4.0740     -6.5990     17.0440      1.5900     78.3900
     66     -4.5390     -5.7490     19.3640      1.5900     78.3900
     67     -5.8890     -4.9290     17.4700      1.5900     78.3900
     68     -6.8730     -5.8120     16.8640      1.7700     78.3900
     69     -7.7030     -6.0080     17.5820      0.0100     78.3900
     70     -6.4480     -6.8020     16.5720      0.0100     78.3900
     71     -7.4680     -5.1970     15.5890      1.7700     78.3900
     72     -8.0920     -4.3080     15.8270      0.0100     78.3900
     73     -6.3890     -4.7530     14.7280      1.5900     78.3900
     74     -6.6400     -5.1030     13.3950      1.7700     78.3900
     75     -6.4960     -4.1640     12.8110      0.0100     78.3900
     76     -5.6850     -6.1380     12.9080      1.6800     78.3900
     77     -4.8690     -6.8290     13.7820      1.7700     78.3900
     78     -4.9940     -6.5980     14.8430      0.0100     78.3900
     79     -5.5820     -6.3350     11.5500      1.7700     78.3900
     80     -6.2640     -5.7110     10.7460      1.5900     78.3900
     81     -4.6410     -7.2530     11.1620      1.6800     78.3900
     82     -4.5670     -7.4200     10.1710      0.0100     78.3900
     83     -3.7860     -7.9670     11.9750      1.7700     78.3900
     84     -2.9820     -8.7540     11.4820      1.5900     78.3900
     85     -3.9410     -7.7020     13.3720      1.7700     78.3900
     86     -3.3050     -8.2160     14.0850      0.0100     78.3900
     87     -8.0910     -5.5300     13.3370      1.7700     78.3900
     88     -8.3050     -6.2650     12.5300      0.0100     78.3900
     89     -8.8980     -4.3710     13.1930      1.5900     78.3900
     90     -8.4500     -3.7310     12.6280      0.0100     78.3900
     91     -8.2780     -6.1630     14.7140      1.7700     78.3900
     92     -7.7650     -7.1540     14.7550      0.0100     78.3900
     93     -9.6430     -6.2470     15.1920      1.5900     78.3900
     94    -10.6300     -7.1980     14.4040      2.1000     78.3900
     95     -9.8230     -8.1690     13.6370      1.5900     78.3900
     96    -11.6000     -7.7960     15.3510      1.5900     78.3900
     97    -11.3990     -6.2610     13.3930      1.5900     78.3900
     98    -12.7740     -5.8630     13.5990      1.7700     78.3900
     99    -12.8130     -4.9690     14.2620      0.0100     78.3900
    100    -13.3680     -6.6650     14.0950      0.0100     78.3900
    101    -13.4710     -5.4870     12.2720      1.7700     78.3900
    102    -13.1020     -4.4990     11.9270      0.0100     78.3900
    103    -13.2220     -6.4630     11.2220      1.5900     78.3900
    104    -14.3680     -7.2720     11.0280      1.7700     78.3900
    105    -14.7900     -6.9390     10.0500      0.0100     78.3900
    106    -14.0050     -8.7110     11.0070      1.6800     78.3900
    107    -12.9650     -9.1730     11.7840      1.7700     78.3900
    108    -12.4530     -8.4130     12.3800      0.0100     78.3900
    109    -14.7280     -9.5670     10.2080      1.7700     78.3900
    110    -15.6730     -9.1940      9.5200      1.5900     78.3900
    111    -14.2970    -10.8710     10.2190      1.6800     78.3900
    112    -14.8170    -11.5100      9.6250      0.0100     78.3900
    113    -13.2470    -11.3990     10.9450      1.7700     78.3900
    114    -12.9610    -12.5930     10.8460      1.5900     78.3900
    115    -12.5630    -10.4510     11.7720      1.7700     78.3900
    116    -11.7100    -10.7940     12.3540      0.0100     78.3900
    117    -15.3510     -6.9310     12.1330      1.7700     78.3900
    118    -15.1640     -7.5460     13.0430      0.0100     78.3900
    119    -16.6940     -7.0660     11.7180      1.5900     78.3900
    120    -16.8490     -6.3640     11.0650      0.0100     78.3900
    121    -14.9990     -5.4690     12.4110      1.7700     78.3900
    122    -15.2600     -5.2590     13.4780      0.0100     78.3900
    123    -15.6070     -4.5300     11.4900      1.5900     78.3900
    124    -16.0810     -3.1240     12.0140      2.1000     78.3900
    125    -17.5570     -3.1510     12.1220      1.5900     78.3900
    126    -15.3460     -2.7730     13.2480      1.5900     78.3900
    127    -15.6550     -2.1220     10.8810      1.5900     78.3900
    128    -16.5270     -1.7520      9.7890      1.7700     78.3900
    129    -16.6920     -0.6510      9.8130      0.0100     78.3900
    130    -17.5380     -2.2350      9.8450      0.0100     78.3900
    131    -15.9240     -2.1080      8.4240      1.7700     78.3900
    132    -16.4740     -1.5820      7.6230      0.0100     78.3900
    133    -14.5740     -1.6190      8.2880      1.5900     78.3900
    134    -13.7520     -2.5990      7.6730      1.7700     78.3900
    135    -13.3170     -2.1280      6.7620      0.0100     78.3900
    136    -12.6680     -2.9840      8.5750      1.6800     78.3900
    137    -10.8230     -3.8170      9.4070      1.7700     78.3900
    138    -11.4070     -3.0910     10.4350      1.6800     78.3900
    139    -12.5030     -2.6240      9.8910      1.7700     78.3900
    140    -13.2410     -2.0040     10.4050      0.0100     78.3900
    141     -9.3250     -5.1610      8.1580      1.6800     78.3900
    142    -10.1470     -4.9820      7.1210      1.7700     78.3900
    143     -9.8490     -5.4820      6.1960      0.0100     78.3900
    144    -11.3180     -4.3390      7.0780      1.6800     78.3900
    145    -11.5870     -3.7560      8.2580      1.7700     78.3900
    146     -9.6340     -4.5610      9.3310      1.7700     78.3900
    147     -8.8080     -4.6900     10.3670      1.6800     78.3900
    148     -9.2040     -4.6700     11.2900      0.0100     78.3900
    149     -7.9240     -5.1500     10.2420      0.0100     78.3900
    150    -14.6150     -3.7870      7.2680      1.7700     78.3900
    151    -14.1140     -4.7570      7.4770      0.0100     78.3900
    152    -14.9520     -3.7490      5.9040      1.5900     78.3900
    153    -15.4210     -2.9210      5.7020      0.0100     78.3900
    154    -15.8290     -3.6250      8.1670      1.7700     78.3900
    155    -15.5610     -4.0830      9.1400      0.0100     78.3900
    156    -17.0590     -4.2120      7.7090      1.5900     78.3900
    157    -18.1800     -3.5790      6.8170      2.1000     78.3900
    158    -18.8890     -4.6670      6.1060      1.5900     78.3900
    159    -19.0060     -2.7080      7.6770      1.5900     78.3900
    160    -17.4310     -2.6650      5.7590      1.5900     78.3900
    161    -18.0860     -2.0180      4.6570      1.7700     78.3900
    162    -18.3810     -0.9860      4.9430      0.0100     78.3900
    163    -19.0100     -2.5620      4.3560      0.0100     78.3900
    164    -17.1570     -1.9780      3.4350      1.7700     78.3900
    165    -16.6490     -2.9570      3.3010      0.0100     78.3900
    166    -17.9520     -1.6780      2.2510      1.5900     78.3900
    167    -17.7850     -0.3050      1.8630      1.7700     78.3900
    168    -17.2020     -0.3370      0.9160      0.0100     78.3900
    169    -19.0970      0.4030      1.6180      1.6800     78.3900
    170    -20.2740     -0.3220      1.6870      1.7700     78.3900
    171    -20.1860     -1.3680      1.9800      0.0100     78.3900
    172    -21.4640      0.2370      1.4300      1.7700     78.3900
    173    -22.3960     -0.3240      1.4980      0.0100     78.3900
    174    -19.1600      1.7360      1.1790      1.7700     78.3900
    175    -18.1170      2.3680      0.9710      1.5900     78.3900
    176    -20.3560      2.3290      0.9700      1.6800     78.3900
    177    -21.4860      1.6110      1.0650      1.7700     78.3900
    178    -22.6420      2.2070      0.7900      1.6800     78.3900
    179    -22.6370      3.1830      0.5680      0.0100     78.3900
    180    -23.5210      1.7310      0.8600      0.0100     78.3900
    181    -16.9270      0.3510      2.9450      1.7700     78.3900
    182    -17.5680      0.7650      3.7540      0.0100     78.3900
    183    -16.0530      1.3490      2.4440      1.5900     78.3900
    184    -15.4210      0.9050      1.8590      0.0100     78.3900
    185    -16.1250     -0.8370      3.4640      1.7700     78.3900
    186    -15.8530     -0.6570      4.5310      0.0100     78.3900
    187    -14.9730     -1.1410      2.6440      1.5900     78.3900
    188    -13.5140     -1.1450      3.2350      2.1000     78.3900
    189    -13.4140     -2.2340      4.2140      1.5900     78.3900
    190    -12.5540     -1.1830      2.1110      1.5900     78.3900
    191    -13.3600      0.2390      3.9760      1.5900     78.3900
    192    -12.0320      0.7820      4.2160      1.7700     78.3900
    193    -11.9160      1.7280      3.6360      0.0100     78.3900
    194    -11.2030      0.0970      3.9030      0.0100     78.3900
    195    -11.8330      1.1190      5.6970      1.7700     78.3900
    196    -12.6920      1.7140      6.0730      0.0100     78.3900
    197    -11.7710     -0.0980      6.5030      1.5900     78.3900
    198    -10.8020      0.0570      7.5280      1.7700     78.3900
    199    -11.3060     -0.1950      8.4880      0.0100     78.3900
    200     -9.6560     -0.8490      7.3260      1.6800     78.3900
    201     -8.6850     -1.1560      8.2450      1.7700     78.3900
    202     -7.3190     -0.8260     11.4140      1.6800     78.3900
    203     -7.9090     -0.1360     11.8330      0.0100     78.3900
    204     -6.4860     -1.1070     11.8970      0.0100     78.3900
    205     -8.6000     -0.6750      9.4970      1.6800     78.3900
    206     -7.5630     -1.1800     10.1650      1.7700     78.3900
    207     -6.6830     -2.0780      9.6200      1.6800     78.3900
    208     -5.9180     -2.4040     10.1910      0.0100     78.3900
    209     -6.7470     -2.5940      8.3330      1.7700     78.3900
    210     -5.9090     -3.3980      7.9130      1.5900     78.3900
    211     -7.8400     -2.0460      7.6090      1.7700     78.3900
    212     -8.2540     -2.2760      6.3040      1.6800     78.3900
    213     -9.3410     -1.5500      6.1810      1.7700     78.3900
    214     -9.9720     -1.4950      5.2900      0.0100     78.3900
    215    -10.3830      1.5120      7.5310      1.7700     78.3900
    216     -9.3350      1.6500      7.8680      0.0100     78.3900
    217    -11.2460      2.2600      8.3640      1.5900     78.3900
    218    -11.0210      3.1890      8.2340      0.0100     78.3900
    219    -10.5510      1.8830      6.0560      1.7700     78.3900
    220     -9.7400      1.4120      5.4520      0.0100     78.3900
    221    -10.7210      3.3000      5.7940      1.5900     78.3900
    222     -9.4870      4.1370      5.2820      2.1000     78.3900
    223     -8.7500      3.3460      4.2760      1.5900     78.3900
    224     -9.9280      5.4970      4.8810      1.5900     78.3900
    225     -8.5960      4.2680      6.5710      1.5900     78.3900
    226     -9.0720      5.0300      7.7070      1.7700     78.3900
    227    -10.0550      4.6500      8.0680      0.0100     78.3900
    228     -9.2050      6.1060      7.4440      0.0100     78.3900
    229     -8.0810      4.9630      8.8740      1.7700     78.3900
    230     -8.4090      5.6110      9.7160      0.0100     78.3900
    231     -8.0140      3.6000      9.3760      1.5900     78.3900
    232     -6.6720      3.2970      9.7330      1.7700     78.3900
    233     -6.7080      2.9890     10.8030      0.0100     78.3900
    234     -6.1050      2.1870      8.9240      1.6800     78.3900
    235     -6.6510      1.8710      7.7010      1.7700     78.3900
    236     -7.5190      2.4540      7.4010      0.0100     78.3900
    237     -6.1600      0.8800      6.9480      1.7700     78.3900
    238     -6.6000      0.6020      5.9930      0.0100     78.3900
    239     -4.9910      1.4940      9.3810      1.7700     78.3900
    240     -4.4800      1.8150     10.4650      1.5900     78.3900
    241     -4.4780      0.4880      8.6350      1.6800     78.3900
    242     -5.0300      0.1740      7.4490      1.7700     78.3900
    243     -4.5170     -0.8330      6.7490      1.6800     78.3900
    244     -3.7370     -1.3440      7.1190      0.0100     78.3900
    245     -4.9170     -1.1380      5.8810      0.0100     78.3900
    246     -5.8590      4.5770      9.6130      1.7700     78.3900
    247     -4.8100      4.3820      9.2940      0.0100     78.3900
    248     -5.8730      5.2730     10.8510      1.5900     78.3900
    249     -5.5090      6.1680     10.7190      0.0100     78.3900
    250     -6.6270      5.3180      8.5260      1.7700     78.3900
    251     -6.3880      4.8950      7.5260      0.0100     78.3900
    252     -6.4360      6.7430      8.5390      1.5900     78.3900
    253     -5.5190      6.9560      8.2960      0.0100     78.3900

     ----------------------------
     INPUT FOR TESSERA DEFINITION
     ----------------------------
     NTSALL  =        60     MTHALL  =         4
     MTHAUT  =         0     AUTFRE  =    2.0000
     NTSFRZ  =        60     KEEPSM  =         0
     AREAKP  =   10.0000     BONDRY  =    1.0000
     AREATL  =    0.0100

     SPHERE     INITS       METHOD
          1        60       FIXPVA
          2        60       FIXPVA
          3        60       FIXPVA
          4        60       FIXPVA
          5        60       FIXPVA
          6        60       FIXPVA
          7        60       FIXPVA
          8        60       FIXPVA
          9        60       FIXPVA
         10        60       FIXPVA
         11        60       FIXPVA
         12        60       FIXPVA
         13        60       FIXPVA
         14        60       FIXPVA
         15        60       FIXPVA
         16        60       FIXPVA
         17        60       FIXPVA
         18        60       FIXPVA
         19        60       FIXPVA
         20        60       FIXPVA
         21        60       FIXPVA
         22        60       FIXPVA
         23        60       FIXPVA
         24        60       FIXPVA
         25        60       FIXPVA
         26        60       FIXPVA
         27        60       FIXPVA
         28        60       FIXPVA
         29        60       FIXPVA
         30        60       FIXPVA
         31        60       FIXPVA
         32        60       FIXPVA
         33        60       FIXPVA
         34        60       FIXPVA
         35        60       FIXPVA
         36        60       FIXPVA
         37        60       FIXPVA
         38        60       FIXPVA
         39        60       FIXPVA
         40        60       FIXPVA
         41        60       FIXPVA
         42        60       FIXPVA
         43        60       FIXPVA
         44        60       FIXPVA
         45        60       FIXPVA
         46        60       FIXPVA
         47        60       FIXPVA
         48        60       FIXPVA
         49        60       FIXPVA
         50        60       FIXPVA
         51        60       FIXPVA
         52        60       FIXPVA
         53        60       FIXPVA
         54        60       FIXPVA
         55        60       FIXPVA
         56        60       FIXPVA
         57        60       FIXPVA
         58        60       FIXPVA
         59        60       FIXPVA
         60        60       FIXPVA
         61        60       FIXPVA
         62        60       FIXPVA
         63        60       FIXPVA
         64        60       FIXPVA
         65        60       FIXPVA
         66        60       FIXPVA
         67        60       FIXPVA
         68        60       FIXPVA
         69        60       FIXPVA
         70        60       FIXPVA
         71        60       FIXPVA
         72        60       FIXPVA
         73        60       FIXPVA
         74        60       FIXPVA
         75        60       FIXPVA
         76        60       FIXPVA
         77        60       FIXPVA
         78        60       FIXPVA
         79        60       FIXPVA
         80        60       FIXPVA
         81        60       FIXPVA
         82        60       FIXPVA
         83        60       FIXPVA
         84        60       FIXPVA
         85        60       FIXPVA
         86        60       FIXPVA
         87        60       FIXPVA
         88        60       FIXPVA
         89        60       FIXPVA
         90        60       FIXPVA
         91        60       FIXPVA
         92        60       FIXPVA
         93        60       FIXPVA
         94        60       FIXPVA
         95        60       FIXPVA
         96        60       FIXPVA
         97        60       FIXPVA
         98        60       FIXPVA
         99        60       FIXPVA
        100        60       FIXPVA
        101        60       FIXPVA
        102        60       FIXPVA
        103        60       FIXPVA
        104        60       FIXPVA
        105        60       FIXPVA
        106        60       FIXPVA
        107        60       FIXPVA
        108        60       FIXPVA
        109        60       FIXPVA
        110        60       FIXPVA
        111        60       FIXPVA
        112        60       FIXPVA
        113        60       FIXPVA
        114        60       FIXPVA
        115        60       FIXPVA
        116        60       FIXPVA
        117        60       FIXPVA
        118        60       FIXPVA
        119        60       FIXPVA
        120        60       FIXPVA
        121        60       FIXPVA
        122        60       FIXPVA
        123        60       FIXPVA
        124        60       FIXPVA
        125        60       FIXPVA
        126        60       FIXPVA
        127        60       FIXPVA
        128        60       FIXPVA
        129        60       FIXPVA
        130        60       FIXPVA
        131        60       FIXPVA
        132        60       FIXPVA
        133        60       FIXPVA
        134        60       FIXPVA
        135        60       FIXPVA
        136        60       FIXPVA
        137        60       FIXPVA
        138        60       FIXPVA
        139        60       FIXPVA
        140        60       FIXPVA
        141        60       FIXPVA
        142        60       FIXPVA
        143        60       FIXPVA
        144        60       FIXPVA
        145        60       FIXPVA
        146        60       FIXPVA
        147        60       FIXPVA
        148        60       FIXPVA
        149        60       FIXPVA
        150        60       FIXPVA
        151        60       FIXPVA
        152        60       FIXPVA
        153        60       FIXPVA
        154        60       FIXPVA
        155        60       FIXPVA
        156        60       FIXPVA
        157        60       FIXPVA
        158        60       FIXPVA
        159        60       FIXPVA
        160        60       FIXPVA
        161        60       FIXPVA
        162        60       FIXPVA
        163        60       FIXPVA
        164        60       FIXPVA
        165        60       FIXPVA
        166        60       FIXPVA
        167        60       FIXPVA
        168        60       FIXPVA
        169        60       FIXPVA
        170        60       FIXPVA
        171        60       FIXPVA
        172        60       FIXPVA
        173        60       FIXPVA
        174        60       FIXPVA
        175        60       FIXPVA
        176        60       FIXPVA
        177        60       FIXPVA
        178        60       FIXPVA
        179        60       FIXPVA
        180        60       FIXPVA
        181        60       FIXPVA
        182        60       FIXPVA
        183        60       FIXPVA
        184        60       FIXPVA
        185        60       FIXPVA
        186        60       FIXPVA
        187        60       FIXPVA
        188        60       FIXPVA
        189        60       FIXPVA
        190        60       FIXPVA
        191        60       FIXPVA
        192        60       FIXPVA
        193        60       FIXPVA
        194        60       FIXPVA
        195        60       FIXPVA
        196        60       FIXPVA
        197        60       FIXPVA
        198        60       FIXPVA
        199        60       FIXPVA
        200        60       FIXPVA
        201        60       FIXPVA
        202        60       FIXPVA
        203        60       FIXPVA
        204        60       FIXPVA
        205        60       FIXPVA
        206        60       FIXPVA
        207        60       FIXPVA
        208        60       FIXPVA
        209        60       FIXPVA
        210        60       FIXPVA
        211        60       FIXPVA
        212        60       FIXPVA
        213        60       FIXPVA
        214        60       FIXPVA
        215        60       FIXPVA
        216        60       FIXPVA
        217        60       FIXPVA
        218        60       FIXPVA
        219        60       FIXPVA
        220        60       FIXPVA
        221        60       FIXPVA
        222        60       FIXPVA
        223        60       FIXPVA
        224        60       FIXPVA
        225        60       FIXPVA
        226        60       FIXPVA
        227        60       FIXPVA
        228        60       FIXPVA
        229        60       FIXPVA
        230        60       FIXPVA
        231        60       FIXPVA
        232        60       FIXPVA
        233        60       FIXPVA
        234        60       FIXPVA
        235        60       FIXPVA
        236        60       FIXPVA
        237        60       FIXPVA
        238        60       FIXPVA
        239        60       FIXPVA
        240        60       FIXPVA
        241        60       FIXPVA
        242        60       FIXPVA
        243        60       FIXPVA
        244        60       FIXPVA
        245        60       FIXPVA
        246        60       FIXPVA
        247        60       FIXPVA
        248        60       FIXPVA
        249        60       FIXPVA
        250        60       FIXPVA
        251        60       FIXPVA
        252        60       FIXPVA
        253        60       FIXPVA

     ------------------------------
      FIXPVA TESSELLATION FOR PCM
         PEIFENG SU AND HUI LI
     UNIVERSITY OF NEBRASKA-LINCOLN
     ------------------------------


 PCM DIMENSIONS: MXSP=   253, MXTS=     10120, MEMORY=        103986

     INPUT FOR CAVITY DEFINITION 
     ---------------------------
   ATOM               COORDINATES                RADIUS       EPS
      1      3.8360     -6.8570     10.8970      0.0100     78.3900
      2      3.2720     -6.1520     11.2650      1.5900     78.3900
      3      3.9970     -5.5680     12.3570      1.7700     78.3900
      4      4.9900     -5.2190     11.9880      0.0100     78.3900
      5      4.1730     -6.3490     13.1310      0.0100     78.3900
      6      3.2690     -4.3840     12.9960      1.7700     78.3900
      7      3.8440     -3.9940     13.8680      0.0100     78.3900
      8      3.1370     -3.2990     12.0320      1.5900     78.3900
      9      1.8790     -2.6690     12.2100      1.7700     78.3900
     10      2.0820     -1.5870     12.3760      0.0100     78.3900
     11      1.0250     -2.8190     11.0240      1.6800     78.3900
     12     -0.0720     -2.0580     10.7210      1.7700     78.3900
     13     -2.2630      0.5020     11.5160      1.6800     78.3900
     14     -1.9090      0.8370     12.3880      0.0100     78.3900
     15     -3.0770      0.9340     11.1200      0.0100     78.3900
     16     -0.5660     -1.0560     11.4690      1.6800     78.3900
     17     -1.6290     -0.4840     10.9080      1.7700     78.3900
     18     -2.1220     -0.8540      9.6840      1.6800     78.3900
     19     -2.9290     -0.3650      9.3300      0.0100     78.3900
     20     -1.6190     -1.8680      8.8780      1.7700     78.3900
     21     -2.1210     -2.1330      7.7790      1.5900     78.3900
     22     -0.5170     -2.5200      9.4960      1.7700     78.3900
     23      0.2710     -3.5740      9.0470      1.6800     78.3900
     24      1.1750     -3.7190      9.9890      1.7700     78.3900
     25      1.9790     -4.4590      9.9850      0.0100     78.3900
     26      1.2500     -3.2630     13.4520      1.7700     78.3900
     27      0.1440     -3.2790     13.3980      0.0100     78.3900
     28      1.6550     -2.5270     14.5890      1.5900     78.3900
     29      1.2640     -2.9650     15.3540      0.0100     78.3900
     30      1.8360     -4.6720     13.4560      1.7700     78.3900
     31      1.3550     -5.2910     12.6620      0.0100     78.3900
     32      1.8700     -5.3330     14.7420      1.5900     78.3900
     33      0.6350     -6.2060     15.1830      2.1000     78.3900
     34      0.2870     -7.1340     14.0890      1.5900     78.3900
     35      0.9410     -6.8150     16.4940      1.5900     78.3900
     36     -0.5120     -5.1440     15.3530      1.5900     78.3900
     37     -0.5330     -4.2300     16.4710      1.7700     78.3900
     38      0.4090     -3.6400     16.5410      0.0100     78.3900
     39     -0.6370     -4.7910     17.4280      0.0100     78.3900
     40     -1.7130     -3.2570     16.3750      1.7700     78.3900
     41     -1.6920     -2.5320     17.2190      0.0100     78.3900
     42     -1.6460     -2.4840     15.1420      1.5900     78.3900
     43     -2.9670     -2.2710     14.6570      1.7700     78.3900
     44     -3.0930     -1.1650     14.5880      0.0100     78.3900
     45     -3.1920     -2.8660     13.3010      1.6800     78.3900
     46     -2.3910     -3.8980     12.8630      1.7700     78.3900
     47     -1.6250     -4.2330     13.5610      0.0100     78.3900
     48     -2.5310     -4.4280     11.6400      1.7700     78.3900
     49     -1.8770     -5.2130     11.2630      0.0100     78.3900
     50     -4.2310     -2.4150     12.4870      1.7700     78.3900
     51     -4.9940     -1.5260     12.9010      1.5900     78.3900
     52     -4.3860     -2.9370     11.2470      1.6800     78.3900
     53     -3.5660     -3.9080     10.8130      1.7700     78.3900
     54     -3.7360     -4.3910      9.5840      1.6800     78.3900
     55     -4.4980     -4.0550      9.0240      0.0100     78.3900
     56     -3.1550     -5.1120      9.2050      0.0100     78.3900
     57     -3.9230     -2.8090     15.7100      1.7700     78.3900
     58     -4.8430     -3.2000     15.2530      0.0100     78.3900
     59     -4.2720     -1.7990     16.6420      1.5900     78.3900
     60     -4.7500     -2.2310     17.3680      0.0100     78.3900
     61     -3.0960     -3.9110     16.3520      1.7700     78.3900
     62     -3.0250     -4.7880     15.6680      0.0100     78.3900
     63     -3.4920     -4.2610     17.6980      1.5900     78.3900
     64     -4.4760     -5.4710     17.9150      2.1000     78.3900
     65     -4.0740     -6.5990     17.0440      1.5900     78.3900
     66     -4.5390     -5.7490     19.3640      1.5900     78.3900
     67     -5.8890     -4.9290     17.4700      1.5900     78.3900
     68     -6.8730     -5.8120     16.8640      1.7700     78.3900
     69     -7.7030     -6.0080     17.5820      0.0100     78.3900
     70     -6.4480     -6.8020     16.5720      0.0100     78.3900
     71     -7.4680     -5.1970     15.5890      1.7700     78.3900
     72     -8.0920     -4.3080     15.8270      0.0100     78.3900
     73     -6.3890     -4.7530     14.7280      1.5900     78.3900
     74     -6.6400     -5.1030     13.3950      1.7700     78.3900
     75     -6.4960     -4.1640     12.8110      0.0100     78.3900
     76     -5.6850     -6.1380     12.9080      1.6800     78.3900
     77     -4.8690     -6.8290     13.7820      1.7700     78.3900
     78     -4.9940     -6.5980     14.8430      0.0100     78.3900
     79     -5.5820     -6.3350     11.5500      1.7700     78.3900
     80     -6.2640     -5.7110     10.7460      1.5900     78.3900
     81     -4.6410     -7.2530     11.1620      1.6800     78.3900
     82     -4.5670     -7.4200     10.1710      0.0100     78.3900
     83     -3.7860     -7.9670     11.9750      1.7700     78.3900
     84     -2.9820     -8.7540     11.4820      1.5900     78.3900
     85     -3.9410     -7.7020     13.3720      1.7700     78.3900
     86     -3.3050     -8.2160     14.0850      0.0100     78.3900
     87     -8.0910     -5.5300     13.3370      1.7700     78.3900
     88     -8.3050     -6.2650     12.5300      0.0100     78.3900
     89     -8.8980     -4.3710     13.1930      1.5900     78.3900
     90     -8.4500     -3.7310     12.6280      0.0100     78.3900
     91     -8.2780     -6.1630     14.7140      1.7700     78.3900
     92     -7.7650     -7.1540     14.7550      0.0100     78.3900
     93     -9.6430     -6.2470     15.1920      1.5900     78.3900
     94    -10.6300     -7.1980     14.4040      2.1000     78.3900
     95     -9.8230     -8.1690     13.6370      1.5900     78.3900
     96    -11.6000     -7.7960     15.3510      1.5900     78.3900
     97    -11.3990     -6.2610     13.3930      1.5900     78.3900
     98    -12.7740     -5.8630     13.5990      1.7700     78.3900
     99    -12.8130     -4.9690     14.2620      0.0100     78.3900
    100    -13.3680     -6.6650     14.0950      0.0100     78.3900
    101    -13.4710     -5.4870     12.2720      1.7700     78.3900
    102    -13.1020     -4.4990     11.9270      0.0100     78.3900
    103    -13.2220     -6.4630     11.2220      1.5900     78.3900
    104    -14.3680     -7.2720     11.0280      1.7700     78.3900
    105    -14.7900     -6.9390     10.0500      0.0100     78.3900
    106    -14.0050     -8.7110     11.0070      1.6800     78.3900
    107    -12.9650     -9.1730     11.7840      1.7700     78.3900
    108    -12.4530     -8.4130     12.3800      0.0100     78.3900
    109    -14.7280     -9.5670     10.2080      1.7700     78.3900
    110    -15.6730     -9.1940      9.5200      1.5900     78.3900
    111    -14.2970    -10.8710     10.2190      1.6800     78.3900
    112    -14.8170    -11.5100      9.6250      0.0100     78.3900
    113    -13.2470    -11.3990     10.9450      1.7700     78.3900
    114    -12.9610    -12.5930     10.8460      1.5900     78.3900
    115    -12.5630    -10.4510     11.7720      1.7700     78.3900
    116    -11.7100    -10.7940     12.3540      0.0100     78.3900
    117    -15.3510     -6.9310     12.1330      1.7700     78.3900
    118    -15.1640     -7.5460     13.0430      0.0100     78.3900
    119    -16.6940     -7.0660     11.7180      1.5900     78.3900
    120    -16.8490     -6.3640     11.0650      0.0100     78.3900
    121    -14.9990     -5.4690     12.4110      1.7700     78.3900
    122    -15.2600     -5.2590     13.4780      0.0100     78.3900
    123    -15.6070     -4.5300     11.4900      1.5900     78.3900
    124    -16.0810     -3.1240     12.0140      2.1000     78.3900
    125    -17.5570     -3.1510     12.1220      1.5900     78.3900
    126    -15.3460     -2.7730     13.2480      1.5900     78.3900
    127    -15.6550     -2.1220     10.8810      1.5900     78.3900
    128    -16.5270     -1.7520      9.7890      1.7700     78.3900
    129    -16.6920     -0.6510      9.8130      0.0100     78.3900
    130    -17.5380     -2.2350      9.8450      0.0100     78.3900
    131    -15.9240     -2.1080      8.4240      1.7700     78.3900
    132    -16.4740     -1.5820      7.6230      0.0100     78.3900
    133    -14.5740     -1.6190      8.2880      1.5900     78.3900
    134    -13.7520     -2.5990      7.6730      1.7700     78.3900
    135    -13.3170     -2.1280      6.7620      0.0100     78.3900
    136    -12.6680     -2.9840      8.5750      1.6800     78.3900
    137    -10.8230     -3.8170      9.4070      1.7700     78.3900
    138    -11.4070     -3.0910     10.4350      1.6800     78.3900
    139    -12.5030     -2.6240      9.8910      1.7700     78.3900
    140    -13.2410     -2.0040     10.4050      0.0100     78.3900
    141     -9.3250     -5.1610      8.1580      1.6800     78.3900
    142    -10.1470     -4.9820      7.1210      1.7700     78.3900
    143     -9.8490     -5.4820      6.1960      0.0100     78.3900
    144    -11.3180     -4.3390      7.0780      1.6800     78.3900
    145    -11.5870     -3.7560      8.2580      1.7700     78.3900
    146     -9.6340     -4.5610      9.3310      1.7700     78.3900
    147     -8.8080     -4.6900     10.3670      1.6800     78.3900
    148     -9.2040     -4.6700     11.2900      0.0100     78.3900
    149     -7.9240     -5.1500     10.2420      0.0100     78.3900
    150    -14.6150     -3.7870      7.2680      1.7700     78.3900
    151    -14.1140     -4.7570      7.4770      0.0100     78.3900
    152    -14.9520     -3.7490      5.9040      1.5900     78.3900
    153    -15.4210     -2.9210      5.7020      0.0100     78.3900
    154    -15.8290     -3.6250      8.1670      1.7700     78.3900
    155    -15.5610     -4.0830      9.1400      0.0100     78.3900
    156    -17.0590     -4.2120      7.7090      1.5900     78.3900
    157    -18.1800     -3.5790      6.8170      2.1000     78.3900
    158    -18.8890     -4.6670      6.1060      1.5900     78.3900
    159    -19.0060     -2.7080      7.6770      1.5900     78.3900
    160    -17.4310     -2.6650      5.7590      1.5900     78.3900
    161    -18.0860     -2.0180      4.6570      1.7700     78.3900
    162    -18.3810     -0.9860      4.9430      0.0100     78.3900
    163    -19.0100     -2.5620      4.3560      0.0100     78.3900
    164    -17.1570     -1.9780      3.4350      1.7700     78.3900
    165    -16.6490     -2.9570      3.3010      0.0100     78.3900
    166    -17.9520     -1.6780      2.2510      1.5900     78.3900
    167    -17.7850     -0.3050      1.8630      1.7700     78.3900
    168    -17.2020     -0.3370      0.9160      0.0100     78.3900
    169    -19.0970      0.4030      1.6180      1.6800     78.3900
    170    -20.2740     -0.3220      1.6870      1.7700     78.3900
    171    -20.1860     -1.3680      1.9800      0.0100     78.3900
    172    -21.4640      0.2370      1.4300      1.7700     78.3900
    173    -22.3960     -0.3240      1.4980      0.0100     78.3900
    174    -19.1600      1.7360      1.1790      1.7700     78.3900
    175    -18.1170      2.3680      0.9710      1.5900     78.3900
    176    -20.3560      2.3290      0.9700      1.6800     78.3900
    177    -21.4860      1.6110      1.0650      1.7700     78.3900
    178    -22.6420      2.2070      0.7900      1.6800     78.3900
    179    -22.6370      3.1830      0.5680      0.0100     78.3900
    180    -23.5210      1.7310      0.8600      0.0100     78.3900
    181    -16.9270      0.3510      2.9450      1.7700     78.3900
    182    -17.5680      0.7650      3.7540      0.0100     78.3900
    183    -16.0530      1.3490      2.4440      1.5900     78.3900
    184    -15.4210      0.9050      1.8590      0.0100     78.3900
    185    -16.1250     -0.8370      3.4640      1.7700     78.3900
    186    -15.8530     -0.6570      4.5310      0.0100     78.3900
    187    -14.9730     -1.1410      2.6440      1.5900     78.3900
    188    -13.5140     -1.1450      3.2350      2.1000     78.3900
    189    -13.4140     -2.2340      4.2140      1.5900     78.3900
    190    -12.5540     -1.1830      2.1110      1.5900     78.3900
    191    -13.3600      0.2390      3.9760      1.5900     78.3900
    192    -12.0320      0.7820      4.2160      1.7700     78.3900
    193    -11.9160      1.7280      3.6360      0.0100     78.3900
    194    -11.2030      0.0970      3.9030      0.0100     78.3900
    195    -11.8330      1.1190      5.6970      1.7700     78.3900
    196    -12.6920      1.7140      6.0730      0.0100     78.3900
    197    -11.7710     -0.0980      6.5030      1.5900     78.3900
    198    -10.8020      0.0570      7.5280      1.7700     78.3900
    199    -11.3060     -0.1950      8.4880      0.0100     78.3900
    200     -9.6560     -0.8490      7.3260      1.6800     78.3900
    201     -8.6850     -1.1560      8.2450      1.7700     78.3900
    202     -7.3190     -0.8260     11.4140      1.6800     78.3900
    203     -7.9090     -0.1360     11.8330      0.0100     78.3900
    204     -6.4860     -1.1070     11.8970      0.0100     78.3900
    205     -8.6000     -0.6750      9.4970      1.6800     78.3900
    206     -7.5630     -1.1800     10.1650      1.7700     78.3900
    207     -6.6830     -2.0780      9.6200      1.6800     78.3900
    208     -5.9180     -2.4040     10.1910      0.0100     78.3900
    209     -6.7470     -2.5940      8.3330      1.7700     78.3900
    210     -5.9090     -3.3980      7.9130      1.5900     78.3900
    211     -7.8400     -2.0460      7.6090      1.7700     78.3900
    212     -8.2540     -2.2760      6.3040      1.6800     78.3900
    213     -9.3410     -1.5500      6.1810      1.7700     78.3900
    214     -9.9720     -1.4950      5.2900      0.0100     78.3900
    215    -10.3830      1.5120      7.5310      1.7700     78.3900
    216     -9.3350      1.6500      7.8680      0.0100     78.3900
    217    -11.2460      2.2600      8.3640      1.5900     78.3900
    218    -11.0210      3.1890      8.2340      0.0100     78.3900
    219    -10.5510      1.8830      6.0560      1.7700     78.3900
    220     -9.7400      1.4120      5.4520      0.0100     78.3900
    221    -10.7210      3.3000      5.7940      1.5900     78.3900
    222     -9.4870      4.1370      5.2820      2.1000     78.3900
    223     -8.7500      3.3460      4.2760      1.5900     78.3900
    224     -9.9280      5.4970      4.8810      1.5900     78.3900
    225     -8.5960      4.2680      6.5710      1.5900     78.3900
    226     -9.0720      5.0300      7.7070      1.7700     78.3900
    227    -10.0550      4.6500      8.0680      0.0100     78.3900
    228     -9.2050      6.1060      7.4440      0.0100     78.3900
    229     -8.0810      4.9630      8.8740      1.7700     78.3900
    230     -8.4090      5.6110      9.7160      0.0100     78.3900
    231     -8.0140      3.6000      9.3760      1.5900     78.3900
    232     -6.6720      3.2970      9.7330      1.7700     78.3900
    233     -6.7080      2.9890     10.8030      0.0100     78.3900
    234     -6.1050      2.1870      8.9240      1.6800     78.3900
    235     -6.6510      1.8710      7.7010      1.7700     78.3900
    236     -7.5190      2.4540      7.4010      0.0100     78.3900
    237     -6.1600      0.8800      6.9480      1.7700     78.3900
    238     -6.6000      0.6020      5.9930      0.0100     78.3900
    239     -4.9910      1.4940      9.3810      1.7700     78.3900
    240     -4.4800      1.8150     10.4650      1.5900     78.3900
    241     -4.4780      0.4880      8.6350      1.6800     78.3900
    242     -5.0300      0.1740      7.4490      1.7700     78.3900
    243     -4.5170     -0.8330      6.7490      1.6800     78.3900
    244     -3.7370     -1.3440      7.1190      0.0100     78.3900
    245     -4.9170     -1.1380      5.8810      0.0100     78.3900
    246     -5.8590      4.5770      9.6130      1.7700     78.3900
    247     -4.8100      4.3820      9.2940      0.0100     78.3900
    248     -5.8730      5.2730     10.8510      1.5900     78.3900
    249     -5.5090      6.1680     10.7190      0.0100     78.3900
    250     -6.6270      5.3180      8.5260      1.7700     78.3900
    251     -6.3880      4.8950      7.5260      0.0100     78.3900
    252     -6.4360      6.7430      8.5390      1.5900     78.3900
    253     -5.5190      6.9560      8.2960      0.0100     78.3900

 CREATION OF A NEW CAVITY WITH THE ORIGINAL SPHERE
 SIZES FOR THE COMPUTATION OF THE CAVITATION ENERGY.

     INPUT FOR CAVITY DEFINITION 
     ---------------------------
   ATOM               COORDINATES                RADIUS       EPS
      1      3.8360     -6.8570     10.8970      0.0100     78.3900
      2      3.2720     -6.1520     11.2650      1.5900     78.3900
      3      3.9970     -5.5680     12.3570      1.7700     78.3900
      4      4.9900     -5.2190     11.9880      0.0100     78.3900
      5      4.1730     -6.3490     13.1310      0.0100     78.3900
      6      3.2690     -4.3840     12.9960      1.7700     78.3900
      7      3.8440     -3.9940     13.8680      0.0100     78.3900
      8      3.1370     -3.2990     12.0320      1.5900     78.3900
      9      1.8790     -2.6690     12.2100      1.7700     78.3900
     10      2.0820     -1.5870     12.3760      0.0100     78.3900
     11      1.0250     -2.8190     11.0240      1.6800     78.3900
     12     -0.0720     -2.0580     10.7210      1.7700     78.3900
     13     -2.2630      0.5020     11.5160      1.6800     78.3900
     14     -1.9090      0.8370     12.3880      0.0100     78.3900
     15     -3.0770      0.9340     11.1200      0.0100     78.3900
     16     -0.5660     -1.0560     11.4690      1.6800     78.3900
     17     -1.6290     -0.4840     10.9080      1.7700     78.3900
     18     -2.1220     -0.8540      9.6840      1.6800     78.3900
     19     -2.9290     -0.3650      9.3300      0.0100     78.3900
     20     -1.6190     -1.8680      8.8780      1.7700     78.3900
     21     -2.1210     -2.1330      7.7790      1.5900     78.3900
     22     -0.5170     -2.5200      9.4960      1.7700     78.3900
     23      0.2710     -3.5740      9.0470      1.6800     78.3900
     24      1.1750     -3.7190      9.9890      1.7700     78.3900
     25      1.9790     -4.4590      9.9850      0.0100     78.3900
     26      1.2500     -3.2630     13.4520      1.7700     78.3900
     27      0.1440     -3.2790     13.3980      0.0100     78.3900
     28      1.6550     -2.5270     14.5890      1.5900     78.3900
     29      1.2640     -2.9650     15.3540      0.0100     78.3900
     30      1.8360     -4.6720     13.4560      1.7700     78.3900
     31      1.3550     -5.2910     12.6620      0.0100     78.3900
     32      1.8700     -5.3330     14.7420      1.5900     78.3900
     33      0.6350     -6.2060     15.1830      2.1000     78.3900
     34      0.2870     -7.1340     14.0890      1.5900     78.3900
     35      0.9410     -6.8150     16.4940      1.5900     78.3900
     36     -0.5120     -5.1440     15.3530      1.5900     78.3900
     37     -0.5330     -4.2300     16.4710      1.7700     78.3900
     38      0.4090     -3.6400     16.5410      0.0100     78.3900
     39     -0.6370     -4.7910     17.4280      0.0100     78.3900
     40     -1.7130     -3.2570     16.3750      1.7700     78.3900
     41     -1.6920     -2.5320     17.2190      0.0100     78.3900
     42     -1.6460     -2.4840     15.1420      1.5900     78.3900
     43     -2.9670     -2.2710     14.6570      1.7700     78.3900
     44     -3.0930     -1.1650     14.5880      0.0100     78.3900
     45     -3.1920     -2.8660     13.3010      1.6800     78.3900
     46     -2.3910     -3.8980     12.8630      1.7700     78.3900
     47     -1.6250     -4.2330     13.5610      0.0100     78.3900
     48     -2.5310     -4.4280     11.6400      1.7700     78.3900
     49     -1.8770     -5.2130     11.2630      0.0100     78.3900
     50     -4.2310     -2.4150     12.4870      1.7700     78.3900
     51     -4.9940     -1.5260     12.9010      1.5900     78.3900
     52     -4.3860     -2.9370     11.2470      1.6800     78.3900
     53     -3.5660     -3.9080     10.8130      1.7700     78.3900
     54     -3.7360     -4.3910      9.5840      1.6800     78.3900
     55     -4.4980     -4.0550      9.0240      0.0100     78.3900
     56     -3.1550     -5.1120      9.2050      0.0100     78.3900
     57     -3.9230     -2.8090     15.7100      1.7700     78.3900
     58     -4.8430     -3.2000     15.2530      0.0100     78.3900
     59     -4.2720     -1.7990     16.6420      1.5900     78.3900
     60     -4.7500     -2.2310     17.3680      0.0100     78.3900
     61     -3.0960     -3.9110     16.3520      1.7700     78.3900
     62     -3.0250     -4.7880     15.6680      0.0100     78.3900
     63     -3.4920     -4.2610     17.6980      1.5900     78.3900
     64     -4.4760     -5.4710     17.9150      2.1000     78.3900
     65     -4.0740     -6.5990     17.0440      1.5900     78.3900
     66     -4.5390     -5.7490     19.3640      1.5900     78.3900
     67     -5.8890     -4.9290     17.4700      1.5900     78.3900
     68     -6.8730     -5.8120     16.8640      1.7700     78.3900
     69     -7.7030     -6.0080     17.5820      0.0100     78.3900
     70     -6.4480     -6.8020     16.5720      0.0100     78.3900
     71     -7.4680     -5.1970     15.5890      1.7700     78.3900
     72     -8.0920     -4.3080     15.8270      0.0100     78.3900
     73     -6.3890     -4.7530     14.7280      1.5900     78.3900
     74     -6.6400     -5.1030     13.3950      1.7700     78.3900
     75     -6.4960     -4.1640     12.8110      0.0100     78.3900
     76     -5.6850     -6.1380     12.9080      1.6800     78.3900
     77     -4.8690     -6.8290     13.7820      1.7700     78.3900
     78     -4.9940     -6.5980     14.8430      0.0100     78.3900
     79     -5.5820     -6.3350     11.5500      1.7700     78.3900
     80     -6.2640     -5.7110     10.7460      1.5900     78.3900
     81     -4.6410     -7.2530     11.1620      1.6800     78.3900
     82     -4.5670     -7.4200     10.1710      0.0100     78.3900
     83     -3.7860     -7.9670     11.9750      1.7700     78.3900
     84     -2.9820     -8.7540     11.4820      1.5900     78.3900
     85     -3.9410     -7.7020     13.3720      1.7700     78.3900
     86     -3.3050     -8.2160     14.0850      0.0100     78.3900
     87     -8.0910     -5.5300     13.3370      1.7700     78.3900
     88     -8.3050     -6.2650     12.5300      0.0100     78.3900
     89     -8.8980     -4.3710     13.1930      1.5900     78.3900
     90     -8.4500     -3.7310     12.6280      0.0100     78.3900
     91     -8.2780     -6.1630     14.7140      1.7700     78.3900
     92     -7.7650     -7.1540     14.7550      0.0100     78.3900
     93     -9.6430     -6.2470     15.1920      1.5900     78.3900
     94    -10.6300     -7.1980     14.4040      2.1000     78.3900
     95     -9.8230     -8.1690     13.6370      1.5900     78.3900
     96    -11.6000     -7.7960     15.3510      1.5900     78.3900
     97    -11.3990     -6.2610     13.3930      1.5900     78.3900
     98    -12.7740     -5.8630     13.5990      1.7700     78.3900
     99    -12.8130     -4.9690     14.2620      0.0100     78.3900
    100    -13.3680     -6.6650     14.0950      0.0100     78.3900
    101    -13.4710     -5.4870     12.2720      1.7700     78.3900
    102    -13.1020     -4.4990     11.9270      0.0100     78.3900
    103    -13.2220     -6.4630     11.2220      1.5900     78.3900
    104    -14.3680     -7.2720     11.0280      1.7700     78.3900
    105    -14.7900     -6.9390     10.0500      0.0100     78.3900
    106    -14.0050     -8.7110     11.0070      1.6800     78.3900
    107    -12.9650     -9.1730     11.7840      1.7700     78.3900
    108    -12.4530     -8.4130     12.3800      0.0100     78.3900
    109    -14.7280     -9.5670     10.2080      1.7700     78.3900
    110    -15.6730     -9.1940      9.5200      1.5900     78.3900
    111    -14.2970    -10.8710     10.2190      1.6800     78.3900
    112    -14.8170    -11.5100      9.6250      0.0100     78.3900
    113    -13.2470    -11.3990     10.9450      1.7700     78.3900
    114    -12.9610    -12.5930     10.8460      1.5900     78.3900
    115    -12.5630    -10.4510     11.7720      1.7700     78.3900
    116    -11.7100    -10.7940     12.3540      0.0100     78.3900
    117    -15.3510     -6.9310     12.1330      1.7700     78.3900
    118    -15.1640     -7.5460     13.0430      0.0100     78.3900
    119    -16.6940     -7.0660     11.7180      1.5900     78.3900
    120    -16.8490     -6.3640     11.0650      0.0100     78.3900
    121    -14.9990     -5.4690     12.4110      1.7700     78.3900
    122    -15.2600     -5.2590     13.4780      0.0100     78.3900
    123    -15.6070     -4.5300     11.4900      1.5900     78.3900
    124    -16.0810     -3.1240     12.0140      2.1000     78.3900
    125    -17.5570     -3.1510     12.1220      1.5900     78.3900
    126    -15.3460     -2.7730     13.2480      1.5900     78.3900
    127    -15.6550     -2.1220     10.8810      1.5900     78.3900
    128    -16.5270     -1.7520      9.7890      1.7700     78.3900
    129    -16.6920     -0.6510      9.8130      0.0100     78.3900
    130    -17.5380     -2.2350      9.8450      0.0100     78.3900
    131    -15.9240     -2.1080      8.4240      1.7700     78.3900
    132    -16.4740     -1.5820      7.6230      0.0100     78.3900
    133    -14.5740     -1.6190      8.2880      1.5900     78.3900
    134    -13.7520     -2.5990      7.6730      1.7700     78.3900
    135    -13.3170     -2.1280      6.7620      0.0100     78.3900
    136    -12.6680     -2.9840      8.5750      1.6800     78.3900
    137    -10.8230     -3.8170      9.4070      1.7700     78.3900
    138    -11.4070     -3.0910     10.4350      1.6800     78.3900
    139    -12.5030     -2.6240      9.8910      1.7700     78.3900
    140    -13.2410     -2.0040     10.4050      0.0100     78.3900
    141     -9.3250     -5.1610      8.1580      1.6800     78.3900
    142    -10.1470     -4.9820      7.1210      1.7700     78.3900
    143     -9.8490     -5.4820      6.1960      0.0100     78.3900
    144    -11.3180     -4.3390      7.0780      1.6800     78.3900
    145    -11.5870     -3.7560      8.2580      1.7700     78.3900
    146     -9.6340     -4.5610      9.3310      1.7700     78.3900
    147     -8.8080     -4.6900     10.3670      1.6800     78.3900
    148     -9.2040     -4.6700     11.2900      0.0100     78.3900
    149     -7.9240     -5.1500     10.2420      0.0100     78.3900
    150    -14.6150     -3.7870      7.2680      1.7700     78.3900
    151    -14.1140     -4.7570      7.4770      0.0100     78.3900
    152    -14.9520     -3.7490      5.9040      1.5900     78.3900
    153    -15.4210     -2.9210      5.7020      0.0100     78.3900
    154    -15.8290     -3.6250      8.1670      1.7700     78.3900
    155    -15.5610     -4.0830      9.1400      0.0100     78.3900
    156    -17.0590     -4.2120      7.7090      1.5900     78.3900
    157    -18.1800     -3.5790      6.8170      2.1000     78.3900
    158    -18.8890     -4.6670      6.1060      1.5900     78.3900
    159    -19.0060     -2.7080      7.6770      1.5900     78.3900
    160    -17.4310     -2.6650      5.7590      1.5900     78.3900
    161    -18.0860     -2.0180      4.6570      1.7700     78.3900
    162    -18.3810     -0.9860      4.9430      0.0100     78.3900
    163    -19.0100     -2.5620      4.3560      0.0100     78.3900
    164    -17.1570     -1.9780      3.4350      1.7700     78.3900
    165    -16.6490     -2.9570      3.3010      0.0100     78.3900
    166    -17.9520     -1.6780      2.2510      1.5900     78.3900
    167    -17.7850     -0.3050      1.8630      1.7700     78.3900
    168    -17.2020     -0.3370      0.9160      0.0100     78.3900
    169    -19.0970      0.4030      1.6180      1.6800     78.3900
    170    -20.2740     -0.3220      1.6870      1.7700     78.3900
    171    -20.1860     -1.3680      1.9800      0.0100     78.3900
    172    -21.4640      0.2370      1.4300      1.7700     78.3900
    173    -22.3960     -0.3240      1.4980      0.0100     78.3900
    174    -19.1600      1.7360      1.1790      1.7700     78.3900
    175    -18.1170      2.3680      0.9710      1.5900     78.3900
    176    -20.3560      2.3290      0.9700      1.6800     78.3900
    177    -21.4860      1.6110      1.0650      1.7700     78.3900
    178    -22.6420      2.2070      0.7900      1.6800     78.3900
    179    -22.6370      3.1830      0.5680      0.0100     78.3900
    180    -23.5210      1.7310      0.8600      0.0100     78.3900
    181    -16.9270      0.3510      2.9450      1.7700     78.3900
    182    -17.5680      0.7650      3.7540      0.0100     78.3900
    183    -16.0530      1.3490      2.4440      1.5900     78.3900
    184    -15.4210      0.9050      1.8590      0.0100     78.3900
    185    -16.1250     -0.8370      3.4640      1.7700     78.3900
    186    -15.8530     -0.6570      4.5310      0.0100     78.3900
    187    -14.9730     -1.1410      2.6440      1.5900     78.3900
    188    -13.5140     -1.1450      3.2350      2.1000     78.3900
    189    -13.4140     -2.2340      4.2140      1.5900     78.3900
    190    -12.5540     -1.1830      2.1110      1.5900     78.3900
    191    -13.3600      0.2390      3.9760      1.5900     78.3900
    192    -12.0320      0.7820      4.2160      1.7700     78.3900
    193    -11.9160      1.7280      3.6360      0.0100     78.3900
    194    -11.2030      0.0970      3.9030      0.0100     78.3900
    195    -11.8330      1.1190      5.6970      1.7700     78.3900
    196    -12.6920      1.7140      6.0730      0.0100     78.3900
    197    -11.7710     -0.0980      6.5030      1.5900     78.3900
    198    -10.8020      0.0570      7.5280      1.7700     78.3900
    199    -11.3060     -0.1950      8.4880      0.0100     78.3900
    200     -9.6560     -0.8490      7.3260      1.6800     78.3900
    201     -8.6850     -1.1560      8.2450      1.7700     78.3900
    202     -7.3190     -0.8260     11.4140      1.6800     78.3900
    203     -7.9090     -0.1360     11.8330      0.0100     78.3900
    204     -6.4860     -1.1070     11.8970      0.0100     78.3900
    205     -8.6000     -0.6750      9.4970      1.6800     78.3900
    206     -7.5630     -1.1800     10.1650      1.7700     78.3900
    207     -6.6830     -2.0780      9.6200      1.6800     78.3900
    208     -5.9180     -2.4040     10.1910      0.0100     78.3900
    209     -6.7470     -2.5940      8.3330      1.7700     78.3900
    210     -5.9090     -3.3980      7.9130      1.5900     78.3900
    211     -7.8400     -2.0460      7.6090      1.7700     78.3900
    212     -8.2540     -2.2760      6.3040      1.6800     78.3900
    213     -9.3410     -1.5500      6.1810      1.7700     78.3900
    214     -9.9720     -1.4950      5.2900      0.0100     78.3900
    215    -10.3830      1.5120      7.5310      1.7700     78.3900
    216     -9.3350      1.6500      7.8680      0.0100     78.3900
    217    -11.2460      2.2600      8.3640      1.5900     78.3900
    218    -11.0210      3.1890      8.2340      0.0100     78.3900
[...]
   6  5  0    -1336.8740464745     0.0000302866   0.000089240   0.000027628      477948172   12814491
   7  6  0    -1336.8740421017     0.0000043728   0.000035854   0.000013897      447449984   13091391
   8  7  0    -1336.8740432305    -0.0000011288   0.000009415   0.000003312      422871145   13317796
   9  8  0    -1336.8740438889    -0.0000006585   0.000003547   0.000001555      392446311   13602454
  10  9  0    -1336.8740439988    -0.0000001099   0.000000875   0.000000490      363699155   13858288
  11 10  0    -1336.8740439376     0.0000000612   0.000000540   0.000000289      330294447   14146098
  12 11  0    -1336.8740439126     0.0000000249   0.000000272   0.000000102      309837343   14333261
  13 12  0    -1336.8740439180    -0.0000000054   0.000000105   0.000000030      272635981   14652667
  14 13  0    -1336.8740439248    -0.0000000068   0.000000000   0.000000008      250535947   14822474

          -----------------
          DENSITY CONVERGED
          -----------------
     TIME TO FORM FOCK OPERATORS=      19.5 SECONDS (       1.4 SEC/ITER)
     FOCK TIME ON FIRST ITERATION=       2.1, LAST ITERATION=       0.9
     TIME TO SOLVE SCF EQUATIONS=       0.4 SECONDS (       0.0 SEC/ITER)

 FINAL RHF ENERGY IS    -1336.8740439248 AFTER  14 ITERATIONS
 ...... END OF RHF CALCULATION ......
 CPU     0: STEP CPU TIME=    32.63 TOTAL CPU TIME=        948.1 (     15.8 MIN)
 TOTAL WALL CLOCK TIME=       1999.7 SECONDS, CPU UTILIZATION IS    47.41%
 DONE PCM POT.
 CPU     0: STEP CPU TIME=     0.35 TOTAL CPU TIME=        948.4 (     15.8 MIN)
 TOTAL WALL CLOCK TIME=       2000.5 SECONDS, CPU UTILIZATION IS    47.41%

 Iter=  3 iFrag=      6 EFMO= -1360.661418771, DD= 0.028752785, DE= 0.008925654


 RHF      monomer      2 corr= NONE       , L1=   341, L0=   320 ID=      5


 AO spaces for     2     0     0 n-mer: L1=   341, L0=   320

 DIRECT SCF CALCULATION, SCHWRZ=T   FDIFF=T,  DIRTHR=  0.00E+00 NITDIR=10

                                                                                   NONZERO     BLOCKS
 ITER EX DEM     TOTAL ENERGY        E CHANGE  DENSITY CHANGE     ORB. GRAD      INTEGRALS    SKIPPED
   1  0  0    -1333.7912112538 -1333.7912112538   0.035012130   0.000000000      648221877   10669899
          ---------------START SECOND ORDER SCF---------------
   2  1  0    -1333.7928071388    -0.0015958850   0.007839824   0.001827002      589722992   11726126
   3  2  0    -1333.7930339714    -0.0002268326   0.001691268   0.000478912      570682214   11958614
   4  3  0    -1333.7930126074     0.0000213641   0.000629322   0.000087577      537115257   12292661
   5  4  0    -1333.7929951223     0.0000174851   0.000157891   0.000063262      504351750   12584829
   6  5  0    -1333.7929947797     0.0000003426   0.000046332   0.000017173      476569802   12848629
   7  6  0    -1333.7929942651     0.0000005146   0.000013310   0.000008701      443744075   13151884
   8  7  0    -1333.7929940319     0.0000002332   0.000008921   0.000002880      412581042   13428755
   9  8  0    -1333.7929942172    -0.0000001853   0.000003047   0.000000857      385961695   13658780
  10  9  0    -1333.7929942716    -0.0000000543   0.000000958   0.000000298      360191174   13887559
  11 10  0    -1333.7929942607     0.0000000109   0.000000556   0.000000072      319645688   14222182
  12 11  0    -1333.7929942561     0.0000000046   0.000000141   0.000000030      294797985   14443430
  13 12  0    -1333.7929942565    -0.0000000004   0.000000053   0.000000010      256162256   14779019

          -----------------
          DENSITY CONVERGED
          -----------------
     TIME TO FORM FOCK OPERATORS=      19.3 SECONDS (       1.5 SEC/ITER)
     FOCK TIME ON FIRST ITERATION=       1.9, LAST ITERATION=       1.0
     TIME TO SOLVE SCF EQUATIONS=       0.3 SECONDS (       0.0 SEC/ITER)

 FINAL RHF ENERGY IS    -1333.7929942565 AFTER  13 ITERATIONS
 ...... END OF RHF CALCULATION ......
 CPU     0: STEP CPU TIME=    39.43 TOTAL CPU TIME=        987.8 (     16.5 MIN)
 TOTAL WALL CLOCK TIME=       2085.0 SECONDS, CPU UTILIZATION IS    47.38%
 DONE PCM POT.
 CPU     0: STEP CPU TIME=     0.28 TOTAL CPU TIME=        988.1 (     16.5 MIN)
 TOTAL WALL CLOCK TIME=       2085.8 SECONDS, CPU UTILIZATION IS    47.37%

 Iter=  3 iFrag=      2 EFMO= -1360.645189455, DD= 0.029350630, DE= 0.020920075


 RHF      monomer      3 corr= NONE       , L1=   339, L0=   318 ID=      6


 AO spaces for     3     0     0 n-mer: L1=   339, L0=   318

 DIRECT SCF CALCULATION, SCHWRZ=T   FDIFF=T,  DIRTHR=  0.00E+00 NITDIR=10

                                                                                   NONZERO     BLOCKS
 ITER EX DEM     TOTAL ENERGY        E CHANGE  DENSITY CHANGE     ORB. GRAD      INTEGRALS    SKIPPED
   1  0  0    -1349.2445232273 -1349.2445232273   0.023953300   0.000000000      649161911    9574240
          ---------------START SECOND ORDER SCF---------------
   2  1  0    -1349.2456971559    -0.0011739286   0.005552880   0.001319033      587011208   10629657
   3  2  0    -1349.2457342113    -0.0000370555   0.001233782   0.000328025      561583597   10905376
   4  3  0    -1349.2457422429    -0.0000080315   0.000390192   0.000062747      526914721   11246534
   5  4  0    -1349.2457312326     0.0000110103   0.000123899   0.000041113      501198249   11476186
   6  5  0    -1349.2457298071     0.0000014255   0.000058324   0.000006347      469744758   11770650
   7  6  0    -1349.2457285501     0.0000012570   0.000013451   0.000004648      443387196   12013050
   8  7  0    -1349.2457287568    -0.0000002067   0.000004799   0.000001276      409485260   12308382
   9  8  0    -1349.2457288292    -0.0000000724   0.000002304   0.000000617      382291591   12551287
  10  9  0    -1349.2457288806    -0.0000000513   0.000000531   0.000000235      357177820   12767263
  11 10  0    -1349.2457288710     0.0000000096   0.000000274   0.000000074      317029531   13105946
  12 11  0    -1349.2457288686     0.0000000024   0.000000072   0.000000034      299523673   13247027

          -----------------
          DENSITY CONVERGED
          -----------------
     TIME TO FORM FOCK OPERATORS=      17.9 SECONDS (       1.5 SEC/ITER)
     FOCK TIME ON FIRST ITERATION=       2.2, LAST ITERATION=       0.9
     TIME TO SOLVE SCF EQUATIONS=       0.3 SECONDS (       0.0 SEC/ITER)

 FINAL RHF ENERGY IS    -1349.2457288686 AFTER  12 ITERATIONS
 ...... END OF RHF CALCULATION ......
 CPU     0: STEP CPU TIME=    40.15 TOTAL CPU TIME=       1028.3 (     17.1 MIN)
 TOTAL WALL CLOCK TIME=       2169.4 SECONDS, CPU UTILIZATION IS    47.40%
 DONE PCM POT.
 CPU     0: STEP CPU TIME=     0.26 TOTAL CPU TIME=       1028.5 (     17.1 MIN)
 TOTAL WALL CLOCK TIME=       2170.1 SECONDS, CPU UTILIZATION IS    47.40%

 Iter=  3 iFrag=      3 EFMO= -1380.498224578, DD= 0.019694472, DE= 0.009683926


 RHF      monomer      4 corr= NONE       , L1=   339, L0=   318 ID=      7


 AO spaces for     4     0     0 n-mer: L1=   339, L0=   318

 DIRECT SCF CALCULATION, SCHWRZ=T   FDIFF=T,  DIRTHR=  0.00E+00 NITDIR=10

                                                                                   NONZERO     BLOCKS
 ITER EX DEM     TOTAL ENERGY        E CHANGE  DENSITY CHANGE     ORB. GRAD      INTEGRALS    SKIPPED
   1  0  0    -1345.4594147815 -1345.4594147815   0.030771012   0.000000000      604815916    9895381
          ---------------START SECOND ORDER SCF---------------
   2  1  0    -1345.4604008561    -0.0009860746   0.007096491   0.001265595      558129658   10817402
   3  2  0    -1345.4605292414    -0.0001283853   0.001442027   0.000353986      535641422   11074451
   4  3  0    -1345.4604989531     0.0000302883   0.000458358   0.000114042      505320337   11388611
   5  4  0    -1345.4604787609     0.0000201922   0.000127570   0.000046130      476227698   11647881
   6  5  0    -1345.4604727446     0.0000060163   0.000044162   0.000024373      454110836   11863614
   7  6  0    -1345.4604714088     0.0000013357   0.000019995   0.000007017      426951357   12113259
   8  7  0    -1345.4604708529     0.0000005559   0.000007095   0.000003890      399402789   12353667
   9  8  0    -1345.4604710749    -0.0000002219   0.000002782   0.000001035      376533665   12565347
  10  9  0    -1345.4604710722     0.0000000027   0.000000883   0.000000371      354341145   12758537
  11 10  0    -1345.4604710514     0.0000000207   0.000000342   0.000000071      315544606   13077177
  12 11  0    -1345.4604710387     0.0000000127   0.000000101   0.000000029      293912032   13261338
  13 12  0    -1345.4604710402    -0.0000000015   0.000000042   0.000000010      251474816   13627487

          -----------------
          DENSITY CONVERGED
          -----------------
     TIME TO FORM FOCK OPERATORS=      18.3 SECONDS (       1.4 SEC/ITER)
     FOCK TIME ON FIRST ITERATION=       2.0, LAST ITERATION=       0.8
     TIME TO SOLVE SCF EQUATIONS=       0.3 SECONDS (       0.0 SEC/ITER)

 FINAL RHF ENERGY IS    -1345.4604710402 AFTER  13 ITERATIONS
 ...... END OF RHF CALCULATION ......
 CPU     0: STEP CPU TIME=    31.51 TOTAL CPU TIME=       1060.1 (     17.7 MIN)
 TOTAL WALL CLOCK TIME=       2235.0 SECONDS, CPU UTILIZATION IS    47.43%
 DONE PCM POT.
 CPU     0: STEP CPU TIME=     0.26 TOTAL CPU TIME=       1060.3 (     17.7 MIN)
 TOTAL WALL CLOCK TIME=       2235.8 SECONDS, CPU UTILIZATION IS    47.42%

 Iter=  3 iFrag=      4 EFMO= -1380.523789555, DD= 0.025409356, DE= 0.012170763


 RHF      monomer      8 corr= NONE       , L1=   264, L0=   248 ID=      8


 AO spaces for     8     0     0 n-mer: L1=   264, L0=   248

 DIRECT SCF CALCULATION, SCHWRZ=T   FDIFF=T,  DIRTHR=  0.00E+00 NITDIR=10

                                                                                   NONZERO     BLOCKS
 ITER EX DEM     TOTAL ENERGY        E CHANGE  DENSITY CHANGE     ORB. GRAD      INTEGRALS    SKIPPED
   1  0  0     -768.5760498761  -768.5760498761   0.033305971   0.000000000      331574148    3961890
          ---------------START SECOND ORDER SCF---------------
   2  1  0     -768.5770454444    -0.0009955683   0.008315431   0.001653639      308072418    4496420
   3  2  0     -768.5774221708    -0.0003767264   0.001657162   0.000432959      297571952    4652031
   4  3  0     -768.5773534792     0.0000686916   0.000284162   0.000059501      283179682    4837680
   5  4  0     -768.5773291377     0.0000243415   0.000132813   0.000051669      268391966    5005579
   6  5  0     -768.5773243648     0.0000047729   0.000039598   0.000014467      257882033    5133520
   7  6  0     -768.5773240529     0.0000003119   0.000013741   0.000007180      241861315    5333111
   8  7  0     -768.5773241368    -0.0000000839   0.000005775   0.000003766      226653084    5504549
   9  8  0     -768.5773242417    -0.0000001049   0.000002129   0.000000725      217400041    5610764
  10  9  0     -768.5773242679    -0.0000000262   0.000001083   0.000000480      202671661    5774626
  11 10  0     -768.5773242610     0.0000000069   0.000000404   0.000000073      184930597    5955123
  12 11  0     -768.5773242599     0.0000000011   0.000000083   0.000000044      170266072    6113397
  13 12  0     -768.5773242600    -0.0000000001   0.000000052   0.000000015      149582779    6339792

          -----------------
          DENSITY CONVERGED
          -----------------
     TIME TO FORM FOCK OPERATORS=      10.5 SECONDS (       0.8 SEC/ITER)
     FOCK TIME ON FIRST ITERATION=       1.3, LAST ITERATION=       0.5
     TIME TO SOLVE SCF EQUATIONS=       0.2 SECONDS (       0.0 SEC/ITER)

 FINAL RHF ENERGY IS     -768.5773242600 AFTER  13 ITERATIONS
 ...... END OF RHF CALCULATION ......
 CPU     0: STEP CPU TIME=    21.04 TOTAL CPU TIME=       1081.3 (     18.0 MIN)
 TOTAL WALL CLOCK TIME=       2280.3 SECONDS, CPU UTILIZATION IS    47.42%
 DONE PCM POT.
 CPU     0: STEP CPU TIME=     0.20 TOTAL CPU TIME=       1081.5 (     18.0 MIN)
 TOTAL WALL CLOCK TIME=       2280.8 SECONDS, CPU UTILIZATION IS    47.42%

 Iter=  3 iFrag=      8 EFMO=  -795.792709537, DD= 0.026833143, DE= 0.040152053

 CPU     0: STEP CPU TIME=     0.00 TOTAL CPU TIME=       1081.5 (     18.0 MIN)
 TOTAL WALL CLOCK TIME=       2280.8 SECONDS, CPU UTILIZATION IS    47.42%

  Monomer SCF synchronisation on iteration   3.1 took     0.0 s.
 CPU     0: STEP CPU TIME=     0.00 TOTAL CPU TIME=       1081.5 (     18.0 MIN)
 TOTAL WALL CLOCK TIME=       2280.8 SECONDS, CPU UTILIZATION IS    47.42%
 dmexch needs              2962926  words of memory.
 CPU     0: STEP CPU TIME=     0.02 TOTAL CPU TIME=       1081.6 (     18.0 MIN)
 TOTAL WALL CLOCK TIME=       2280.8 SECONDS, CPU UTILIZATION IS    47.42%

 Data exchange of    981406 words took     0.0 s.

 Calculating apparent surface charges...
     Using       43671 words of memory.
 ASC ITERATION=   1 CONVERGED TO  0.894159E-03
 ASC ITERATION=   2 CONVERGED TO  0.102257E-01
 ASC ITERATION=   3 CONVERGED TO  0.982988E-02
 ASC ITERATION=   4 CONVERGED TO  0.209573E-02
 ASC ITERATION=   5 CONVERGED TO  0.860704E-03
 ASC ITERATION=   6 CONVERGED TO  0.485617E-03
 ASC ITERATION=   7 CONVERGED TO  0.311206E-03
 ASC ITERATION=   8 CONVERGED TO  0.152561E-03
 ASC ITERATION=   9 CONVERGED TO  0.624974E-04
 ASC ITERATION=  10 CONVERGED TO  0.308972E-04
 ASC ITERATION=  11 CONVERGED TO  0.214437E-04
 ASC ITERATION=  12 CONVERGED TO  0.107053E-04
 ASC ITERATION=  13 CONVERGED TO  0.878031E-05
 ASC ITERATION=  14 CONVERGED TO  0.448615E-05
 ASC ITERATION=  15 CONVERGED TO  0.209796E-05
 ASC ITERATION=  16 CONVERGED TO  0.110355E-05
 ASC ITERATION=  17 CONVERGED TO  0.585571E-06
 ASC ITERATION=  18 CONVERGED TO  0.331137E-06
 ASC ITERATION=  19 CONVERGED TO  0.166621E-06
 ASC ITERATION=  20 CONVERGED TO  0.931436E-07
 ASC ITERATION=  21 CONVERGED TO  0.512158E-07
 ASC ITERATION=  22 CONVERGED TO  0.310642E-07
 ASC ITERATION=  23 CONVERGED TO  0.194921E-07
 ASC ITERATION=  24 CONVERGED TO  0.100706E-07
 ASC ITERATION=  25 CONVERGED TO  0.550954E-08
 ASC ITERATION=  26 CONVERGED TO  0.252939E-08
 ASC ITERATION=  27 CONVERGED TO  0.130183E-08
 ASC ITERATION=  28 CONVERGED TO  0.712136E-09
 ASC ITERATION=  29 CONVERGED TO  0.333740E-09
 ASC ITERATION=  30 CONVERGED TO  0.165367E-09
 ASC ITERATION=  31 CONVERGED TO  0.100964E-09
 ASC ITERATION=  32 CONVERGED TO  0.474369E-10

 THE ASC EQUATIONS FOR PHASE=1 CONVERGED IN  32 ITERATIONS.

 PCM ASC=      6.8560320797 normalised to=      6.9107028958
 Nuclear factor=   1.0032075181, electronic factor=   1.0032333418

 CPU     0: STEP CPU TIME=     0.12 TOTAL CPU TIME=       1081.7 (     18.0 MIN)
 TOTAL WALL CLOCK TIME=       2281.1 SECONDS, CPU UTILIZATION IS    47.42%


 ------------------------------------------------------------------------------
 FMO iter  3.1,      0 fragment(s) converged, maxD 0.029350630 maxE 0.040152053
 ------------------------------------------------------------------------------

 RHF      monomer      1 corr= NONE       , L1=   403, L0=   378 ID=      1


 AO spaces for     1     0     0 n-mer: L1=   403, L0=   378

 DIRECT SCF CALCULATION, SCHWRZ=T   FDIFF=T,  DIRTHR=  0.00E+00 NITDIR=10

                                                                                   NONZERO     BLOCKS
 ITER EX DEM     TOTAL ENERGY        E CHANGE  DENSITY CHANGE     ORB. GRAD      INTEGRALS    SKIPPED
   1  0  0    -1555.7592590870 -1555.7592590870   0.006083442   0.000000000     1053197718   21852422
          ---------------START SECOND ORDER SCF---------------
   2  1  0    -1555.7591197888     0.0001392982   0.001271686   0.000309318      879579582   24202003
   3  2  0    -1555.7591638381    -0.0000440493   0.000823117   0.000161064      843528138   24525298
   4  3  0    -1555.7591178100     0.0000460281   0.000127624   0.000056900      791843821   24969970
   5  4  0    -1555.7591228917    -0.0000050816   0.000042296   0.000025218      741043548   25416071
   6  5  0    -1555.7591250824    -0.0000021907   0.000018742   0.000004191      686928396   25865709
   7  6  0    -1555.7591248913     0.0000001910   0.000005394   0.000002476      630260350   26335523
   8  7  0    -1555.7591246746     0.0000002168   0.000001777   0.000000905      583509830   26732320
   9  8  0    -1555.7591247152    -0.0000000406   0.000001052   0.000000574      535286739   27135302
  10  9  0    -1555.7591247288    -0.0000000136   0.000000260   0.000000183      492466120   27467481
  11 10  0    -1555.7591247140     0.0000000148   0.000000129   0.000000049      444429504   27855294
  12 11  0    -1555.7591247053     0.0000000086   0.000000055   0.000000015      398398605   28206656

          -----------------
          DENSITY CONVERGED
          -----------------
     TIME TO FORM FOCK OPERATORS=      25.4 SECONDS (       2.1 SEC/ITER)
     FOCK TIME ON FIRST ITERATION=       3.8, LAST ITERATION=       1.2
     TIME TO SOLVE SCF EQUATIONS=       0.5 SECONDS (       0.0 SEC/ITER)

 FINAL RHF ENERGY IS    -1555.7591247053 AFTER  12 ITERATIONS
 ...... END OF RHF CALCULATION ......
 CPU     0: STEP CPU TIME=    44.44 TOTAL CPU TIME=       1126.1 (     18.8 MIN)
 TOTAL WALL CLOCK TIME=       2377.0 SECONDS, CPU UTILIZATION IS    47.38%
 DONE PCM POT.
 CPU     0: STEP CPU TIME=     0.37 TOTAL CPU TIME=       1126.5 (     18.8 MIN)
 TOTAL WALL CLOCK TIME=       2378.1 SECONDS, CPU UTILIZATION IS    47.37%

 Iter=  4 iFrag=      1 EFMO= -1597.630980363, DD= 0.007352744, DE=-0.023621494


 RHF      monomer      7 corr= NONE       , L1=   386, L0=   362 ID=      2


 AO spaces for     7     0     0 n-mer: L1=   386, L0=   362

 DIRECT SCF CALCULATION, SCHWRZ=T   FDIFF=T,  DIRTHR=  0.00E+00 NITDIR=10

                                                                                   NONZERO     BLOCKS
 ITER EX DEM     TOTAL ENERGY        E CHANGE  DENSITY CHANGE     ORB. GRAD      INTEGRALS    SKIPPED
   1  0  0    -1468.4867611422 -1468.4867611422   0.006024922   0.000000000      923721069   17541888
          ---------------START SECOND ORDER SCF---------------
   2  1  0    -1468.4866216368     0.0001395054   0.001149533   0.000332896      786913071   19461088
   3  2  0    -1468.4866293681    -0.0000077314   0.000696519   0.000124074      749687546   19789406
   4  3  0    -1468.4865937806     0.0000355875   0.000127245   0.000033846      706007926   20172660
   5  4  0    -1468.4865925698     0.0000012108   0.000045204   0.000016781      659490377   20567471
   6  5  0    -1468.4865942581    -0.0000016883   0.000018800   0.000004620      606365682   20997679
   7  6  0    -1468.4865946503    -0.0000003922   0.000005184   0.000001773      562461486   21355888
   8  7  0    -1468.4865945041     0.0000001462   0.000001568   0.000000626      514517703   21766045
   9  8  0    -1468.4865944623     0.0000000418   0.000000649   0.000000500      478648359   22063696
  10  9  0    -1468.4865944684    -0.0000000062   0.000000247   0.000000132      441944756   22348499
  11 10  0    -1468.4865944721    -0.0000000036   0.000000150   0.000000067      401027820   22686198

          -----------------
          DENSITY CONVERGED
          -----------------
     TIME TO FORM FOCK OPERATORS=      21.5 SECONDS (       2.0 SEC/ITER)
     FOCK TIME ON FIRST ITERATION=       3.1, LAST ITERATION=       1.2
     TIME TO SOLVE SCF EQUATIONS=       0.4 SECONDS (       0.0 SEC/ITER)

 FINAL RHF ENERGY IS    -1468.4865944721 AFTER  11 ITERATIONS
 ...... END OF RHF CALCULATION ......
 CPU     0: STEP CPU TIME=    51.15 TOTAL CPU TIME=       1177.7 (     19.6 MIN)
 TOTAL WALL CLOCK TIME=       2483.2 SECONDS, CPU UTILIZATION IS    47.42%
 DONE PCM POT.
 CPU     0: STEP CPU TIME=     0.31 TOTAL CPU TIME=       1178.0 (     19.6 MIN)
 TOTAL WALL CLOCK TIME=       2484.2 SECONDS, CPU UTILIZATION IS    47.42%

 Iter=  4 iFrag=      7 EFMO= -1507.417107793, DD= 0.007290463, DE=-0.020386717


 RHF      monomer      5 corr= NONE       , L1=   371, L0=   348 ID=      3

