‘4A4T_3_fmo_input.inp’ -> ‘/scratch/hazwong/824139/./4A4T_3_fmo_input.inp’
‘rungms’ -> ‘/scratch/hazwong/824139/./rungms’
‘gms-files.csh’ -> ‘/scratch/hazwong/824139/./gms-files.csh’
----- GAMESS execution script 'rungms' -----
This job is running on host gollum054.lsa.umich.edu
under operating system Linux at Sat Dec 7 00:06:23 EST 2019
Available scratch disk space (Kbyte units) at beginning of the job is
Filesystem     1K-blocks  Used Available Use% Mounted on
/dev/sda4      426933580 33324 426900256   1% /scratch
GAMESS temporary binary files will be written to /scratch/hazwong/824139/4A4T_3/usrc
GAMESS supplementary output files will be written to /scratch/hazwong/824139/4A4T_3/src
Copying input file 4A4T_3_fmo_input.inp to your run's scratch directory...
cp 4A4T_3_fmo_input.inp /scratch/hazwong/824139/4A4T_3/usrc/4A4T_3_fmo_input.F05
unset echo
This is a GDDI run, keeping various output files on local disks
setenv OUTPUT /scratch/hazwong/824139/4A4T_3/usrc/4A4T_3_fmo_input.F06
setenv PUNCH /scratch/hazwong/824139/4A4T_3/usrc/4A4T_3_fmo_input.F07
unset echo
 
Assuming a single but multicore node.
 
/export/apps/CentOS7/gamess/src/build//ddikick.x /export/apps/CentOS7/gamess/src/build//gamess.R3.x 4A4T_3_fmo_input -ddi 1 16 gollum054.lsa.umich.edu:cpus=16 -scr /scratch/hazwong/824139/4A4T_3/usrc

 Distributed Data Interface kickoff program.
 Initiating 16 compute processes on 1 nodes to run the following command:
 /export/apps/CentOS7/gamess/src/build//gamess.R3.x 4A4T_3_fmo_input 

          ******************************************************
          *         GAMESS VERSION = 30 SEP 2018 (R3)         *
          *             FROM IOWA STATE UNIVERSITY             *
          * M.W.SCHMIDT, K.K.BALDRIDGE, J.A.BOATZ, S.T.ELBERT, *
          *   M.S.GORDON, J.H.JENSEN, S.KOSEKI, N.MATSUNAGA,   *
          *          K.A.NGUYEN, S.J.SU, T.L.WINDUS,           *
          *       TOGETHER WITH M.DUPUIS, J.A.MONTGOMERY       *
          *         J.COMPUT.CHEM.  14, 1347-1363(1993)        *
          **************** 64 BIT LINUX VERSION ****************

  SINCE 1993, STUDENTS AND POSTDOCS WORKING AT IOWA STATE UNIVERSITY
  AND ALSO IN THEIR VARIOUS JOBS AFTER LEAVING ISU HAVE MADE IMPORTANT
  CONTRIBUTIONS TO THE CODE:
     IVANA ADAMOVIC, CHRISTINE AIKENS, YURI ALEXEEV, POOJA ARORA,
     ANDREY ASADCHEV, ROB BELL, PRADIPTA BANDYOPADHYAY, JONATHAN BENTZ,
     BRETT BODE, KURT BRORSEN, CALEB CARLIN, GALINA CHABAN, WEI CHEN,
     CHEOL HO CHOI, PAUL DAY, ALBERT DEFUSCO, NUWAN DESILVA, TIM DUDLEY,
     DMITRI FEDOROV, ALEX FINDLATER, GRAHAM FLETCHER, MARK FREITAG,
     KURT GLAESEMANN, ANASTASIA GUNINA,
     DAN KEMP, GRANT MERRILL, NORIYUKI MINEZAWA, JONATHAN MULLIN,
     TAKESHI NAGATA, SEAN NEDD, HEATHER NETZLOFF, BOSILJKA NJEGIC, RYAN OLSON,
     MIKE PAK, BUU PHAM,
     SPENCER PRUITT, LUKE ROSKOP, JIM SHOEMAKER, LYUDMILA SLIPCHENKO,
     TONY SMITH, SAROM SOK LEANG, JIE SONG, TETSUYA TAKETSUGU, SIMON WEBB,
     PENG XU, SOOHAENG YOO, FEDERICO ZAHARIEV

  ADDITIONAL CODE HAS BEEN PROVIDED BY COLLABORATORS IN OTHER GROUPS:
     IOWA STATE UNIVERSITY:
          JOE IVANIC, AARON WEST, LAIMUTIS BYTAUTAS, KLAUS RUEDENBERG
     UNIVERSITY OF TOKYO: KIMIHIKO HIRAO, TAKAHITO NAKAJIMA,
          TAKAO TSUNEDA, MUNEAKI KAMIYA, SUSUMU YANAGISAWA,
          KIYOSHI YAGI, MAHITO CHIBA, SEIKEN TOKURA, NAOAKI KAWAKAMI
     UNIVERSITY OF AARHUS: FRANK JENSEN
     UNIVERSITY OF IOWA: VISVALDAS KAIRYS, HUI LI
     NATIONAL INST. OF STANDARDS AND TECHNOLOGY: WALT STEVENS, DAVID GARMER
     UNIVERSITY OF PISA: BENEDETTA MENNUCCI, JACOPO TOMASI
     UNIVERSITY OF MEMPHIS: HENRY KURTZ, PRAKASHAN KORAMBATH
     UNIVERSITY OF ALBERTA: TOBY ZENG, MARIUSZ KLOBUKOWSKI
     UNIVERSITY OF NEW ENGLAND: MARK SPACKMAN
     MIE UNIVERSITY: HIROAKI UMEDA
     NAT. INST. OF ADVANCED INDUSTRIAL SCIENCE AND TECHNOLOGY: KAZUO KITAURA
     MICHIGAN STATE UNIVERSITY:
          KAROL KOWALSKI, MARTA WLOCH, JEFFREY GOUR, JESSE LUTZ,
          WEI LI, JUN SHEN, J. EMILIANO DEUSTUA, PIOTR PIECUCH
     UNIVERSITY OF MINNESOTA:
          YINAN SHU
     UNIVERSITY OF SILESIA: MONIKA MUSIAL, STANISLAW KUCHARSKI
     FACULTES UNIVERSITAIRES NOTRE-DAME DE LA PAIX:
          OLIVIER QUINET, BENOIT CHAMPAGNE
     UNIVERSITY OF CALIFORNIA - SANTA BARBARA: BERNARD KIRTMAN
     INSTITUTE FOR MOLECULAR SCIENCE:
          KAZUYA ISHIMURA, MICHIO KATOUDA, AND SHIGERU NAGASE
     UNIVERSITY OF NOTRE DAME: ANNA POMOGAEVA, DAN CHIPMAN
     KYUSHU UNIVERSITY:
          HARUYUKI NAKANO,
          FENG LONG GU, JACEK KORCHOWIEC, MARCIN MAKOWSKI, AND YURIKO AOKI,
          HIROTOSHI MORI AND EISAKU MIYOSHI
     PENNSYLVANIA STATE UNIVERSITY:
          TZVETELIN IORDANOV, CHET SWALINA, JONATHAN SKONE,
          SHARON HAMMES-SCHIFFER
     WASEDA UNIVERSITY:
          MASATO KOBAYASHI, TOMOKO AKAMA, TSUGUKI TOUMA,
          TAKESHI YOSHIKAWA, YASUHIRO IKABATA, JUNJI SEINO,
          YUYA NAKAJIMA, HIROMI NAKAI
     NANJING UNIVERSITY: SHUHUA LI
     UNIVERSITY OF NEBRASKA:
          PEIFENG SU, DEJUN SI, NANDUN THELLAMUREGE, YALI WANG, HUI LI
     UNIVERSITY OF ZURICH: ROBERTO PEVERATI, KIM BALDRIDGE
     N. COPERNICUS UNIVERSITY AND JACKSON STATE UNIVERSITY:
          MARIA BARYSZ
     UNIVERSITY OF COPENHAGEN: Jimmy Kromann, CASPER STEINMANN
     TOKYO INSTITUTE OF TECHNOLOGY: HIROYA NAKATA
     NAGOYA UNIVERSITY: YOSHIO NISHIMOTO, STEPHAN IRLE
     MOSCOW STATE UNIVERSITY: VLADIMIR MIRONOV


 PARALLEL VERSION RUNNING ON       16 PROCESSORS IN        1 NODES.

 EXECUTION OF GAMESS BEGUN Sat Dec  7 00:06:24 2019

            ECHO OF THE FIRST FEW INPUT CARDS -
 INPUT CARD>!*** FMO 5.3 (Gamess) INPUT generated by Facio 22.1.1.32 ***                    
 INPUT CARD> $CONTRL RUNTYP=ENERGY NPRINT=-5 ISPHER=1 MAXIT=200 $END                        
 INPUT CARD> $SYSTEM MWORDS=63 MEMDDI=63 $END                                               
 INPUT CARD> $GDDI NGROUP=1 $END                                                            
 INPUT CARD> $SCF DIRSCF=.TRUE. NPUNCH=0 $END                                               
 INPUT CARD>!*** NumCPU : 2  MemPerNode : 512MB                                             
 INPUT CARD> $PCM SOLVNT=WATER IEF=-10 ICOMP=2 ICAV=1 IDISP=1 IFMO=-1 $END                  
 INPUT CARD> $PCMCAV RADII=SUAHF $END                                                       
 INPUT CARD> $TESCAV NTSALL=60 $END                                                         
 INPUT CARD> $FMOPRP                                                                        
 INPUT CARD>    NAODIR=200                                                                  
 INPUT CARD>    NGRFMO(1)=1, 1, 0, 0, 0,   0, 0, 0, 0, 0                                    
 INPUT CARD>    IPIEDA=1                                                                    
 INPUT CARD>    NPRINT=9                                                                    
 INPUT CARD> $END                                                                           
 INPUT CARD> $FMO                                                                           
 INPUT CARD>      SCFTYP(1)=RHF                                                             
 INPUT CARD>      MODGRD=10                                                                 
 INPUT CARD>      MODMUL=0                                                                  
 INPUT CARD>      MAXCAO=5                                                                  
 INPUT CARD>      MAXBND=10                                                                 
 INPUT CARD>      NLAYER=1                                                                  
 INPUT CARD>      MPLEVL(1)=2                                                               
 INPUT CARD>      NFRAG=8                                                                   
 INPUT CARD>      ICHARG(1)=-1, -1, -1, -1, -1, -1, -1, 0                                   
 INPUT CARD>      FRGNAM(1)=F1, F2, F3, F4, F5, F6, F7, F8                                  
 INPUT CARD>      indat(1)=0                                                                
 INPUT CARD>               1   -36   0                                                      
 INPUT CARD>               37   -67   0                                                     
 INPUT CARD>               68   -97   0                                                     
 INPUT CARD>               98   -127   0                                                    
 INPUT CARD>               128   -160   0                                                   
 INPUT CARD>               161   -191   0                                                   
 INPUT CARD>               192   -225   0                                                   
 INPUT CARD>               226   -253   0                                                   
 INPUT CARD> $END                                                                           
 INPUT CARD>                                                                                
 INPUT CARD> $FMOBND                                                                        
 INPUT CARD>   -37   36       6-31G*    MINI                                                
 INPUT CARD>   -68   67       6-31G*    MINI                                                
 INPUT CARD>   -98   97       6-31G*    MINI                                                
 INPUT CARD>   -128   127       6-31G*    MINI                                              
 INPUT CARD>   -161   160       6-31G*    MINI                                              
 INPUT CARD>   -192   191       6-31G*    MINI                                              
 INPUT CARD>   -226   225       6-31G*    MINI                                              
 INPUT CARD> $END                                                                           
 INPUT CARD> $FMOHYB                                                                        
 INPUT CARD> 6-31G*      15   5                                                             
 INPUT CARD>   1 0  -0.065034   0.288264   0.000000   0.000000   0.604412                   
 INPUT CARD>         0.290129   0.000000   0.000000   0.319045  -0.017106                   


 -------------------------------------------------------------
 GROUP DDI, PROGRAMMED BY: RYAN M. OLSON AND DMITRI G. FEDOROV
        FEDOROV ET AL., J. COMPUT. CHEM., 25 (2004) 872.
 -------------------------------------------------------------

 -------------------------------------------------------
 GDDI: INITIALIZATION COMPLETED FOR GROUP     1 OF     1
 WITH    16 PROCESSES BALTYP=DLB   global rank=        0
 -------------------------------------------------------

   63000000 WORDS OF MEMORY AVAILABLE


     RUN TITLE
     ---------
  FMO calculation                                                                

 THE POINT GROUP OF THE MOLECULE IS C1      
 THE ORDER OF THE PRINCIPAL AXIS IS     0

 ATOM   ATOMIC CHARGE
 H.1-1       1.0
 O.1-1       8.0
 C.1-1       6.0
 N.1-1       7.0
 P.1-1      15.0

     ATOMIC BASIS SET LIBRARY
     ----------------
 THE CONTRACTED PRIMITIVE FUNCTIONS HAVE BEEN UNNORMALIZED
 THE CONTRACTED BASIS FUNCTIONS ARE NOW NORMALIZED TO UNITY

  SHELL TYPE  PRIMITIVE        EXPONENT          CONTRACTION COEFFICIENT(S)

 H.1-1     

      1   S       1            18.7311370    0.033494604338
      1   S       2             2.8253944    0.234726953484
      1   S       3             0.6401217    0.813757326146

      2   S       4             0.1612778    1.000000000000

 O.1-1     

      3   S       5          5484.6716600    0.001831074430
      3   S       6           825.2349460    0.013950172200
      3   S       7           188.0469580    0.068445078098
      3   S       8            52.9645000    0.232714335992
      3   S       9            16.8975704    0.470192897984
      3   S      10             5.7996353    0.358520852987

      4   L      11            15.5396162   -0.110777549525    0.070874268231
      4   L      12             3.5999336   -0.148026262701    0.339752839147
      4   L      13             1.0137618    1.130767015354    0.727158577316

      5   L      14             0.2700058    1.000000000000    1.000000000000

      6   D      15             0.8000000    1.000000000000

 C.1-1     

      7   S      16          3047.5248800    0.001834737132
      7   S      17           457.3695180    0.014037322813
      7   S      18           103.9486850    0.068842622264
      7   S      19            29.2101553    0.232184443216
      7   S      20             9.2866630    0.467941348435
      7   S      21             3.1639270    0.362311985337

      8   L      22             7.8682723   -0.119332419775    0.068999066591
      8   L      23             1.8812885   -0.160854151696    0.316423960957
      8   L      24             0.5442493    1.143456437840    0.744308290898

      9   L      25             0.1687145    1.000000000000    1.000000000000

     10   D      26             0.8000000    1.000000000000

 N.1-1     

     11   S      27          4173.5114600    0.001834772160
     11   S      28           627.4579110    0.013994627002
     11   S      29           142.9020930    0.068586551812
     11   S      30            40.2343293    0.232240873040
     11   S      31            12.8202129    0.469069948082
     11   S      32             4.3904370    0.360455199063

     12   L      33            11.6263619   -0.114961181702    0.067579743878
     12   L      34             2.7162798   -0.169117478561    0.323907295893
     12   L      35             0.7722184    1.145851947027    0.740895139755

     13   L      36             0.2120315    1.000000000000    1.000000000000

     14   D      37             0.8000000    1.000000000000

 P.1-1     

     15   S      38         19413.3000000    0.001851598923
     15   S      39          2909.4200000    0.014206191735
     15   S      40           661.3640000    0.069999459277
     15   S      41           185.7590000    0.240078860331
     15   S      42            59.1943000    0.484761717984
     15   S      43            20.0310000    0.335199804993

     16   L      44           339.4780000   -0.002782170105    0.004564616191
     16   L      45            81.0101000   -0.036049901354    0.033693571881
     16   L      46            25.8780000   -0.116631004382    0.139754883368
     16   L      47             9.4522100    0.096832803638    0.339361716786
     16   L      48             3.6656600    0.614418023082    0.450920623685
     16   L      49             1.4674600    0.403798015170    0.238585800889

     17   L      50             2.1562300   -0.252924113863   -0.017765312733
     17   L      51             0.7489970    0.032851844678    0.274058196433
     17   L      52             0.2831450    1.081254761783    0.785421562957

     18   L      53             0.0998317    1.000000000000    1.000000000000

     19   D      54             0.5500000    1.000000000000

 TOTAL NUMBER OF BASIS SET SHELLS             =   19
 NUMBER OF CARTESIAN GAUSSIAN BASIS FUNCTIONS =   66

     $CONTRL OPTIONS
     ---------------
 SCFTYP=RHF          RUNTYP=ENERGY       EXETYP=RUN     
 MPLEVL=       0     CITYP =NONE         CCTYP =NONE         VBTYP =NONE    
 DFTTYP=NONE         TDDFT =NONE    
 MULT  =       1     ICHARG=       0     NZVAR =       0     COORD =UNIQUE  
 PP    =NONE         RELWFN=NONE         LOCAL =NONE         NUMGRD=       F
 ISPHER=       1     NOSYM =       0     MAXIT =     200     UNITS =ANGS    
 PLTORB=       F     MOLPLT=       F     AIMPAC=       F     FRIEND=        
 NPRINT=      -5     IREST =       0     GEOM  =INPUT   
 NORMF =       0     NORMP =       0     ITOL  =      24     ICUT  =      12
 INTTYP=BEST         GRDTYP=BEST         QMTTOL= 1.0E-06

     $SYSTEM OPTIONS
     ---------------
  REPLICATED MEMORY=    63000000 WORDS (ON EVERY NODE).
 DISTRIBUTED MEMDDI=          63 MILLION WORDS IN AGGREGATE,
 MEMDDI DISTRIBUTED OVER  16 PROCESSORS IS     3937500 WORDS/PROCESSOR.
 TOTAL MEMORY REQUESTED ON EACH PROCESSOR=    66937500 WORDS.
 TIMLIM=      525600.00 MINUTES, OR     365.0 DAYS.
 PARALL= T  BALTYP=  DLB     KDIAG=    0  COREFL= F
 MXSEQ2=     300 MXSEQ3=     150  mem10=         0

 ** LOOKING UP INTERNALLY STORED DATA FOR SOLVENT=WATER    **
 OPTICAL AND PHYSICAL CONSTANTS:
 EPS= 78.390; EPSINF=  1.776; RSOLV=  1.385 A; VMOL=  18.070 ML/MOL;
 TCE= .25700E-03 1/K; STEN= 71.810 DYN/CM;  DSTEN=  0.6500; CMF=  1.2770


     -----------------------------------
     INPUT FOR PCM SOLVATION CALCULATION 
     -----------------------------------
     IEF   =     -10
     ICOMP =       2     IFIELD=       0     ICAV  =       1
     IDISP =       1     IREP  =       0     IDP   =       0

     SOLVNT=WATER        EPS   = 78.3900     EPSINF=  1.7760
     VMOL  = 18.0700     TCE   =  0.00025700 STEN  = 71.8100
     DSTEN =  0.6500     CMF   =  1.2770     RSOLV =  1.3850

     NESFP =       0
     OMEGA = 40.0000     RET   =100.0000     FRO   =  0.7000

     TABS  =298.0000     IPRINT=       0

     --------------------------------
     INPUT FOR ITERATIVE C-PCM METHOD 
     --------------------------------
     IPCMIT  =         1     MXDIIS  =        50
     MXITR1  =       200     MXITR2  =       200
     THRES   = 0.100E-09     IMUL    =         3
     RCUT(1) =   20.0000     RCUT(2) =   50.0000

     IDIRCT  =         1
     IMGABI  =         0     RABI    =    4.0000
     IMGASC  =         0     RASC    =   20.0000
     THRSLS  = 0.500E-03     DENSLS  =    0.0100
     IEFPOL  =         1     REFPOL  =    0.0000

     INPUT FOR ISOTROPIC DIELECTRICS
     -------------------------------
     EPS=    78.39

          ----------------
          PROPERTIES INPUT
          ----------------

     MOMENTS            FIELD           POTENTIAL          DENSITY
 IEMOM =       1   IEFLD =       0   IEPOT =       0   IEDEN =       0
 WHERE =COMASS     WHERE =NUCLEI     WHERE =NUCLEI     WHERE =NUCLEI  
 OUTPUT=BOTH       OUTPUT=BOTH       OUTPUT=NONE       OUTPUT=BOTH    
 IEMINT=       0   IEFINT=       0                     IEDINT=       0
                                                       MORB  =       0
          EXTRAPOLATION IN EFFECT
          SOSCF IN EFFECT
 ORBITAL PRINTING OPTION: NPREO=     1 32767     2     1

     -------------------------------
     INTEGRAL TRANSFORMATION OPTIONS
     -------------------------------
     NWORD  =            0
     CUTOFF = 1.0E-10     MPTRAN =       0
     DIRTRF =       T     AOINTS =DUP     

          ----------------------
          INTEGRAL INPUT OPTIONS
          ----------------------
 NOPK  =       1 NORDER=       0 SCHWRZ=       T

 ..... DONE SETTING UP THE RUN .....
 CPU     0: STEP CPU TIME=     0.03 TOTAL CPU TIME=          0.0 (      0.0 MIN)
 TOTAL WALL CLOCK TIME=          0.1 SECONDS, CPU UTILIZATION IS    30.00%
 CPU     0: STEP CPU TIME=     0.00 TOTAL CPU TIME=          0.0 (      0.0 MIN)
 TOTAL WALL CLOCK TIME=          0.1 SECONDS, CPU UTILIZATION IS    30.00%

                    ----------------------
                    AO INTEGRAL TECHNOLOGY
                    ----------------------
     S,P,L SHELL ROTATED AXIS INTEGRALS, REPROGRAMMED BY
        KAZUYA ISHIMURA (IMS) AND JOSE SIERRA (SYNSTAR).
     S,P,D,L SHELL ROTATED AXIS INTEGRALS PROGRAMMED BY
        KAZUYA ISHIMURA (INSTITUTE FOR MOLECULAR SCIENCE).
     S,P,D,F,G SHELL TO TOTAL QUARTET ANGULAR MOMENTUM SUM 5,
        ERIC PROGRAM BY GRAHAM FLETCHER (ELORET AND NASA ADVANCED
        SUPERCOMPUTING DIVISION, AMES RESEARCH CENTER).
     S,P,D,F,G,L SHELL GENERAL RYS QUADRATURE PROGRAMMED BY
        MICHEL DUPUIS (PACIFIC NORTHWEST NATIONAL LABORATORY).
 Setting modorb=1 flag...
 Setting modorb=1 flag...

          -----------------------
          MP2 CONTROL INFORMATION
          -----------------------
          NACORE =        8  NBCORE =        8
          LMOMP2 =        F  AOINTS = DUP     
          METHOD =        2  NWORD  =               0
          MP2PRP =        F  OSPT   = NONE    
          CUTOFF = 1.00E-12  CPHFBS = BASISAO 
          CODE   = IMS     

          NUMBER OF CORE -A-  ORBITALS =     8
          NUMBER OF CORE -B-  ORBITALS =     8
          NUMBER OF OCC. -A-  ORBITALS =    18
          NUMBER OF OCC. -B-  ORBITALS =    18
          NUMBER OF MOLECULAR ORBITALS =    66
          NUMBER OF   BASIS  FUNCTIONS =    66

 CPU     0: STEP CPU TIME=     0.03 TOTAL CPU TIME=          0.1 (      0.0 MIN)
 TOTAL WALL CLOCK TIME=          0.1 SECONDS, CPU UTILIZATION IS    42.86%
 CPU     0: STEP CPU TIME=     0.00 TOTAL CPU TIME=          0.1 (      0.0 MIN)
 TOTAL WALL CLOCK TIME=          0.1 SECONDS, CPU UTILIZATION IS    42.86%

     INPUT FOR CAVITY DEFINITION 
     ---------------------------
   ATOM               COORDINATES                RADIUS       EPS
      1      2.3960     -6.2790      9.4070      0.0100     78.3900
      2      1.8820     -5.6420      9.9390      1.5900     78.3900
      3      2.7560     -5.1500     10.9660      1.7700     78.3900
      4      3.6860     -4.7570     10.4990      0.0100     78.3900
      5      3.0350     -5.9910     11.6390      0.0100     78.3900
      6      2.1200     -4.0390     11.8040      1.7700     78.3900
      7      2.7960     -3.7250     12.6300      0.0100     78.3900
      8      1.8760     -2.8660     10.9680      1.5900     78.3900
      9      0.6380     -2.2790     11.3520      1.7700     78.3900
     10      0.8500     -1.2130     11.5930      0.0100     78.3900
     11     -0.3490     -2.3300     10.2650      1.6800     78.3900
     12     -1.4730     -1.5540     10.1690      1.7700     78.3900
     13     -3.5520      0.8920     11.4630      1.6800     78.3900
     14     -3.1070      1.1280     12.3240      0.0100     78.3900
     15     -4.4040      1.3580     11.2100      0.0100     78.3900
     16     -1.8730     -0.6330     11.0620      1.6800     78.3900
     17     -2.9980     -0.0250     10.6930      1.7700     78.3900
     18     -3.6430     -0.2950      9.5140      1.6800     78.3900
     19     -4.4880      0.2160      9.3080      0.0100     78.3900
     20     -3.2390     -1.2190      8.5590      1.7700     78.3900
     21     -3.8750     -1.3890      7.5120      1.5900     78.3900
     22     -2.0690     -1.9110      8.9750      1.7700     78.3900
     23     -1.3540     -2.9250      8.3500      1.6800     78.3900
     24     -0.3350     -3.1390      9.1500      1.7700     78.3900
     25      0.4680     -3.8620      8.9790      0.0100     78.3900
     26      0.1580     -2.9930     12.5930      1.7700     78.3900
     27     -0.9490     -3.0260     12.6670      0.0100     78.3900
     28      0.6960     -2.3620     13.7370      1.5900     78.3900
     29      0.4380     -2.9050     14.4910      0.0100     78.3900
     30      0.7470     -4.3850     12.4000      1.7700     78.3900
     31      0.1810     -4.9400     11.6160      0.0100     78.3900
     32      0.9240     -5.1530     13.6100      1.5900     78.3900
     33     -0.2420     -6.0790     14.1290      2.1000     78.3900
     34     -0.6490     -6.9860     13.0350      1.5900     78.3900
     35      0.2310     -6.7250     15.3720      1.5900     78.3900
     36     -1.4100     -5.0710     14.4660      1.5900     78.3900
     37     -1.3210     -4.2340     15.6450      1.7700     78.3900
     38     -0.4040     -3.6060     15.6320      0.0100     78.3900
     39     -1.2720     -4.8570     16.5660      0.0100     78.3900
     40     -2.5350     -3.3040     15.7690      1.7700     78.3900
     41     -2.4340     -2.6430     16.6540      0.0100     78.3900
     42     -2.6330     -2.4380     14.6030      1.5900     78.3900
     43     -4.0050     -2.2330     14.2950      1.7700     78.3900
     44     -4.1570     -1.1340     14.3530      0.0100     78.3900
     45     -4.3700     -2.6810     12.9240      1.6800     78.3900
     46     -3.6040     -3.6230     12.2790      1.7700     78.3900
     47     -2.7550     -4.0130     12.8440      0.0100     78.3900
     48     -3.8860     -4.0120     11.0290      1.7700     78.3900
     49     -3.2770     -4.7380     10.4930      0.0100     78.3900
     50     -5.4920     -2.1480     12.2940      1.7700     78.3900
     51     -6.1850     -1.3100     12.8980      1.5900     78.3900
     52     -5.7890     -2.5260     11.0310      1.6800     78.3900
     53     -5.0230     -3.4290     10.3960      1.7700     78.3900
     54     -5.3360     -3.7720      9.1500      1.6800     78.3900
     55     -6.1850     -3.4150      8.7510      0.0100     78.3900
     56     -4.8040     -4.4410      8.6260      0.0100     78.3900
     57     -4.8320     -2.8960     15.3830      1.7700     78.3900
     58     -5.7880     -3.3090     15.0040      0.0100     78.3900
     59     -5.0840     -1.9730     16.4290      1.5900     78.3900
     60     -5.4700     -2.4720     17.1670      0.0100     78.3900
     61     -3.8980     -4.0080     15.8430      1.7700     78.3900
     62     -3.8710     -4.8280     15.0900      0.0100     78.3900
     63     -4.1410     -4.4790     17.1870      1.5900     78.3900
     64     -5.0690     -5.7250     17.4160      2.1000     78.3900
     65     -4.5320     -6.8500     16.6180      1.5900     78.3900
     66     -5.2140     -5.9360     18.8720      1.5900     78.3900
     67     -6.4580     -5.2780     16.8340      1.5900     78.3900
     68     -7.3890     -6.2660     16.3270      1.7700     78.3900
     69     -8.1040     -6.5560     17.1300      0.0100     78.3900
     70     -6.8820     -7.2010     15.9910      0.0100     78.3900
     71     -8.1900     -5.7410     15.1280      1.7700     78.3900
     72     -8.9660     -5.0240     15.4660      0.0100     78.3900
     73     -7.3310     -5.0100     14.2050      1.5900     78.3900
     74     -7.6140     -5.3920     12.8730      1.7700     78.3900
     75     -7.7780     -4.4450     12.3060      0.0100     78.3900
     76     -6.4890     -6.1480     12.2580      1.6800     78.3900
     77     -5.3980     -6.5530     13.0030      1.7700     78.3900
     78     -5.4350     -6.3260     14.0730      0.0100     78.3900
     79     -6.5270     -6.3550     10.8970      1.7700     78.3900
     80     -7.4440     -5.9570     10.1920      1.5900     78.3900
     81     -5.4490     -7.0250     10.3810      1.6800     78.3900
     82     -5.4820     -7.2000      9.3900      0.0100     78.3900
     83     -4.3270     -7.4500     11.0550      1.7700     78.3900
     84     -3.4200     -8.0060     10.4410      1.5900     78.3900
     85     -4.3400     -7.1710     12.4610      1.7700     78.3900
     86     -3.4810     -7.4560     13.0630      0.0100     78.3900
     87     -8.9100     -6.1780     12.9140      1.7700     78.3900
     88     -9.0210     -6.9100     12.0880      0.0100     78.3900
     89     -9.9850     -5.2720     12.9180      1.5900     78.3900
     90    -10.0830     -4.9760     13.8240      0.0100     78.3900
     91     -8.8250     -6.8470     14.2710      1.7700     78.3900
     92     -8.0810     -7.6810     14.2390      0.0100     78.3900
     93    -10.1150     -7.2180     14.8220      1.5900     78.3900
     94    -10.5150     -8.7360     14.8380      2.1000     78.3900
     95     -9.6260     -9.5090     13.9390      1.5900     78.3900
     96    -10.5830     -9.1720     16.2460      1.5900     78.3900
     97    -11.9670     -8.7850     14.2460      1.5900     78.3900
     98    -12.2270     -8.6830     12.8260      1.7700     78.3900
     99    -11.7460     -9.5190     12.2650      0.0100     78.3900
    100    -11.8030     -7.7270     12.4370      0.0100     78.3900
    101    -13.7410     -8.6990     12.4980      1.7700     78.3900
    102    -14.1220     -9.7360     12.4000      0.0100     78.3900
    103    -14.5040     -8.0890     13.5850      1.5900     78.3900
    104    -15.4910     -7.2140     13.0760      1.7700     78.3900
    105    -16.4440     -7.5370     13.5570      0.0100     78.3900
    106    -15.2080     -5.7900     13.4300      1.6800     78.3900
    107    -14.0670     -5.4300     14.1260      1.7700     78.3900
    108    -13.3750     -6.2420     14.3660      0.0100     78.3900
    109    -16.1650     -4.8480     13.1170      1.7700     78.3900
    110    -17.2190     -5.1320     12.5610      1.5900     78.3900
    111    -15.8640     -3.5670     13.4970      1.6800     78.3900
    112    -16.5720     -2.8760     13.3090      0.0100     78.3900
    113    -14.7810     -3.1460     14.2350      1.7700     78.3900
    114    -14.7020     -1.9720     14.5930      1.5900     78.3900
    115    -13.8290     -4.1730     14.5320      1.7700     78.3900
    116    -12.9510     -3.9160     15.1210      0.0100     78.3900
    117    -15.5720     -7.4580     11.5770      1.7700     78.3900
    118    -15.8420     -6.5470     11.0010      0.0100     78.3900
    119    -16.5070     -8.4900     11.3040      1.5900     78.3900
    120    -16.4060     -8.7380     10.3710      0.0100     78.3900
    121    -14.1460     -7.8800     11.2550      1.7700     78.3900
    122    -13.4870     -6.9780     11.2450      0.0100     78.3900
    123    -14.0350     -8.6850     10.0630      1.5900     78.3900
    124    -13.4020     -8.1070      8.7460      2.1000     78.3900
    125    -12.1500     -7.3980      9.0760      1.5900     78.3900
    126    -13.3250     -9.1960      7.7500      1.5900     78.3900
    127    -14.4550     -7.0700      8.2160      1.5900     78.3900
    128    -14.1000     -6.1450      7.1470      1.7700     78.3900
    129    -14.4510     -6.5400      6.1690      0.0100     78.3900
    130    -12.9910     -6.0130      7.0540      0.0100     78.3900
    131    -14.7100     -4.7340      7.3250      1.7700     78.3900
    132    -15.6770     -4.6460      6.7860      0.0100     78.3900
    133    -15.0020     -4.4950      8.7400      1.5900     78.3900
    134    -14.6150     -3.1960      9.1040      1.7700     78.3900
    135    -15.4900     -2.7260      9.6120      0.0100     78.3900
    136    -13.4830     -3.2260     10.0260      1.6800     78.3900
    137    -12.0160     -2.7580     11.5920      1.7700     78.3900
    138    -11.6250     -3.9490     11.0170      1.6800     78.3900
    139    -12.5240     -4.2030     10.1160      1.7700     78.3900
    140    -12.5530     -5.0990      9.4910      0.0100     78.3900
    141    -12.0980     -0.8280     12.9510      1.6800     78.3900
    142    -13.1680     -0.4730     12.2330      1.7700     78.3900
    143    -13.6190      0.4860     12.5130      0.0100     78.3900
    144    -13.8190     -1.1500     11.2740      1.6800     78.3900
    145    -13.1620     -2.2880     10.9810      1.7700     78.3900
    146    -11.4820     -1.9970     12.6560      1.7700     78.3900
    147    -10.4150     -2.3940     13.3770      1.6800     78.3900
    148     -9.9060     -3.2070     13.0840      0.0100     78.3900
    149    -10.0860     -1.8330     14.1410      0.0100     78.3900
    150    -14.3000     -2.4510      7.8320      1.7700     78.3900
    151    -13.5210     -1.6880      7.9930      0.0100     78.3900
    152    -15.4730     -1.8430      7.3270      1.5900     78.3900
    153    -15.2170     -1.2760      6.5870      0.0100     78.3900
    154    -13.7850     -3.5610      6.9200      1.7700     78.3900
    155    -12.7480     -3.8260      7.2350      0.0100     78.3900
    156    -13.8940     -3.2470      5.5040      1.5900     78.3900
    157    -12.7290     -3.6170      4.5010      2.1000     78.3900
    158    -11.4310     -3.3840      5.1440      1.5900     78.3900
    159    -12.9590     -4.9760      3.9730      1.5900     78.3900
    160    -12.8880     -2.5900      3.3200      1.5900     78.3900
    161    -12.5170     -1.1990      3.3970      1.7700     78.3900
    162    -11.5060     -1.0560      2.9510      0.0100     78.3900
    163    -12.4610     -0.8490      4.4470      0.0100     78.3900
    164    -13.5110     -0.2660      2.6760      1.7700     78.3900
    165    -13.2410      0.7930      2.8860      0.0100     78.3900
    166    -13.4860     -0.4520      1.2360      1.5900     78.3900
    167    -14.6630     -1.1490      0.8020      1.7700     78.3900
    168    -15.2730     -0.3940      0.2590      0.0100     78.3900
    169    -14.3450     -2.2960     -0.1150      1.6800     78.3900
    170    -13.0270     -2.5360     -0.4650      1.7700     78.3900
    171    -12.2690     -1.9090      0.0110      0.0100     78.3900
    172    -12.6920     -3.5110     -1.3160      1.7700     78.3900
    173    -11.6640     -3.7090     -1.6030      0.0100     78.3900
    174    -15.3530     -3.0480     -0.7320      1.7700     78.3900
    175    -16.5430     -2.7600     -0.5400      1.5900     78.3900
    176    -15.0250     -4.0730     -1.5510      1.6800     78.3900
    177    -13.7390     -4.2970     -1.8670      1.7700     78.3900
    178    -13.4580     -5.2590     -2.7440      1.6800     78.3900
    179    -14.2220     -5.7660     -3.1460      0.0100     78.3900
    180    -12.5270     -5.4580     -3.0460      0.0100     78.3900
    181    -15.4190     -1.5720      2.0620      1.7700     78.3900
    182    -15.0830     -2.5780      2.3870      0.0100     78.3900
    183    -16.8270     -1.5600      1.9350      1.5900     78.3900
    184    -17.0940     -0.6380      1.8010      0.0100     78.3900
    185    -14.9730     -0.5100      3.0570      1.7700     78.3900
    186    -14.9850     -0.9600      4.0790      0.0100     78.3900
    187    -15.7370      0.7110      2.9730      1.5900     78.3900
    188    -16.4280      1.3600      4.2190      2.1000     78.3900
    189    -16.5150      2.8190      3.9950      1.5900     78.3900
    190    -17.7090      0.6680      4.4720      1.5900     78.3900
    191    -15.4490      1.0800      5.4210      1.5900     78.3900
    192    -14.2120      1.8150      5.5600      1.7700     78.3900
    193    -14.2410      2.8150      5.0670      0.0100     78.3900
    194    -13.3840      1.2400      5.0910      0.0100     78.3900
    195    -13.8580      2.0310      7.0340      1.7700     78.3900
    196    -14.6630      2.5870      7.5640      0.0100     78.3900
    197    -13.6900      0.7490      7.6910      1.5900     78.3900
    198    -12.6130      0.8260      8.6160      1.7700     78.3900
    199    -13.0140      0.5150      9.6030      0.0100     78.3900
    200    -11.5160     -0.0660      8.2290      1.6800     78.3900
    201    -10.4080     -0.3980      8.9590      1.7700     78.3900
    202     -8.4820     -0.1550     11.8160      1.6800     78.3900
    203     -9.0100      0.4600     12.4000      0.0100     78.3900
    204     -7.6440     -0.5760     12.1740      0.0100     78.3900
    205    -10.1080      0.0400     10.1900      1.6800     78.3900
    206     -8.9760     -0.4960     10.6470      1.7700     78.3900
    207     -8.2330     -1.4040      9.9430      1.6800     78.3900
    208     -7.3930     -1.7700     10.3650      0.0100     78.3900
    209     -8.5190     -1.8700      8.6720      1.7700     78.3900
    210     -7.7970     -2.6860      8.0900      1.5900     78.3900
    211     -9.6950     -1.2720      8.1650      1.7700     78.3900
    212    -10.3210     -1.4570      6.9580      1.6800     78.3900
    213    -11.4070     -0.7440      7.0430      1.7700     78.3900
    214    -12.1930     -0.6930      6.2930      0.0100     78.3900
    215    -12.1750      2.2650      8.6790      1.7700     78.3900
    216    -11.0920      2.3760      8.8950      0.0100     78.3900
    217    -12.9290      2.9410      9.6670      1.5900     78.3900
    218    -12.7000      3.8760      9.6060      0.0100     78.3900
    219    -12.5160      2.7350      7.2690      1.7700     78.3900
    220    -11.8080      2.2840      6.5300      0.0100     78.3900
    221    -12.6700      4.1650      7.1280      1.5900     78.3900
    222    -11.4830      4.9990      6.5150      2.1000     78.3900
    223    -10.8710      4.2570      5.3900      1.5900     78.3900
    224    -11.9400      6.3750      6.2310      1.5900     78.3900
    225    -10.4380      5.0420      7.6910      1.5900     78.3900
    226    -10.7800      5.6770      8.9450      1.7700     78.3900
    227    -11.7050      5.2440      9.3840      0.0100     78.3900
    228    -10.9650      6.7670      8.7940      0.0100     78.3900
    229     -9.6510      5.5180      9.9700      1.7700     78.3900
    230     -9.8850      6.0930     10.8960      0.0100     78.3900
    231     -9.5290      4.1190     10.3540      1.5900     78.3900
    232     -8.1520      3.7970     10.5140      1.7700     78.3900
    233     -8.0520      3.3910     11.5480      0.0100     78.3900
    234     -7.6880      2.7670      9.5410      1.6800     78.3900
    235     -8.3910      2.5490      8.3780      1.7700     78.3900
    236     -9.2950      3.1420      8.2490      0.0100     78.3900
    237     -8.0050      1.6320      7.4840      1.7700     78.3900
    238     -8.5740      1.4340      6.5790      0.0100     78.3900
    239     -6.5240      2.0420      9.7810      1.7700     78.3900
    240     -5.8750      2.2640     10.8140      1.5900     78.3900
    241     -6.1210      1.1060      8.8930      1.6800     78.3900
    242     -6.8200      0.8960      7.7640      1.7700     78.3900
    243     -6.3970     -0.0320      6.9070      1.6800     78.3900
    244     -5.5670     -0.5560      7.1140      0.0100     78.3900
    245     -6.8860     -0.2300      6.0580      0.0100     78.3900
    246     -7.3610      5.0930     10.4130      1.7700     78.3900
    247     -6.3550      4.9370      9.9640      0.0100     78.3900
    248     -7.2250      5.6810     11.6980      1.5900     78.3900
    249     -6.8720      6.5850     11.6010      0.0100     78.3900
    250     -8.2510      5.9170      9.4900      1.7700     78.3900
    251     -8.1310      5.5810      8.4380      0.0100     78.3900
    252     -8.0610      7.3390      9.6000      1.5900     78.3900
    253     -7.1840      7.5770      9.2580      0.0100     78.3900

     ----------------------------
     INPUT FOR TESSERA DEFINITION
     ----------------------------
     NTSALL  =        60     MTHALL  =         4
     MTHAUT  =         0     AUTFRE  =    2.0000
     NTSFRZ  =        60     KEEPSM  =         0
     AREAKP  =   10.0000     BONDRY  =    1.0000
     AREATL  =    0.0100

     SPHERE     INITS       METHOD
          1        60       FIXPVA
          2        60       FIXPVA
          3        60       FIXPVA
          4        60       FIXPVA
          5        60       FIXPVA
          6        60       FIXPVA
          7        60       FIXPVA
          8        60       FIXPVA
          9        60       FIXPVA
         10        60       FIXPVA
         11        60       FIXPVA
         12        60       FIXPVA
         13        60       FIXPVA
         14        60       FIXPVA
         15        60       FIXPVA
         16        60       FIXPVA
         17        60       FIXPVA
         18        60       FIXPVA
         19        60       FIXPVA
         20        60       FIXPVA
         21        60       FIXPVA
         22        60       FIXPVA
         23        60       FIXPVA
         24        60       FIXPVA
         25        60       FIXPVA
         26        60       FIXPVA
         27        60       FIXPVA
         28        60       FIXPVA
         29        60       FIXPVA
         30        60       FIXPVA
         31        60       FIXPVA
         32        60       FIXPVA
         33        60       FIXPVA
         34        60       FIXPVA
         35        60       FIXPVA
         36        60       FIXPVA
         37        60       FIXPVA
         38        60       FIXPVA
         39        60       FIXPVA
         40        60       FIXPVA
         41        60       FIXPVA
         42        60       FIXPVA
         43        60       FIXPVA
         44        60       FIXPVA
         45        60       FIXPVA
         46        60       FIXPVA
         47        60       FIXPVA
         48        60       FIXPVA
         49        60       FIXPVA
         50        60       FIXPVA
         51        60       FIXPVA
         52        60       FIXPVA
         53        60       FIXPVA
         54        60       FIXPVA
         55        60       FIXPVA
         56        60       FIXPVA
         57        60       FIXPVA
         58        60       FIXPVA
         59        60       FIXPVA
         60        60       FIXPVA
         61        60       FIXPVA
         62        60       FIXPVA
         63        60       FIXPVA
         64        60       FIXPVA
         65        60       FIXPVA
         66        60       FIXPVA
         67        60       FIXPVA
         68        60       FIXPVA
         69        60       FIXPVA
         70        60       FIXPVA
         71        60       FIXPVA
         72        60       FIXPVA
         73        60       FIXPVA
         74        60       FIXPVA
         75        60       FIXPVA
         76        60       FIXPVA
         77        60       FIXPVA
         78        60       FIXPVA
         79        60       FIXPVA
         80        60       FIXPVA
         81        60       FIXPVA
         82        60       FIXPVA
         83        60       FIXPVA
         84        60       FIXPVA
         85        60       FIXPVA
         86        60       FIXPVA
         87        60       FIXPVA
         88        60       FIXPVA
         89        60       FIXPVA
         90        60       FIXPVA
         91        60       FIXPVA
         92        60       FIXPVA
         93        60       FIXPVA
         94        60       FIXPVA
         95        60       FIXPVA
         96        60       FIXPVA
         97        60       FIXPVA
         98        60       FIXPVA
         99        60       FIXPVA
        100        60       FIXPVA
        101        60       FIXPVA
        102        60       FIXPVA
        103        60       FIXPVA
        104        60       FIXPVA
        105        60       FIXPVA
        106        60       FIXPVA
        107        60       FIXPVA
        108        60       FIXPVA
        109        60       FIXPVA
        110        60       FIXPVA
        111        60       FIXPVA
        112        60       FIXPVA
        113        60       FIXPVA
        114        60       FIXPVA
        115        60       FIXPVA
        116        60       FIXPVA
        117        60       FIXPVA
        118        60       FIXPVA
        119        60       FIXPVA
        120        60       FIXPVA
        121        60       FIXPVA
        122        60       FIXPVA
        123        60       FIXPVA
        124        60       FIXPVA
        125        60       FIXPVA
        126        60       FIXPVA
        127        60       FIXPVA
        128        60       FIXPVA
        129        60       FIXPVA
        130        60       FIXPVA
        131        60       FIXPVA
        132        60       FIXPVA
        133        60       FIXPVA
        134        60       FIXPVA
        135        60       FIXPVA
        136        60       FIXPVA
        137        60       FIXPVA
        138        60       FIXPVA
        139        60       FIXPVA
        140        60       FIXPVA
        141        60       FIXPVA
        142        60       FIXPVA
        143        60       FIXPVA
        144        60       FIXPVA
        145        60       FIXPVA
        146        60       FIXPVA
        147        60       FIXPVA
        148        60       FIXPVA
        149        60       FIXPVA
        150        60       FIXPVA
        151        60       FIXPVA
        152        60       FIXPVA
        153        60       FIXPVA
        154        60       FIXPVA
        155        60       FIXPVA
        156        60       FIXPVA
        157        60       FIXPVA
        158        60       FIXPVA
        159        60       FIXPVA
        160        60       FIXPVA
        161        60       FIXPVA
        162        60       FIXPVA
        163        60       FIXPVA
        164        60       FIXPVA
        165        60       FIXPVA
        166        60       FIXPVA
        167        60       FIXPVA
        168        60       FIXPVA
        169        60       FIXPVA
        170        60       FIXPVA
        171        60       FIXPVA
        172        60       FIXPVA
        173        60       FIXPVA
        174        60       FIXPVA
        175        60       FIXPVA
        176        60       FIXPVA
        177        60       FIXPVA
        178        60       FIXPVA
        179        60       FIXPVA
        180        60       FIXPVA
        181        60       FIXPVA
        182        60       FIXPVA
        183        60       FIXPVA
        184        60       FIXPVA
        185        60       FIXPVA
        186        60       FIXPVA
        187        60       FIXPVA
        188        60       FIXPVA
        189        60       FIXPVA
        190        60       FIXPVA
        191        60       FIXPVA
        192        60       FIXPVA
        193        60       FIXPVA
        194        60       FIXPVA
        195        60       FIXPVA
        196        60       FIXPVA
        197        60       FIXPVA
        198        60       FIXPVA
        199        60       FIXPVA
        200        60       FIXPVA
        201        60       FIXPVA
        202        60       FIXPVA
        203        60       FIXPVA
        204        60       FIXPVA
        205        60       FIXPVA
        206        60       FIXPVA
        207        60       FIXPVA
        208        60       FIXPVA
        209        60       FIXPVA
        210        60       FIXPVA
        211        60       FIXPVA
        212        60       FIXPVA
        213        60       FIXPVA
        214        60       FIXPVA
        215        60       FIXPVA
        216        60       FIXPVA
        217        60       FIXPVA
        218        60       FIXPVA
        219        60       FIXPVA
        220        60       FIXPVA
        221        60       FIXPVA
        222        60       FIXPVA
        223        60       FIXPVA
        224        60       FIXPVA
        225        60       FIXPVA
        226        60       FIXPVA
        227        60       FIXPVA
        228        60       FIXPVA
        229        60       FIXPVA
        230        60       FIXPVA
        231        60       FIXPVA
        232        60       FIXPVA
        233        60       FIXPVA
        234        60       FIXPVA
        235        60       FIXPVA
        236        60       FIXPVA
        237        60       FIXPVA
        238        60       FIXPVA
        239        60       FIXPVA
        240        60       FIXPVA
        241        60       FIXPVA
        242        60       FIXPVA
        243        60       FIXPVA
        244        60       FIXPVA
        245        60       FIXPVA
        246        60       FIXPVA
        247        60       FIXPVA
        248        60       FIXPVA
        249        60       FIXPVA
        250        60       FIXPVA
        251        60       FIXPVA
        252        60       FIXPVA
        253        60       FIXPVA

     ------------------------------
      FIXPVA TESSELLATION FOR PCM
         PEIFENG SU AND HUI LI
     UNIVERSITY OF NEBRASKA-LINCOLN
     ------------------------------


 PCM DIMENSIONS: MXSP=   253, MXTS=     10120, MEMORY=        103986

     INPUT FOR CAVITY DEFINITION 
     ---------------------------
   ATOM               COORDINATES                RADIUS       EPS
      1      2.3960     -6.2790      9.4070      0.0100     78.3900
      2      1.8820     -5.6420      9.9390      1.5900     78.3900
      3      2.7560     -5.1500     10.9660      1.7700     78.3900
      4      3.6860     -4.7570     10.4990      0.0100     78.3900
      5      3.0350     -5.9910     11.6390      0.0100     78.3900
      6      2.1200     -4.0390     11.8040      1.7700     78.3900
      7      2.7960     -3.7250     12.6300      0.0100     78.3900
      8      1.8760     -2.8660     10.9680      1.5900     78.3900
      9      0.6380     -2.2790     11.3520      1.7700     78.3900
     10      0.8500     -1.2130     11.5930      0.0100     78.3900
     11     -0.3490     -2.3300     10.2650      1.6800     78.3900
     12     -1.4730     -1.5540     10.1690      1.7700     78.3900
     13     -3.5520      0.8920     11.4630      1.6800     78.3900
     14     -3.1070      1.1280     12.3240      0.0100     78.3900
     15     -4.4040      1.3580     11.2100      0.0100     78.3900
     16     -1.8730     -0.6330     11.0620      1.6800     78.3900
     17     -2.9980     -0.0250     10.6930      1.7700     78.3900
     18     -3.6430     -0.2950      9.5140      1.6800     78.3900
     19     -4.4880      0.2160      9.3080      0.0100     78.3900
     20     -3.2390     -1.2190      8.5590      1.7700     78.3900
     21     -3.8750     -1.3890      7.5120      1.5900     78.3900
     22     -2.0690     -1.9110      8.9750      1.7700     78.3900
     23     -1.3540     -2.9250      8.3500      1.6800     78.3900
     24     -0.3350     -3.1390      9.1500      1.7700     78.3900
     25      0.4680     -3.8620      8.9790      0.0100     78.3900
     26      0.1580     -2.9930     12.5930      1.7700     78.3900
     27     -0.9490     -3.0260     12.6670      0.0100     78.3900
     28      0.6960     -2.3620     13.7370      1.5900     78.3900
     29      0.4380     -2.9050     14.4910      0.0100     78.3900
     30      0.7470     -4.3850     12.4000      1.7700     78.3900
     31      0.1810     -4.9400     11.6160      0.0100     78.3900
     32      0.9240     -5.1530     13.6100      1.5900     78.3900
     33     -0.2420     -6.0790     14.1290      2.1000     78.3900
     34     -0.6490     -6.9860     13.0350      1.5900     78.3900
     35      0.2310     -6.7250     15.3720      1.5900     78.3900
     36     -1.4100     -5.0710     14.4660      1.5900     78.3900
     37     -1.3210     -4.2340     15.6450      1.7700     78.3900
     38     -0.4040     -3.6060     15.6320      0.0100     78.3900
     39     -1.2720     -4.8570     16.5660      0.0100     78.3900
     40     -2.5350     -3.3040     15.7690      1.7700     78.3900
     41     -2.4340     -2.6430     16.6540      0.0100     78.3900
     42     -2.6330     -2.4380     14.6030      1.5900     78.3900
     43     -4.0050     -2.2330     14.2950      1.7700     78.3900
     44     -4.1570     -1.1340     14.3530      0.0100     78.3900
     45     -4.3700     -2.6810     12.9240      1.6800     78.3900
     46     -3.6040     -3.6230     12.2790      1.7700     78.3900
     47     -2.7550     -4.0130     12.8440      0.0100     78.3900
     48     -3.8860     -4.0120     11.0290      1.7700     78.3900
     49     -3.2770     -4.7380     10.4930      0.0100     78.3900
     50     -5.4920     -2.1480     12.2940      1.7700     78.3900
     51     -6.1850     -1.3100     12.8980      1.5900     78.3900
     52     -5.7890     -2.5260     11.0310      1.6800     78.3900
     53     -5.0230     -3.4290     10.3960      1.7700     78.3900
     54     -5.3360     -3.7720      9.1500      1.6800     78.3900
     55     -6.1850     -3.4150      8.7510      0.0100     78.3900
     56     -4.8040     -4.4410      8.6260      0.0100     78.3900
     57     -4.8320     -2.8960     15.3830      1.7700     78.3900
     58     -5.7880     -3.3090     15.0040      0.0100     78.3900
     59     -5.0840     -1.9730     16.4290      1.5900     78.3900
     60     -5.4700     -2.4720     17.1670      0.0100     78.3900
     61     -3.8980     -4.0080     15.8430      1.7700     78.3900
     62     -3.8710     -4.8280     15.0900      0.0100     78.3900
     63     -4.1410     -4.4790     17.1870      1.5900     78.3900
     64     -5.0690     -5.7250     17.4160      2.1000     78.3900
     65     -4.5320     -6.8500     16.6180      1.5900     78.3900
     66     -5.2140     -5.9360     18.8720      1.5900     78.3900
     67     -6.4580     -5.2780     16.8340      1.5900     78.3900
     68     -7.3890     -6.2660     16.3270      1.7700     78.3900
     69     -8.1040     -6.5560     17.1300      0.0100     78.3900
     70     -6.8820     -7.2010     15.9910      0.0100     78.3900
     71     -8.1900     -5.7410     15.1280      1.7700     78.3900
     72     -8.9660     -5.0240     15.4660      0.0100     78.3900
     73     -7.3310     -5.0100     14.2050      1.5900     78.3900
     74     -7.6140     -5.3920     12.8730      1.7700     78.3900
     75     -7.7780     -4.4450     12.3060      0.0100     78.3900
     76     -6.4890     -6.1480     12.2580      1.6800     78.3900
     77     -5.3980     -6.5530     13.0030      1.7700     78.3900
     78     -5.4350     -6.3260     14.0730      0.0100     78.3900
     79     -6.5270     -6.3550     10.8970      1.7700     78.3900
     80     -7.4440     -5.9570     10.1920      1.5900     78.3900
     81     -5.4490     -7.0250     10.3810      1.6800     78.3900
     82     -5.4820     -7.2000      9.3900      0.0100     78.3900
     83     -4.3270     -7.4500     11.0550      1.7700     78.3900
     84     -3.4200     -8.0060     10.4410      1.5900     78.3900
     85     -4.3400     -7.1710     12.4610      1.7700     78.3900
     86     -3.4810     -7.4560     13.0630      0.0100     78.3900
     87     -8.9100     -6.1780     12.9140      1.7700     78.3900
     88     -9.0210     -6.9100     12.0880      0.0100     78.3900
     89     -9.9850     -5.2720     12.9180      1.5900     78.3900
     90    -10.0830     -4.9760     13.8240      0.0100     78.3900
     91     -8.8250     -6.8470     14.2710      1.7700     78.3900
     92     -8.0810     -7.6810     14.2390      0.0100     78.3900
     93    -10.1150     -7.2180     14.8220      1.5900     78.3900
     94    -10.5150     -8.7360     14.8380      2.1000     78.3900
     95     -9.6260     -9.5090     13.9390      1.5900     78.3900
     96    -10.5830     -9.1720     16.2460      1.5900     78.3900
     97    -11.9670     -8.7850     14.2460      1.5900     78.3900
     98    -12.2270     -8.6830     12.8260      1.7700     78.3900
     99    -11.7460     -9.5190     12.2650      0.0100     78.3900
    100    -11.8030     -7.7270     12.4370      0.0100     78.3900
    101    -13.7410     -8.6990     12.4980      1.7700     78.3900
    102    -14.1220     -9.7360     12.4000      0.0100     78.3900
    103    -14.5040     -8.0890     13.5850      1.5900     78.3900
    104    -15.4910     -7.2140     13.0760      1.7700     78.3900
    105    -16.4440     -7.5370     13.5570      0.0100     78.3900
    106    -15.2080     -5.7900     13.4300      1.6800     78.3900
    107    -14.0670     -5.4300     14.1260      1.7700     78.3900
    108    -13.3750     -6.2420     14.3660      0.0100     78.3900
    109    -16.1650     -4.8480     13.1170      1.7700     78.3900
    110    -17.2190     -5.1320     12.5610      1.5900     78.3900
    111    -15.8640     -3.5670     13.4970      1.6800     78.3900
    112    -16.5720     -2.8760     13.3090      0.0100     78.3900
    113    -14.7810     -3.1460     14.2350      1.7700     78.3900
    114    -14.7020     -1.9720     14.5930      1.5900     78.3900
    115    -13.8290     -4.1730     14.5320      1.7700     78.3900
    116    -12.9510     -3.9160     15.1210      0.0100     78.3900
    117    -15.5720     -7.4580     11.5770      1.7700     78.3900
    118    -15.8420     -6.5470     11.0010      0.0100     78.3900
    119    -16.5070     -8.4900     11.3040      1.5900     78.3900
    120    -16.4060     -8.7380     10.3710      0.0100     78.3900
    121    -14.1460     -7.8800     11.2550      1.7700     78.3900
    122    -13.4870     -6.9780     11.2450      0.0100     78.3900
    123    -14.0350     -8.6850     10.0630      1.5900     78.3900
    124    -13.4020     -8.1070      8.7460      2.1000     78.3900
    125    -12.1500     -7.3980      9.0760      1.5900     78.3900
    126    -13.3250     -9.1960      7.7500      1.5900     78.3900
    127    -14.4550     -7.0700      8.2160      1.5900     78.3900
    128    -14.1000     -6.1450      7.1470      1.7700     78.3900
    129    -14.4510     -6.5400      6.1690      0.0100     78.3900
    130    -12.9910     -6.0130      7.0540      0.0100     78.3900
    131    -14.7100     -4.7340      7.3250      1.7700     78.3900
    132    -15.6770     -4.6460      6.7860      0.0100     78.3900
    133    -15.0020     -4.4950      8.7400      1.5900     78.3900
    134    -14.6150     -3.1960      9.1040      1.7700     78.3900
    135    -15.4900     -2.7260      9.6120      0.0100     78.3900
    136    -13.4830     -3.2260     10.0260      1.6800     78.3900
    137    -12.0160     -2.7580     11.5920      1.7700     78.3900
    138    -11.6250     -3.9490     11.0170      1.6800     78.3900
    139    -12.5240     -4.2030     10.1160      1.7700     78.3900
    140    -12.5530     -5.0990      9.4910      0.0100     78.3900
    141    -12.0980     -0.8280     12.9510      1.6800     78.3900
    142    -13.1680     -0.4730     12.2330      1.7700     78.3900
    143    -13.6190      0.4860     12.5130      0.0100     78.3900
    144    -13.8190     -1.1500     11.2740      1.6800     78.3900
    145    -13.1620     -2.2880     10.9810      1.7700     78.3900
    146    -11.4820     -1.9970     12.6560      1.7700     78.3900
    147    -10.4150     -2.3940     13.3770      1.6800     78.3900
    148     -9.9060     -3.2070     13.0840      0.0100     78.3900
    149    -10.0860     -1.8330     14.1410      0.0100     78.3900
    150    -14.3000     -2.4510      7.8320      1.7700     78.3900
    151    -13.5210     -1.6880      7.9930      0.0100     78.3900
    152    -15.4730     -1.8430      7.3270      1.5900     78.3900
    153    -15.2170     -1.2760      6.5870      0.0100     78.3900
    154    -13.7850     -3.5610      6.9200      1.7700     78.3900
    155    -12.7480     -3.8260      7.2350      0.0100     78.3900
    156    -13.8940     -3.2470      5.5040      1.5900     78.3900
    157    -12.7290     -3.6170      4.5010      2.1000     78.3900
    158    -11.4310     -3.3840      5.1440      1.5900     78.3900
    159    -12.9590     -4.9760      3.9730      1.5900     78.3900
    160    -12.8880     -2.5900      3.3200      1.5900     78.3900
    161    -12.5170     -1.1990      3.3970      1.7700     78.3900
    162    -11.5060     -1.0560      2.9510      0.0100     78.3900
    163    -12.4610     -0.8490      4.4470      0.0100     78.3900
    164    -13.5110     -0.2660      2.6760      1.7700     78.3900
    165    -13.2410      0.7930      2.8860      0.0100     78.3900
    166    -13.4860     -0.4520      1.2360      1.5900     78.3900
    167    -14.6630     -1.1490      0.8020      1.7700     78.3900
    168    -15.2730     -0.3940      0.2590      0.0100     78.3900
    169    -14.3450     -2.2960     -0.1150      1.6800     78.3900
    170    -13.0270     -2.5360     -0.4650      1.7700     78.3900
    171    -12.2690     -1.9090      0.0110      0.0100     78.3900
    172    -12.6920     -3.5110     -1.3160      1.7700     78.3900
    173    -11.6640     -3.7090     -1.6030      0.0100     78.3900
    174    -15.3530     -3.0480     -0.7320      1.7700     78.3900
    175    -16.5430     -2.7600     -0.5400      1.5900     78.3900
    176    -15.0250     -4.0730     -1.5510      1.6800     78.3900
    177    -13.7390     -4.2970     -1.8670      1.7700     78.3900
    178    -13.4580     -5.2590     -2.7440      1.6800     78.3900
    179    -14.2220     -5.7660     -3.1460      0.0100     78.3900
    180    -12.5270     -5.4580     -3.0460      0.0100     78.3900
    181    -15.4190     -1.5720      2.0620      1.7700     78.3900
    182    -15.0830     -2.5780      2.3870      0.0100     78.3900
    183    -16.8270     -1.5600      1.9350      1.5900     78.3900
    184    -17.0940     -0.6380      1.8010      0.0100     78.3900
    185    -14.9730     -0.5100      3.0570      1.7700     78.3900
    186    -14.9850     -0.9600      4.0790      0.0100     78.3900
    187    -15.7370      0.7110      2.9730      1.5900     78.3900
    188    -16.4280      1.3600      4.2190      2.1000     78.3900
    189    -16.5150      2.8190      3.9950      1.5900     78.3900
    190    -17.7090      0.6680      4.4720      1.5900     78.3900
    191    -15.4490      1.0800      5.4210      1.5900     78.3900
    192    -14.2120      1.8150      5.5600      1.7700     78.3900
    193    -14.2410      2.8150      5.0670      0.0100     78.3900
    194    -13.3840      1.2400      5.0910      0.0100     78.3900
    195    -13.8580      2.0310      7.0340      1.7700     78.3900
    196    -14.6630      2.5870      7.5640      0.0100     78.3900
    197    -13.6900      0.7490      7.6910      1.5900     78.3900
    198    -12.6130      0.8260      8.6160      1.7700     78.3900
    199    -13.0140      0.5150      9.6030      0.0100     78.3900
    200    -11.5160     -0.0660      8.2290      1.6800     78.3900
    201    -10.4080     -0.3980      8.9590      1.7700     78.3900
    202     -8.4820     -0.1550     11.8160      1.6800     78.3900
    203     -9.0100      0.4600     12.4000      0.0100     78.3900
    204     -7.6440     -0.5760     12.1740      0.0100     78.3900
    205    -10.1080      0.0400     10.1900      1.6800     78.3900
    206     -8.9760     -0.4960     10.6470      1.7700     78.3900
    207     -8.2330     -1.4040      9.9430      1.6800     78.3900
    208     -7.3930     -1.7700     10.3650      0.0100     78.3900
    209     -8.5190     -1.8700      8.6720      1.7700     78.3900
    210     -7.7970     -2.6860      8.0900      1.5900     78.3900
    211     -9.6950     -1.2720      8.1650      1.7700     78.3900
    212    -10.3210     -1.4570      6.9580      1.6800     78.3900
    213    -11.4070     -0.7440      7.0430      1.7700     78.3900
    214    -12.1930     -0.6930      6.2930      0.0100     78.3900
    215    -12.1750      2.2650      8.6790      1.7700     78.3900
    216    -11.0920      2.3760      8.8950      0.0100     78.3900
    217    -12.9290      2.9410      9.6670      1.5900     78.3900
    218    -12.7000      3.8760      9.6060      0.0100     78.3900
    219    -12.5160      2.7350      7.2690      1.7700     78.3900
    220    -11.8080      2.2840      6.5300      0.0100     78.3900
    221    -12.6700      4.1650      7.1280      1.5900     78.3900
    222    -11.4830      4.9990      6.5150      2.1000     78.3900
    223    -10.8710      4.2570      5.3900      1.5900     78.3900
    224    -11.9400      6.3750      6.2310      1.5900     78.3900
    225    -10.4380      5.0420      7.6910      1.5900     78.3900
    226    -10.7800      5.6770      8.9450      1.7700     78.3900
    227    -11.7050      5.2440      9.3840      0.0100     78.3900
    228    -10.9650      6.7670      8.7940      0.0100     78.3900
    229     -9.6510      5.5180      9.9700      1.7700     78.3900
    230     -9.8850      6.0930     10.8960      0.0100     78.3900
    231     -9.5290      4.1190     10.3540      1.5900     78.3900
    232     -8.1520      3.7970     10.5140      1.7700     78.3900
    233     -8.0520      3.3910     11.5480      0.0100     78.3900
    234     -7.6880      2.7670      9.5410      1.6800     78.3900
    235     -8.3910      2.5490      8.3780      1.7700     78.3900
    236     -9.2950      3.1420      8.2490      0.0100     78.3900
    237     -8.0050      1.6320      7.4840      1.7700     78.3900
    238     -8.5740      1.4340      6.5790      0.0100     78.3900
    239     -6.5240      2.0420      9.7810      1.7700     78.3900
    240     -5.8750      2.2640     10.8140      1.5900     78.3900
    241     -6.1210      1.1060      8.8930      1.6800     78.3900
    242     -6.8200      0.8960      7.7640      1.7700     78.3900
    243     -6.3970     -0.0320      6.9070      1.6800     78.3900
    244     -5.5670     -0.5560      7.1140      0.0100     78.3900
    245     -6.8860     -0.2300      6.0580      0.0100     78.3900
    246     -7.3610      5.0930     10.4130      1.7700     78.3900
    247     -6.3550      4.9370      9.9640      0.0100     78.3900
    248     -7.2250      5.6810     11.6980      1.5900     78.3900
    249     -6.8720      6.5850     11.6010      0.0100     78.3900
    250     -8.2510      5.9170      9.4900      1.7700     78.3900
    251     -8.1310      5.5810      8.4380      0.0100     78.3900
    252     -8.0610      7.3390      9.6000      1.5900     78.3900
    253     -7.1840      7.5770      9.2580      0.0100     78.3900

 CREATION OF A NEW CAVITY WITH THE ORIGINAL SPHERE
 SIZES FOR THE COMPUTATION OF THE CAVITATION ENERGY.

     INPUT FOR CAVITY DEFINITION 
     ---------------------------
   ATOM               COORDINATES                RADIUS       EPS
      1      2.3960     -6.2790      9.4070      0.0100     78.3900
      2      1.8820     -5.6420      9.9390      1.5900     78.3900
      3      2.7560     -5.1500     10.9660      1.7700     78.3900
      4      3.6860     -4.7570     10.4990      0.0100     78.3900
      5      3.0350     -5.9910     11.6390      0.0100     78.3900
      6      2.1200     -4.0390     11.8040      1.7700     78.3900
      7      2.7960     -3.7250     12.6300      0.0100     78.3900
      8      1.8760     -2.8660     10.9680      1.5900     78.3900
      9      0.6380     -2.2790     11.3520      1.7700     78.3900
     10      0.8500     -1.2130     11.5930      0.0100     78.3900
     11     -0.3490     -2.3300     10.2650      1.6800     78.3900
     12     -1.4730     -1.5540     10.1690      1.7700     78.3900
     13     -3.5520      0.8920     11.4630      1.6800     78.3900
     14     -3.1070      1.1280     12.3240      0.0100     78.3900
     15     -4.4040      1.3580     11.2100      0.0100     78.3900
     16     -1.8730     -0.6330     11.0620      1.6800     78.3900
     17     -2.9980     -0.0250     10.6930      1.7700     78.3900
     18     -3.6430     -0.2950      9.5140      1.6800     78.3900
     19     -4.4880      0.2160      9.3080      0.0100     78.3900
     20     -3.2390     -1.2190      8.5590      1.7700     78.3900
     21     -3.8750     -1.3890      7.5120      1.5900     78.3900
     22     -2.0690     -1.9110      8.9750      1.7700     78.3900
     23     -1.3540     -2.9250      8.3500      1.6800     78.3900
     24     -0.3350     -3.1390      9.1500      1.7700     78.3900
     25      0.4680     -3.8620      8.9790      0.0100     78.3900
     26      0.1580     -2.9930     12.5930      1.7700     78.3900
     27     -0.9490     -3.0260     12.6670      0.0100     78.3900
     28      0.6960     -2.3620     13.7370      1.5900     78.3900
     29      0.4380     -2.9050     14.4910      0.0100     78.3900
     30      0.7470     -4.3850     12.4000      1.7700     78.3900
     31      0.1810     -4.9400     11.6160      0.0100     78.3900
     32      0.9240     -5.1530     13.6100      1.5900     78.3900
     33     -0.2420     -6.0790     14.1290      2.1000     78.3900
     34     -0.6490     -6.9860     13.0350      1.5900     78.3900
     35      0.2310     -6.7250     15.3720      1.5900     78.3900
     36     -1.4100     -5.0710     14.4660      1.5900     78.3900
     37     -1.3210     -4.2340     15.6450      1.7700     78.3900
     38     -0.4040     -3.6060     15.6320      0.0100     78.3900
     39     -1.2720     -4.8570     16.5660      0.0100     78.3900
     40     -2.5350     -3.3040     15.7690      1.7700     78.3900
     41     -2.4340     -2.6430     16.6540      0.0100     78.3900
     42     -2.6330     -2.4380     14.6030      1.5900     78.3900
     43     -4.0050     -2.2330     14.2950      1.7700     78.3900
     44     -4.1570     -1.1340     14.3530      0.0100     78.3900
     45     -4.3700     -2.6810     12.9240      1.6800     78.3900
     46     -3.6040     -3.6230     12.2790      1.7700     78.3900
     47     -2.7550     -4.0130     12.8440      0.0100     78.3900
     48     -3.8860     -4.0120     11.0290      1.7700     78.3900
     49     -3.2770     -4.7380     10.4930      0.0100     78.3900
     50     -5.4920     -2.1480     12.2940      1.7700     78.3900
     51     -6.1850     -1.3100     12.8980      1.5900     78.3900
     52     -5.7890     -2.5260     11.0310      1.6800     78.3900
     53     -5.0230     -3.4290     10.3960      1.7700     78.3900
     54     -5.3360     -3.7720      9.1500      1.6800     78.3900
     55     -6.1850     -3.4150      8.7510      0.0100     78.3900
     56     -4.8040     -4.4410      8.6260      0.0100     78.3900
     57     -4.8320     -2.8960     15.3830      1.7700     78.3900
     58     -5.7880     -3.3090     15.0040      0.0100     78.3900
     59     -5.0840     -1.9730     16.4290      1.5900     78.3900
     60     -5.4700     -2.4720     17.1670      0.0100     78.3900
     61     -3.8980     -4.0080     15.8430      1.7700     78.3900
     62     -3.8710     -4.8280     15.0900      0.0100     78.3900
     63     -4.1410     -4.4790     17.1870      1.5900     78.3900
     64     -5.0690     -5.7250     17.4160      2.1000     78.3900
     65     -4.5320     -6.8500     16.6180      1.5900     78.3900
     66     -5.2140     -5.9360     18.8720      1.5900     78.3900
     67     -6.4580     -5.2780     16.8340      1.5900     78.3900
     68     -7.3890     -6.2660     16.3270      1.7700     78.3900
     69     -8.1040     -6.5560     17.1300      0.0100     78.3900
     70     -6.8820     -7.2010     15.9910      0.0100     78.3900
     71     -8.1900     -5.7410     15.1280      1.7700     78.3900
     72     -8.9660     -5.0240     15.4660      0.0100     78.3900
     73     -7.3310     -5.0100     14.2050      1.5900     78.3900
     74     -7.6140     -5.3920     12.8730      1.7700     78.3900
     75     -7.7780     -4.4450     12.3060      0.0100     78.3900
     76     -6.4890     -6.1480     12.2580      1.6800     78.3900
     77     -5.3980     -6.5530     13.0030      1.7700     78.3900
     78     -5.4350     -6.3260     14.0730      0.0100     78.3900
     79     -6.5270     -6.3550     10.8970      1.7700     78.3900
     80     -7.4440     -5.9570     10.1920      1.5900     78.3900
     81     -5.4490     -7.0250     10.3810      1.6800     78.3900
     82     -5.4820     -7.2000      9.3900      0.0100     78.3900
     83     -4.3270     -7.4500     11.0550      1.7700     78.3900
     84     -3.4200     -8.0060     10.4410      1.5900     78.3900
     85     -4.3400     -7.1710     12.4610      1.7700     78.3900
     86     -3.4810     -7.4560     13.0630      0.0100     78.3900
     87     -8.9100     -6.1780     12.9140      1.7700     78.3900
     88     -9.0210     -6.9100     12.0880      0.0100     78.3900
     89     -9.9850     -5.2720     12.9180      1.5900     78.3900
     90    -10.0830     -4.9760     13.8240      0.0100     78.3900
     91     -8.8250     -6.8470     14.2710      1.7700     78.3900
     92     -8.0810     -7.6810     14.2390      0.0100     78.3900
     93    -10.1150     -7.2180     14.8220      1.5900     78.3900
     94    -10.5150     -8.7360     14.8380      2.1000     78.3900
     95     -9.6260     -9.5090     13.9390      1.5900     78.3900
     96    -10.5830     -9.1720     16.2460      1.5900     78.3900
     97    -11.9670     -8.7850     14.2460      1.5900     78.3900
     98    -12.2270     -8.6830     12.8260      1.7700     78.3900
     99    -11.7460     -9.5190     12.2650      0.0100     78.3900
    100    -11.8030     -7.7270     12.4370      0.0100     78.3900
    101    -13.7410     -8.6990     12.4980      1.7700     78.3900
    102    -14.1220     -9.7360     12.4000      0.0100     78.3900
    103    -14.5040     -8.0890     13.5850      1.5900     78.3900
    104    -15.4910     -7.2140     13.0760      1.7700     78.3900
    105    -16.4440     -7.5370     13.5570      0.0100     78.3900
    106    -15.2080     -5.7900     13.4300      1.6800     78.3900
    107    -14.0670     -5.4300     14.1260      1.7700     78.3900
    108    -13.3750     -6.2420     14.3660      0.0100     78.3900
    109    -16.1650     -4.8480     13.1170      1.7700     78.3900
    110    -17.2190     -5.1320     12.5610      1.5900     78.3900
    111    -15.8640     -3.5670     13.4970      1.6800     78.3900
    112    -16.5720     -2.8760     13.3090      0.0100     78.3900
    113    -14.7810     -3.1460     14.2350      1.7700     78.3900
    114    -14.7020     -1.9720     14.5930      1.5900     78.3900
    115    -13.8290     -4.1730     14.5320      1.7700     78.3900
    116    -12.9510     -3.9160     15.1210      0.0100     78.3900
    117    -15.5720     -7.4580     11.5770      1.7700     78.3900
    118    -15.8420     -6.5470     11.0010      0.0100     78.3900
    119    -16.5070     -8.4900     11.3040      1.5900     78.3900
    120    -16.4060     -8.7380     10.3710      0.0100     78.3900
    121    -14.1460     -7.8800     11.2550      1.7700     78.3900
    122    -13.4870     -6.9780     11.2450      0.0100     78.3900
    123    -14.0350     -8.6850     10.0630      1.5900     78.3900
    124    -13.4020     -8.1070      8.7460      2.1000     78.3900
    125    -12.1500     -7.3980      9.0760      1.5900     78.3900
    126    -13.3250     -9.1960      7.7500      1.5900     78.3900
    127    -14.4550     -7.0700      8.2160      1.5900     78.3900
    128    -14.1000     -6.1450      7.1470      1.7700     78.3900
    129    -14.4510     -6.5400      6.1690      0.0100     78.3900
    130    -12.9910     -6.0130      7.0540      0.0100     78.3900
    131    -14.7100     -4.7340      7.3250      1.7700     78.3900
    132    -15.6770     -4.6460      6.7860      0.0100     78.3900
    133    -15.0020     -4.4950      8.7400      1.5900     78.3900
    134    -14.6150     -3.1960      9.1040      1.7700     78.3900
    135    -15.4900     -2.7260      9.6120      0.0100     78.3900
    136    -13.4830     -3.2260     10.0260      1.6800     78.3900
    137    -12.0160     -2.7580     11.5920      1.7700     78.3900
    138    -11.6250     -3.9490     11.0170      1.6800     78.3900
    139    -12.5240     -4.2030     10.1160      1.7700     78.3900
    140    -12.5530     -5.0990      9.4910      0.0100     78.3900
    141    -12.0980     -0.8280     12.9510      1.6800     78.3900
    142    -13.1680     -0.4730     12.2330      1.7700     78.3900
    143    -13.6190      0.4860     12.5130      0.0100     78.3900
    144    -13.8190     -1.1500     11.2740      1.6800     78.3900
    145    -13.1620     -2.2880     10.9810      1.7700     78.3900
    146    -11.4820     -1.9970     12.6560      1.7700     78.3900
    147    -10.4150     -2.3940     13.3770      1.6800     78.3900
    148     -9.9060     -3.2070     13.0840      0.0100     78.3900
    149    -10.0860     -1.8330     14.1410      0.0100     78.3900
    150    -14.3000     -2.4510      7.8320      1.7700     78.3900
    151    -13.5210     -1.6880      7.9930      0.0100     78.3900
    152    -15.4730     -1.8430      7.3270      1.5900     78.3900
    153    -15.2170     -1.2760      6.5870      0.0100     78.3900
    154    -13.7850     -3.5610      6.9200      1.7700     78.3900
    155    -12.7480     -3.8260      7.2350      0.0100     78.3900
    156    -13.8940     -3.2470      5.5040      1.5900     78.3900
    157    -12.7290     -3.6170      4.5010      2.1000     78.3900
    158    -11.4310     -3.3840      5.1440      1.5900     78.3900
    159    -12.9590     -4.9760      3.9730      1.5900     78.3900
    160    -12.8880     -2.5900      3.3200      1.5900     78.3900
    161    -12.5170     -1.1990      3.3970      1.7700     78.3900
    162    -11.5060     -1.0560      2.9510      0.0100     78.3900
    163    -12.4610     -0.8490      4.4470      0.0100     78.3900
    164    -13.5110     -0.2660      2.6760      1.7700     78.3900
    165    -13.2410      0.7930      2.8860      0.0100     78.3900
    166    -13.4860     -0.4520      1.2360      1.5900     78.3900
    167    -14.6630     -1.1490      0.8020      1.7700     78.3900
    168    -15.2730     -0.3940      0.2590      0.0100     78.3900
    169    -14.3450     -2.2960     -0.1150      1.6800     78.3900
    170    -13.0270     -2.5360     -0.4650      1.7700     78.3900
    171    -12.2690     -1.9090      0.0110      0.0100     78.3900
    172    -12.6920     -3.5110     -1.3160      1.7700     78.3900
    173    -11.6640     -3.7090     -1.6030      0.0100     78.3900
    174    -15.3530     -3.0480     -0.7320      1.7700     78.3900
    175    -16.5430     -2.7600     -0.5400      1.5900     78.3900
    176    -15.0250     -4.0730     -1.5510      1.6800     78.3900
    177    -13.7390     -4.2970     -1.8670      1.7700     78.3900
    178    -13.4580     -5.2590     -2.7440      1.6800     78.3900
    179    -14.2220     -5.7660     -3.1460      0.0100     78.3900
    180    -12.5270     -5.4580     -3.0460      0.0100     78.3900
    181    -15.4190     -1.5720      2.0620      1.7700     78.3900
    182    -15.0830     -2.5780      2.3870      0.0100     78.3900
    183    -16.8270     -1.5600      1.9350      1.5900     78.3900
    184    -17.0940     -0.6380      1.8010      0.0100     78.3900
    185    -14.9730     -0.5100      3.0570      1.7700     78.3900
    186    -14.9850     -0.9600      4.0790      0.0100     78.3900
    187    -15.7370      0.7110      2.9730      1.5900     78.3900
    188    -16.4280      1.3600      4.2190      2.1000     78.3900
    189    -16.5150      2.8190      3.9950      1.5900     78.3900
    190    -17.7090      0.6680      4.4720      1.5900     78.3900
    191    -15.4490      1.0800      5.4210      1.5900     78.3900
    192    -14.2120      1.8150      5.5600      1.7700     78.3900
    193    -14.2410      2.8150      5.0670      0.0100     78.3900
    194    -13.3840      1.2400      5.0910      0.0100     78.3900
    195    -13.8580      2.0310      7.0340      1.7700     78.3900
    196    -14.6630      2.5870      7.5640      0.0100     78.3900
    197    -13.6900      0.7490      7.6910      1.5900     78.3900
    198    -12.6130      0.8260      8.6160      1.7700     78.3900
    199    -13.0140      0.5150      9.6030      0.0100     78.3900
    200    -11.5160     -0.0660      8.2290      1.6800     78.3900
    201    -10.4080     -0.3980      8.9590      1.7700     78.3900
    202     -8.4820     -0.1550     11.8160      1.6800     78.3900
    203     -9.0100      0.4600     12.4000      0.0100     78.3900
    204     -7.6440     -0.5760     12.1740      0.0100     78.3900
    205    -10.1080      0.0400     10.1900      1.6800     78.3900
    206     -8.9760     -0.4960     10.6470      1.7700     78.3900
    207     -8.2330     -1.4040      9.9430      1.6800     78.3900
    208     -7.3930     -1.7700     10.3650      0.0100     78.3900
    209     -8.5190     -1.8700      8.6720      1.7700     78.3900
    210     -7.7970     -2.6860      8.0900      1.5900     78.3900
    211     -9.6950     -1.2720      8.1650      1.7700     78.3900
    212    -10.3210     -1.4570      6.9580      1.6800     78.3900
    213    -11.4070     -0.7440      7.0430      1.7700     78.3900
    214    -12.1930     -0.6930      6.2930      0.0100     78.3900
    215    -12.1750      2.2650      8.6790      1.7700     78.3900
    216    -11.0920      2.3760      8.8950      0.0100     78.3900
    217    -12.9290      2.9410      9.6670      1.5900     78.3900
    218    -12.7000      3.8760      9.6060      0.0100     78.3900
[...]
   6  5  0    -1331.5632875609     0.0000268439   0.000084251   0.000025534      481250870   12822911
   7  6  0    -1331.5632820497     0.0000055112   0.000027274   0.000013120      448044143   13123737
   8  7  0    -1331.5632828288    -0.0000007791   0.000008734   0.000004801      421451978   13359825
   9  8  0    -1331.5632838848    -0.0000010560   0.000003130   0.000001259      392672153   13615651
  10  9  0    -1331.5632839466    -0.0000000618   0.000000873   0.000000595      365471497   13858342
  11 10  0    -1331.5632838627     0.0000000839   0.000000395   0.000000264      325194312   14196639
  12 11  0    -1331.5632838442     0.0000000185   0.000000142   0.000000083      307840465   14348119
  13 12  0    -1331.5632838460    -0.0000000019   0.000000077   0.000000033      266584439   14715416

          -----------------
          DENSITY CONVERGED
          -----------------
     TIME TO FORM FOCK OPERATORS=      18.8 SECONDS (       1.4 SEC/ITER)
     FOCK TIME ON FIRST ITERATION=       1.6, LAST ITERATION=       1.0
     TIME TO SOLVE SCF EQUATIONS=       0.4 SECONDS (       0.0 SEC/ITER)

 FINAL RHF ENERGY IS    -1331.5632838460 AFTER  13 ITERATIONS
 ...... END OF RHF CALCULATION ......
 CPU     0: STEP CPU TIME=    30.50 TOTAL CPU TIME=        996.3 (     16.6 MIN)
 TOTAL WALL CLOCK TIME=       1984.9 SECONDS, CPU UTILIZATION IS    50.19%
 DONE PCM POT.
 CPU     0: STEP CPU TIME=     0.27 TOTAL CPU TIME=        996.6 (     16.6 MIN)
 TOTAL WALL CLOCK TIME=       1985.7 SECONDS, CPU UTILIZATION IS    50.19%

 Iter=  3 iFrag=      6 EFMO= -1360.637084577, DD= 0.027987509, DE= 0.011894619


 RHF      monomer      2 corr= NONE       , L1=   341, L0=   320 ID=      5


 AO spaces for     2     0     0 n-mer: L1=   341, L0=   320

 DIRECT SCF CALCULATION, SCHWRZ=T   FDIFF=T,  DIRTHR=  0.00E+00 NITDIR=10

                                                                                   NONZERO     BLOCKS
 ITER EX DEM     TOTAL ENERGY        E CHANGE  DENSITY CHANGE     ORB. GRAD      INTEGRALS    SKIPPED
   1  0  0    -1332.7114752716 -1332.7114752716   0.035497608   0.000000000      652152491   10655979
          ---------------START SECOND ORDER SCF---------------
   2  1  0    -1332.7131345075    -0.0016592360   0.008179736   0.002499712      594311795   11701475
   3  2  0    -1332.7134224071    -0.0002878996   0.001725451   0.000527370      575613539   11930822
   4  3  0    -1332.7133973418     0.0000250653   0.000647422   0.000094395      541693823   12260129
   5  4  0    -1332.7133807095     0.0000166323   0.000152478   0.000064285      506202448   12578896
   6  5  0    -1332.7133817790    -0.0000010695   0.000049010   0.000009659      478523012   12837707
   7  6  0    -1332.7133814895     0.0000002895   0.000014473   0.000007328      444374193   13149138
   8  7  0    -1332.7133811780     0.0000003115   0.000007729   0.000002204      411074875   13447168
   9  8  0    -1332.7133813212    -0.0000001433   0.000003547   0.000000898      380986368   13702581
  10  9  0    -1332.7133813763    -0.0000000550   0.000000792   0.000000228      358010257   13910447
  11 10  0    -1332.7133813687     0.0000000076   0.000000491   0.000000078      317178637   14248098
  12 11  0    -1332.7133813677     0.0000000010   0.000000127   0.000000026      292787488   14460674
  13 12  0    -1332.7133813676     0.0000000001   0.000000048   0.000000011      253571193   14803399

          -----------------
          DENSITY CONVERGED
          -----------------
     TIME TO FORM FOCK OPERATORS=      20.0 SECONDS (       1.5 SEC/ITER)
     FOCK TIME ON FIRST ITERATION=       2.7, LAST ITERATION=       0.9
     TIME TO SOLVE SCF EQUATIONS=       0.4 SECONDS (       0.0 SEC/ITER)

 FINAL RHF ENERGY IS    -1332.7133813676 AFTER  13 ITERATIONS
 ...... END OF RHF CALCULATION ......
 CPU     0: STEP CPU TIME=    44.57 TOTAL CPU TIME=       1041.2 (     17.4 MIN)
 TOTAL WALL CLOCK TIME=       2071.0 SECONDS, CPU UTILIZATION IS    50.27%
 DONE PCM POT.
 CPU     0: STEP CPU TIME=     0.27 TOTAL CPU TIME=       1041.4 (     17.4 MIN)
 TOTAL WALL CLOCK TIME=       2071.8 SECONDS, CPU UTILIZATION IS    50.27%

 Iter=  3 iFrag=      2 EFMO= -1360.643676772, DD= 0.030308022, DE= 0.027479907


 RHF      monomer      3 corr= NONE       , L1=   339, L0=   318 ID=      6


 AO spaces for     3     0     0 n-mer: L1=   339, L0=   318

 DIRECT SCF CALCULATION, SCHWRZ=T   FDIFF=T,  DIRTHR=  0.00E+00 NITDIR=10

                                                                                   NONZERO     BLOCKS
 ITER EX DEM     TOTAL ENERGY        E CHANGE  DENSITY CHANGE     ORB. GRAD      INTEGRALS    SKIPPED
   1  0  0    -1345.3780837068 -1345.3780837068   0.025941821   0.000000000      647933675    9566818
          ---------------START SECOND ORDER SCF---------------
   2  1  0    -1345.3790934142    -0.0010097074   0.005820522   0.001414883      584858585   10606448
   3  2  0    -1345.3791342504    -0.0000408361   0.001332273   0.000432397      562179020   10862000
   4  3  0    -1345.3791288900     0.0000053603   0.000433076   0.000082364      527320705   11189592
   5  4  0    -1345.3791095592     0.0000193309   0.000118565   0.000042517      498503010   11446634
   6  5  0    -1345.3791083818     0.0000011774   0.000055671   0.000007453      470528313   11705911
   7  6  0    -1345.3791071004     0.0000012814   0.000011876   0.000003445      436152864   12024920
   8  7  0    -1345.3791074407    -0.0000003403   0.000003026   0.000000850      402842723   12323207
   9  8  0    -1345.3791074692    -0.0000000285   0.000001027   0.000000356      372689168   12591371
  10  9  0    -1345.3791075117    -0.0000000425   0.000000410   0.000000183      347418354   12819348
  11 10  0    -1345.3791074898     0.0000000220   0.000000169   0.000000062      304453311   13170674
  12 11  0    -1345.3791074853     0.0000000044   0.000000049   0.000000034      284959386   13336092

          -----------------
          DENSITY CONVERGED
          -----------------
     TIME TO FORM FOCK OPERATORS=      18.7 SECONDS (       1.6 SEC/ITER)
     FOCK TIME ON FIRST ITERATION=       2.4, LAST ITERATION=       0.9
     TIME TO SOLVE SCF EQUATIONS=       0.4 SECONDS (       0.0 SEC/ITER)

 FINAL RHF ENERGY IS    -1345.3791074853 AFTER  12 ITERATIONS
 ...... END OF RHF CALCULATION ......
 CPU     0: STEP CPU TIME=    44.63 TOTAL CPU TIME=       1086.1 (     18.1 MIN)
 TOTAL WALL CLOCK TIME=       2155.9 SECONDS, CPU UTILIZATION IS    50.38%
 DONE PCM POT.
 CPU     0: STEP CPU TIME=     0.28 TOTAL CPU TIME=       1086.3 (     18.1 MIN)
 TOTAL WALL CLOCK TIME=       2156.7 SECONDS, CPU UTILIZATION IS    50.37%

 Iter=  3 iFrag=      3 EFMO= -1380.517109597, DD= 0.021596474, DE= 0.006698271


 RHF      monomer      4 corr= NONE       , L1=   339, L0=   318 ID=      7


 AO spaces for     4     0     0 n-mer: L1=   339, L0=   318

 DIRECT SCF CALCULATION, SCHWRZ=T   FDIFF=T,  DIRTHR=  0.00E+00 NITDIR=10

                                                                                   NONZERO     BLOCKS
 ITER EX DEM     TOTAL ENERGY        E CHANGE  DENSITY CHANGE     ORB. GRAD      INTEGRALS    SKIPPED
   1  0  0    -1346.6046602978 -1346.6046602978   0.031416490   0.000000000      632659256    9685381
          ---------------START SECOND ORDER SCF---------------
   2  1  0    -1346.6055042261    -0.0008439283   0.007586964   0.001617288      580016155   10671991
   3  2  0    -1346.6056747203    -0.0001704942   0.001443441   0.000543669      555266479   10946558
   4  3  0    -1346.6056252053     0.0000495150   0.000495413   0.000074272      521581226   11272839
   5  4  0    -1346.6055970492     0.0000281561   0.000144509   0.000043661      490197841   11546250
   6  5  0    -1346.6055932167     0.0000038325   0.000057004   0.000007114      465418589   11774836
   7  6  0    -1346.6055915171     0.0000016996   0.000013121   0.000008333      430929190   12090645
   8  7  0    -1346.6055915130     0.0000000040   0.000004720   0.000003197      398114196   12386948
   9  8  0    -1346.6055916332    -0.0000001202   0.000002272   0.000001222      377303661   12570767
  10  9  0    -1346.6055915963     0.0000000369   0.000000751   0.000000298      351564180   12802308
  11 10  0    -1346.6055915750     0.0000000213   0.000000234   0.000000104      318835893   13073004
  12 11  0    -1346.6055915809    -0.0000000059   0.000000134   0.000000044      296923625   13257236
  13 12  0    -1346.6055915836    -0.0000000027   0.000000038   0.000000011      254228490   13628657

          -----------------
          DENSITY CONVERGED
          -----------------
     TIME TO FORM FOCK OPERATORS=      18.3 SECONDS (       1.4 SEC/ITER)
     FOCK TIME ON FIRST ITERATION=       2.3, LAST ITERATION=       0.9
     TIME TO SOLVE SCF EQUATIONS=       0.3 SECONDS (       0.0 SEC/ITER)

 FINAL RHF ENERGY IS    -1346.6055915836 AFTER  13 ITERATIONS
 ...... END OF RHF CALCULATION ......
 CPU     0: STEP CPU TIME=    27.05 TOTAL CPU TIME=       1113.4 (     18.6 MIN)
 TOTAL WALL CLOCK TIME=       2215.5 SECONDS, CPU UTILIZATION IS    50.26%
 DONE PCM POT.
 CPU     0: STEP CPU TIME=     0.31 TOTAL CPU TIME=       1113.7 (     18.6 MIN)
 TOTAL WALL CLOCK TIME=       2216.3 SECONDS, CPU UTILIZATION IS    50.25%

 Iter=  3 iFrag=      4 EFMO= -1380.558511480, DD= 0.025484112, DE= 0.004782859


 RHF      monomer      8 corr= NONE       , L1=   264, L0=   248 ID=      8


 AO spaces for     8     0     0 n-mer: L1=   264, L0=   248

 DIRECT SCF CALCULATION, SCHWRZ=T   FDIFF=T,  DIRTHR=  0.00E+00 NITDIR=10

                                                                                   NONZERO     BLOCKS
 ITER EX DEM     TOTAL ENERGY        E CHANGE  DENSITY CHANGE     ORB. GRAD      INTEGRALS    SKIPPED
   1  0  0     -769.6832487535  -769.6832487535   0.034503763   0.000000000      331161779    3970401
          ---------------START SECOND ORDER SCF---------------
   2  1  0     -769.6841567242    -0.0009079707   0.008622460   0.001719735      308437394    4490400
   3  2  0     -769.6845556832    -0.0003989590   0.001712278   0.000467166      297957305    4644825
   4  3  0     -769.6844723510     0.0000833322   0.000337028   0.000087978      283449947    4832844
   5  4  0     -769.6844433281     0.0000290229   0.000138800   0.000044542      268729754    5000193
   6  5  0     -769.6844370117     0.0000063164   0.000047624   0.000020743      258307753    5127235
   7  6  0     -769.6844362931     0.0000007186   0.000014566   0.000006558      243228369    5316913
   8  7  0     -769.6844363657    -0.0000000726   0.000006558   0.000004401      228363933    5486605
   9  8  0     -769.6844364326    -0.0000000669   0.000002257   0.000000823      218220629    5599756
  10  9  0     -769.6844364710    -0.0000000383   0.000001105   0.000000560      203607463    5764022
  11 10  0     -769.6844364527     0.0000000183   0.000000406   0.000000119      186158257    5942355
  12 11  0     -769.6844364534    -0.0000000007   0.000000093   0.000000060      172435504    6089536
  13 12  0     -769.6844364535    -0.0000000001   0.000000058   0.000000022      151230804    6326253

          -----------------
          DENSITY CONVERGED
          -----------------
     TIME TO FORM FOCK OPERATORS=      10.6 SECONDS (       0.8 SEC/ITER)
     FOCK TIME ON FIRST ITERATION=       1.0, LAST ITERATION=       0.5
     TIME TO SOLVE SCF EQUATIONS=       0.2 SECONDS (       0.0 SEC/ITER)

 FINAL RHF ENERGY IS     -769.6844364535 AFTER  13 ITERATIONS
 ...... END OF RHF CALCULATION ......
 CPU     0: STEP CPU TIME=    21.56 TOTAL CPU TIME=       1135.3 (     18.9 MIN)
 TOTAL WALL CLOCK TIME=       2261.9 SECONDS, CPU UTILIZATION IS    50.19%
 DONE PCM POT.
 CPU     0: STEP CPU TIME=     0.16 TOTAL CPU TIME=       1135.4 (     18.9 MIN)
 TOTAL WALL CLOCK TIME=       2262.4 SECONDS, CPU UTILIZATION IS    50.19%

 Iter=  3 iFrag=      8 EFMO=  -795.790875460, DD= 0.027848884, DE= 0.041790115

 CPU     0: STEP CPU TIME=     0.00 TOTAL CPU TIME=       1135.4 (     18.9 MIN)
 TOTAL WALL CLOCK TIME=       2262.4 SECONDS, CPU UTILIZATION IS    50.19%

  Monomer SCF synchronisation on iteration   3.1 took     0.0 s.
 CPU     0: STEP CPU TIME=     0.00 TOTAL CPU TIME=       1135.4 (     18.9 MIN)
 TOTAL WALL CLOCK TIME=       2262.4 SECONDS, CPU UTILIZATION IS    50.19%
 dmexch needs              2962926  words of memory.
 CPU     0: STEP CPU TIME=     0.01 TOTAL CPU TIME=       1135.4 (     18.9 MIN)
 TOTAL WALL CLOCK TIME=       2262.4 SECONDS, CPU UTILIZATION IS    50.19%

 Data exchange of    981406 words took     0.0 s.

 Calculating apparent surface charges...
     Using       42496 words of memory.
 ASC ITERATION=   1 CONVERGED TO  0.108438E-02
 ASC ITERATION=   2 CONVERGED TO  0.114317E-01
 ASC ITERATION=   3 CONVERGED TO  0.131025E-01
 ASC ITERATION=   4 CONVERGED TO  0.213586E-02
 ASC ITERATION=   5 CONVERGED TO  0.885780E-03
 ASC ITERATION=   6 CONVERGED TO  0.652898E-03
 ASC ITERATION=   7 CONVERGED TO  0.257527E-03
 ASC ITERATION=   8 CONVERGED TO  0.178092E-03
 ASC ITERATION=   9 CONVERGED TO  0.877401E-04
 ASC ITERATION=  10 CONVERGED TO  0.435157E-04
 ASC ITERATION=  11 CONVERGED TO  0.246249E-04
 ASC ITERATION=  12 CONVERGED TO  0.122635E-04
 ASC ITERATION=  13 CONVERGED TO  0.540586E-05
 ASC ITERATION=  14 CONVERGED TO  0.302072E-05
 ASC ITERATION=  15 CONVERGED TO  0.178253E-05
 ASC ITERATION=  16 CONVERGED TO  0.982941E-06
 ASC ITERATION=  17 CONVERGED TO  0.530262E-06
 ASC ITERATION=  18 CONVERGED TO  0.322632E-06
 ASC ITERATION=  19 CONVERGED TO  0.208378E-06
 ASC ITERATION=  20 CONVERGED TO  0.991788E-07
 ASC ITERATION=  21 CONVERGED TO  0.588959E-07
 ASC ITERATION=  22 CONVERGED TO  0.260095E-07
 ASC ITERATION=  23 CONVERGED TO  0.135064E-07
 ASC ITERATION=  24 CONVERGED TO  0.685447E-08
 ASC ITERATION=  25 CONVERGED TO  0.425140E-08
 ASC ITERATION=  26 CONVERGED TO  0.267912E-08
 ASC ITERATION=  27 CONVERGED TO  0.128787E-08
 ASC ITERATION=  28 CONVERGED TO  0.561425E-09
 ASC ITERATION=  29 CONVERGED TO  0.275996E-09
 ASC ITERATION=  30 CONVERGED TO  0.143006E-09
 ASC ITERATION=  31 CONVERGED TO  0.740743E-10

 THE ASC EQUATIONS FOR PHASE=1 CONVERGED IN  31 ITERATIONS.

 PCM ASC=      6.8606604038 normalised to=      6.9107028958
 Nuclear factor=   1.0032235638, electronic factor=   1.0032456318

 CPU     0: STEP CPU TIME=     0.13 TOTAL CPU TIME=       1135.6 (     18.9 MIN)
 TOTAL WALL CLOCK TIME=       2262.7 SECONDS, CPU UTILIZATION IS    50.19%


 ------------------------------------------------------------------------------
 FMO iter  3.1,      0 fragment(s) converged, maxD 0.030308022 maxE 0.041790115
 ------------------------------------------------------------------------------

 RHF      monomer      1 corr= NONE       , L1=   403, L0=   378 ID=      1


 AO spaces for     1     0     0 n-mer: L1=   403, L0=   378

 DIRECT SCF CALCULATION, SCHWRZ=T   FDIFF=T,  DIRTHR=  0.00E+00 NITDIR=10

                                                                                   NONZERO     BLOCKS
 ITER EX DEM     TOTAL ENERGY        E CHANGE  DENSITY CHANGE     ORB. GRAD      INTEGRALS    SKIPPED
   1  0  0    -1554.6897795791 -1554.6897795791   0.006771395   0.000000000     1055745108   21833051
          ---------------START SECOND ORDER SCF---------------
   2  1  0    -1554.6895508887     0.0002286904   0.001257824   0.000321511      887912512   24130320
   3  2  0    -1554.6896111480    -0.0000602593   0.000796806   0.000194489      851140166   24460482
   4  3  0    -1554.6895540631     0.0000570849   0.000140237   0.000059242      797867584   24918193
   5  4  0    -1554.6895580623    -0.0000039992   0.000047713   0.000025638      748109625   25359089
   6  5  0    -1554.6895611417    -0.0000030795   0.000016649   0.000005376      693795732   25809076
   7  6  0    -1554.6895610263     0.0000001155   0.000005740   0.000002797      635226517   26297374
   8  7  0    -1554.6895607203     0.0000003059   0.000001932   0.000001007      591320914   26670652
   9  8  0    -1554.6895607433    -0.0000000230   0.000001080   0.000000603      542379791   27077376
  10  9  0    -1554.6895607560    -0.0000000127   0.000000300   0.000000191      498243576   27420530
  11 10  0    -1554.6895607397     0.0000000163   0.000000156   0.000000048      449569756   27812738
  12 11  0    -1554.6895607298     0.0000000099   0.000000063   0.000000016      401949453   28176217

          -----------------
          DENSITY CONVERGED
          -----------------
     TIME TO FORM FOCK OPERATORS=      26.9 SECONDS (       2.2 SEC/ITER)
     FOCK TIME ON FIRST ITERATION=       4.1, LAST ITERATION=       1.3
     TIME TO SOLVE SCF EQUATIONS=       0.5 SECONDS (       0.0 SEC/ITER)

 FINAL RHF ENERGY IS    -1554.6895607298 AFTER  12 ITERATIONS
 ...... END OF RHF CALCULATION ......
 CPU     0: STEP CPU TIME=    48.25 TOTAL CPU TIME=       1183.8 (     19.7 MIN)
 TOTAL WALL CLOCK TIME=       2360.6 SECONDS, CPU UTILIZATION IS    50.15%
 DONE PCM POT.
 CPU     0: STEP CPU TIME=     0.37 TOTAL CPU TIME=       1184.2 (     19.7 MIN)
 TOTAL WALL CLOCK TIME=       2361.6 SECONDS, CPU UTILIZATION IS    50.14%

 Iter=  4 iFrag=      1 EFMO= -1597.645690579, DD= 0.008187139, DE=-0.024959938


 RHF      monomer      7 corr= NONE       , L1=   386, L0=   362 ID=      2


 AO spaces for     7     0     0 n-mer: L1=   386, L0=   362

 DIRECT SCF CALCULATION, SCHWRZ=T   FDIFF=T,  DIRTHR=  0.00E+00 NITDIR=10

                                                                                   NONZERO     BLOCKS
 ITER EX DEM     TOTAL ENERGY        E CHANGE  DENSITY CHANGE     ORB. GRAD      INTEGRALS    SKIPPED
   1  0  0    -1468.8150360511 -1468.8150360511   0.007492704   0.000000000      935321014   17447932
          ---------------START SECOND ORDER SCF---------------
   2  1  0    -1468.8147158883     0.0003201628   0.001136208   0.000405276      802474730   19356239
   3  2  0    -1468.8147650204    -0.0000491321   0.000738733   0.000206626      768561310   19655827
   4  3  0    -1468.8146990343     0.0000659862   0.000133598   0.000057934      723969344   20049940
   5  4  0    -1468.8147023460    -0.0000033117   0.000050087   0.000025509      681060002   20405396
   6  5  0    -1468.8147037367    -0.0000013907   0.000021667   0.000005997      624716409   20865571
   7  6  0    -1468.8147041220    -0.0000003853   0.000005895   0.000003412      579628823   21242437
   8  7  0    -1468.8147037701     0.0000003519   0.000002426   0.000001184      538242860   21589605
   9  8  0    -1468.8147036739     0.0000000962   0.000001048   0.000000737      504081058   21877473
  10  9  0    -1468.8147036653     0.0000000087   0.000000434   0.000000200      461926339   22205273
  11 10  0    -1468.8147036677    -0.0000000024   0.000000180   0.000000050      422468073   22529338
  12 11  0    -1468.8147036622     0.0000000055   0.000000064   0.000000016      381418305   22831021

          -----------------
          DENSITY CONVERGED
          -----------------
     TIME TO FORM FOCK OPERATORS=      25.7 SECONDS (       2.1 SEC/ITER)
     FOCK TIME ON FIRST ITERATION=       3.5, LAST ITERATION=       1.2
     TIME TO SOLVE SCF EQUATIONS=       0.5 SECONDS (       0.0 SEC/ITER)

 FINAL RHF ENERGY IS    -1468.8147036622 AFTER  12 ITERATIONS
 ...... END OF RHF CALCULATION ......
 CPU     0: STEP CPU TIME=    56.40 TOTAL CPU TIME=       1240.6 (     20.7 MIN)
 TOTAL WALL CLOCK TIME=       2472.0 SECONDS, CPU UTILIZATION IS    50.19%
 DONE PCM POT.
 CPU     0: STEP CPU TIME=     0.35 TOTAL CPU TIME=       1240.9 (     20.7 MIN)
 TOTAL WALL CLOCK TIME=       2472.9 SECONDS, CPU UTILIZATION IS    50.18%

 Iter=  4 iFrag=      7 EFMO= -1507.423579252, DD= 0.009083925, DE=-0.021855459


 RHF      monomer      5 corr= NONE       , L1=   371, L0=   348 ID=      3

