‘4A4T_4_fmo_input.inp’ -> ‘/scratch/hazwong/824140/./4A4T_4_fmo_input.inp’
‘rungms’ -> ‘/scratch/hazwong/824140/./rungms’
‘gms-files.csh’ -> ‘/scratch/hazwong/824140/./gms-files.csh’
----- GAMESS execution script 'rungms' -----
This job is running on host gollum058.lsa.umich.edu
under operating system Linux at Sat Dec 7 00:06:23 EST 2019
Available scratch disk space (Kbyte units) at beginning of the job is
Filesystem     1K-blocks  Used Available Use% Mounted on
/dev/sda4      426933580 33492 426900088   1% /scratch
GAMESS temporary binary files will be written to /scratch/hazwong/824140/4A4T_4/usrc
GAMESS supplementary output files will be written to /scratch/hazwong/824140/4A4T_4/src
Copying input file 4A4T_4_fmo_input.inp to your run's scratch directory...
cp 4A4T_4_fmo_input.inp /scratch/hazwong/824140/4A4T_4/usrc/4A4T_4_fmo_input.F05
unset echo
This is a GDDI run, keeping various output files on local disks
setenv OUTPUT /scratch/hazwong/824140/4A4T_4/usrc/4A4T_4_fmo_input.F06
setenv PUNCH /scratch/hazwong/824140/4A4T_4/usrc/4A4T_4_fmo_input.F07
unset echo
 
Assuming a single but multicore node.
 
/export/apps/CentOS7/gamess/src/build//ddikick.x /export/apps/CentOS7/gamess/src/build//gamess.R3.x 4A4T_4_fmo_input -ddi 1 16 gollum058.lsa.umich.edu:cpus=16 -scr /scratch/hazwong/824140/4A4T_4/usrc

 Distributed Data Interface kickoff program.
 Initiating 16 compute processes on 1 nodes to run the following command:
 /export/apps/CentOS7/gamess/src/build//gamess.R3.x 4A4T_4_fmo_input 

          ******************************************************
          *         GAMESS VERSION = 30 SEP 2018 (R3)         *
          *             FROM IOWA STATE UNIVERSITY             *
          * M.W.SCHMIDT, K.K.BALDRIDGE, J.A.BOATZ, S.T.ELBERT, *
          *   M.S.GORDON, J.H.JENSEN, S.KOSEKI, N.MATSUNAGA,   *
          *          K.A.NGUYEN, S.J.SU, T.L.WINDUS,           *
          *       TOGETHER WITH M.DUPUIS, J.A.MONTGOMERY       *
          *         J.COMPUT.CHEM.  14, 1347-1363(1993)        *
          **************** 64 BIT LINUX VERSION ****************

  SINCE 1993, STUDENTS AND POSTDOCS WORKING AT IOWA STATE UNIVERSITY
  AND ALSO IN THEIR VARIOUS JOBS AFTER LEAVING ISU HAVE MADE IMPORTANT
  CONTRIBUTIONS TO THE CODE:
     IVANA ADAMOVIC, CHRISTINE AIKENS, YURI ALEXEEV, POOJA ARORA,
     ANDREY ASADCHEV, ROB BELL, PRADIPTA BANDYOPADHYAY, JONATHAN BENTZ,
     BRETT BODE, KURT BRORSEN, CALEB CARLIN, GALINA CHABAN, WEI CHEN,
     CHEOL HO CHOI, PAUL DAY, ALBERT DEFUSCO, NUWAN DESILVA, TIM DUDLEY,
     DMITRI FEDOROV, ALEX FINDLATER, GRAHAM FLETCHER, MARK FREITAG,
     KURT GLAESEMANN, ANASTASIA GUNINA,
     DAN KEMP, GRANT MERRILL, NORIYUKI MINEZAWA, JONATHAN MULLIN,
     TAKESHI NAGATA, SEAN NEDD, HEATHER NETZLOFF, BOSILJKA NJEGIC, RYAN OLSON,
     MIKE PAK, BUU PHAM,
     SPENCER PRUITT, LUKE ROSKOP, JIM SHOEMAKER, LYUDMILA SLIPCHENKO,
     TONY SMITH, SAROM SOK LEANG, JIE SONG, TETSUYA TAKETSUGU, SIMON WEBB,
     PENG XU, SOOHAENG YOO, FEDERICO ZAHARIEV

  ADDITIONAL CODE HAS BEEN PROVIDED BY COLLABORATORS IN OTHER GROUPS:
     IOWA STATE UNIVERSITY:
          JOE IVANIC, AARON WEST, LAIMUTIS BYTAUTAS, KLAUS RUEDENBERG
     UNIVERSITY OF TOKYO: KIMIHIKO HIRAO, TAKAHITO NAKAJIMA,
          TAKAO TSUNEDA, MUNEAKI KAMIYA, SUSUMU YANAGISAWA,
          KIYOSHI YAGI, MAHITO CHIBA, SEIKEN TOKURA, NAOAKI KAWAKAMI
     UNIVERSITY OF AARHUS: FRANK JENSEN
     UNIVERSITY OF IOWA: VISVALDAS KAIRYS, HUI LI
     NATIONAL INST. OF STANDARDS AND TECHNOLOGY: WALT STEVENS, DAVID GARMER
     UNIVERSITY OF PISA: BENEDETTA MENNUCCI, JACOPO TOMASI
     UNIVERSITY OF MEMPHIS: HENRY KURTZ, PRAKASHAN KORAMBATH
     UNIVERSITY OF ALBERTA: TOBY ZENG, MARIUSZ KLOBUKOWSKI
     UNIVERSITY OF NEW ENGLAND: MARK SPACKMAN
     MIE UNIVERSITY: HIROAKI UMEDA
     NAT. INST. OF ADVANCED INDUSTRIAL SCIENCE AND TECHNOLOGY: KAZUO KITAURA
     MICHIGAN STATE UNIVERSITY:
          KAROL KOWALSKI, MARTA WLOCH, JEFFREY GOUR, JESSE LUTZ,
          WEI LI, JUN SHEN, J. EMILIANO DEUSTUA, PIOTR PIECUCH
     UNIVERSITY OF MINNESOTA:
          YINAN SHU
     UNIVERSITY OF SILESIA: MONIKA MUSIAL, STANISLAW KUCHARSKI
     FACULTES UNIVERSITAIRES NOTRE-DAME DE LA PAIX:
          OLIVIER QUINET, BENOIT CHAMPAGNE
     UNIVERSITY OF CALIFORNIA - SANTA BARBARA: BERNARD KIRTMAN
     INSTITUTE FOR MOLECULAR SCIENCE:
          KAZUYA ISHIMURA, MICHIO KATOUDA, AND SHIGERU NAGASE
     UNIVERSITY OF NOTRE DAME: ANNA POMOGAEVA, DAN CHIPMAN
     KYUSHU UNIVERSITY:
          HARUYUKI NAKANO,
          FENG LONG GU, JACEK KORCHOWIEC, MARCIN MAKOWSKI, AND YURIKO AOKI,
          HIROTOSHI MORI AND EISAKU MIYOSHI
     PENNSYLVANIA STATE UNIVERSITY:
          TZVETELIN IORDANOV, CHET SWALINA, JONATHAN SKONE,
          SHARON HAMMES-SCHIFFER
     WASEDA UNIVERSITY:
          MASATO KOBAYASHI, TOMOKO AKAMA, TSUGUKI TOUMA,
          TAKESHI YOSHIKAWA, YASUHIRO IKABATA, JUNJI SEINO,
          YUYA NAKAJIMA, HIROMI NAKAI
     NANJING UNIVERSITY: SHUHUA LI
     UNIVERSITY OF NEBRASKA:
          PEIFENG SU, DEJUN SI, NANDUN THELLAMUREGE, YALI WANG, HUI LI
     UNIVERSITY OF ZURICH: ROBERTO PEVERATI, KIM BALDRIDGE
     N. COPERNICUS UNIVERSITY AND JACKSON STATE UNIVERSITY:
          MARIA BARYSZ
     UNIVERSITY OF COPENHAGEN: Jimmy Kromann, CASPER STEINMANN
     TOKYO INSTITUTE OF TECHNOLOGY: HIROYA NAKATA
     NAGOYA UNIVERSITY: YOSHIO NISHIMOTO, STEPHAN IRLE
     MOSCOW STATE UNIVERSITY: VLADIMIR MIRONOV


 PARALLEL VERSION RUNNING ON       16 PROCESSORS IN        1 NODES.

 EXECUTION OF GAMESS BEGUN Sat Dec  7 00:06:24 2019

            ECHO OF THE FIRST FEW INPUT CARDS -
 INPUT CARD>!*** FMO 5.3 (Gamess) INPUT generated by Facio 22.1.1.32 ***                    
 INPUT CARD> $CONTRL RUNTYP=ENERGY NPRINT=-5 ISPHER=1 MAXIT=200 $END                        
 INPUT CARD> $SYSTEM MWORDS=63 MEMDDI=63 $END                                               
 INPUT CARD> $GDDI NGROUP=1 $END                                                            
 INPUT CARD> $SCF DIRSCF=.TRUE. NPUNCH=0 $END                                               
 INPUT CARD>!*** NumCPU : 2  MemPerNode : 512MB                                             
 INPUT CARD> $PCM SOLVNT=WATER IEF=-10 ICOMP=2 ICAV=1 IDISP=1 IFMO=-1 $END                  
 INPUT CARD> $PCMCAV RADII=SUAHF $END                                                       
 INPUT CARD> $TESCAV NTSALL=60 $END                                                         
 INPUT CARD> $FMOPRP                                                                        
 INPUT CARD>    NAODIR=200                                                                  
 INPUT CARD>    NGRFMO(1)=1, 1, 0, 0, 0,   0, 0, 0, 0, 0                                    
 INPUT CARD>    IPIEDA=1                                                                    
 INPUT CARD>    NPRINT=9                                                                    
 INPUT CARD> $END                                                                           
 INPUT CARD> $FMO                                                                           
 INPUT CARD>      SCFTYP(1)=RHF                                                             
 INPUT CARD>      MODGRD=10                                                                 
 INPUT CARD>      MODMUL=0                                                                  
 INPUT CARD>      MAXCAO=5                                                                  
 INPUT CARD>      MAXBND=10                                                                 
 INPUT CARD>      NLAYER=1                                                                  
 INPUT CARD>      MPLEVL(1)=2                                                               
 INPUT CARD>      NFRAG=8                                                                   
 INPUT CARD>      ICHARG(1)=-1, -1, -1, -1, -1, -1, -1, 0                                   
 INPUT CARD>      FRGNAM(1)=F1, F2, F3, F4, F5, F6, F7, F8                                  
 INPUT CARD>      indat(1)=0                                                                
 INPUT CARD>               1   -36   0                                                      
 INPUT CARD>               37   -67   0                                                     
 INPUT CARD>               68   -97   0                                                     
 INPUT CARD>               98   -127   0                                                    
 INPUT CARD>               128   -160   0                                                   
 INPUT CARD>               161   -191   0                                                   
 INPUT CARD>               192   -225   0                                                   
 INPUT CARD>               226   -253   0                                                   
 INPUT CARD> $END                                                                           
 INPUT CARD>                                                                                
 INPUT CARD> $FMOBND                                                                        
 INPUT CARD>   -37   36       6-31G*    MINI                                                
 INPUT CARD>   -68   67       6-31G*    MINI                                                
 INPUT CARD>   -98   97       6-31G*    MINI                                                
 INPUT CARD>   -128   127       6-31G*    MINI                                              
 INPUT CARD>   -161   160       6-31G*    MINI                                              
 INPUT CARD>   -192   191       6-31G*    MINI                                              
 INPUT CARD>   -226   225       6-31G*    MINI                                              
 INPUT CARD> $END                                                                           
 INPUT CARD> $FMOHYB                                                                        
 INPUT CARD> 6-31G*      15   5                                                             
 INPUT CARD>   1 0  -0.065034   0.288264   0.000000   0.000000   0.604412                   
 INPUT CARD>         0.290129   0.000000   0.000000   0.319045  -0.017106                   


 -------------------------------------------------------------
 GROUP DDI, PROGRAMMED BY: RYAN M. OLSON AND DMITRI G. FEDOROV
        FEDOROV ET AL., J. COMPUT. CHEM., 25 (2004) 872.
 -------------------------------------------------------------

 -------------------------------------------------------
 GDDI: INITIALIZATION COMPLETED FOR GROUP     1 OF     1
 WITH    16 PROCESSES BALTYP=DLB   global rank=        0
 -------------------------------------------------------

   63000000 WORDS OF MEMORY AVAILABLE


     RUN TITLE
     ---------
  FMO calculation                                                                

 THE POINT GROUP OF THE MOLECULE IS C1      
 THE ORDER OF THE PRINCIPAL AXIS IS     0

 ATOM   ATOMIC CHARGE
 H.1-1       1.0
 O.1-1       8.0
 C.1-1       6.0
 N.1-1       7.0
 P.1-1      15.0

     ATOMIC BASIS SET LIBRARY
     ----------------
 THE CONTRACTED PRIMITIVE FUNCTIONS HAVE BEEN UNNORMALIZED
 THE CONTRACTED BASIS FUNCTIONS ARE NOW NORMALIZED TO UNITY

  SHELL TYPE  PRIMITIVE        EXPONENT          CONTRACTION COEFFICIENT(S)

 H.1-1     

      1   S       1            18.7311370    0.033494604338
      1   S       2             2.8253944    0.234726953484
      1   S       3             0.6401217    0.813757326146

      2   S       4             0.1612778    1.000000000000

 O.1-1     

      3   S       5          5484.6716600    0.001831074430
      3   S       6           825.2349460    0.013950172200
      3   S       7           188.0469580    0.068445078098
      3   S       8            52.9645000    0.232714335992
      3   S       9            16.8975704    0.470192897984
      3   S      10             5.7996353    0.358520852987

      4   L      11            15.5396162   -0.110777549525    0.070874268231
      4   L      12             3.5999336   -0.148026262701    0.339752839147
      4   L      13             1.0137618    1.130767015354    0.727158577316

      5   L      14             0.2700058    1.000000000000    1.000000000000

      6   D      15             0.8000000    1.000000000000

 C.1-1     

      7   S      16          3047.5248800    0.001834737132
      7   S      17           457.3695180    0.014037322813
      7   S      18           103.9486850    0.068842622264
      7   S      19            29.2101553    0.232184443216
      7   S      20             9.2866630    0.467941348435
      7   S      21             3.1639270    0.362311985337

      8   L      22             7.8682723   -0.119332419775    0.068999066591
      8   L      23             1.8812885   -0.160854151696    0.316423960957
      8   L      24             0.5442493    1.143456437840    0.744308290898

      9   L      25             0.1687145    1.000000000000    1.000000000000

     10   D      26             0.8000000    1.000000000000

 N.1-1     

     11   S      27          4173.5114600    0.001834772160
     11   S      28           627.4579110    0.013994627002
     11   S      29           142.9020930    0.068586551812
     11   S      30            40.2343293    0.232240873040
     11   S      31            12.8202129    0.469069948082
     11   S      32             4.3904370    0.360455199063

     12   L      33            11.6263619   -0.114961181702    0.067579743878
     12   L      34             2.7162798   -0.169117478561    0.323907295893
     12   L      35             0.7722184    1.145851947027    0.740895139755

     13   L      36             0.2120315    1.000000000000    1.000000000000

     14   D      37             0.8000000    1.000000000000

 P.1-1     

     15   S      38         19413.3000000    0.001851598923
     15   S      39          2909.4200000    0.014206191735
     15   S      40           661.3640000    0.069999459277
     15   S      41           185.7590000    0.240078860331
     15   S      42            59.1943000    0.484761717984
     15   S      43            20.0310000    0.335199804993

     16   L      44           339.4780000   -0.002782170105    0.004564616191
     16   L      45            81.0101000   -0.036049901354    0.033693571881
     16   L      46            25.8780000   -0.116631004382    0.139754883368
     16   L      47             9.4522100    0.096832803638    0.339361716786
     16   L      48             3.6656600    0.614418023082    0.450920623685
     16   L      49             1.4674600    0.403798015170    0.238585800889

     17   L      50             2.1562300   -0.252924113863   -0.017765312733
     17   L      51             0.7489970    0.032851844678    0.274058196433
     17   L      52             0.2831450    1.081254761783    0.785421562957

     18   L      53             0.0998317    1.000000000000    1.000000000000

     19   D      54             0.5500000    1.000000000000

 TOTAL NUMBER OF BASIS SET SHELLS             =   19
 NUMBER OF CARTESIAN GAUSSIAN BASIS FUNCTIONS =   66

     $CONTRL OPTIONS
     ---------------
 SCFTYP=RHF          RUNTYP=ENERGY       EXETYP=RUN     
 MPLEVL=       0     CITYP =NONE         CCTYP =NONE         VBTYP =NONE    
 DFTTYP=NONE         TDDFT =NONE    
 MULT  =       1     ICHARG=       0     NZVAR =       0     COORD =UNIQUE  
 PP    =NONE         RELWFN=NONE         LOCAL =NONE         NUMGRD=       F
 ISPHER=       1     NOSYM =       0     MAXIT =     200     UNITS =ANGS    
 PLTORB=       F     MOLPLT=       F     AIMPAC=       F     FRIEND=        
 NPRINT=      -5     IREST =       0     GEOM  =INPUT   
 NORMF =       0     NORMP =       0     ITOL  =      24     ICUT  =      12
 INTTYP=BEST         GRDTYP=BEST         QMTTOL= 1.0E-06

     $SYSTEM OPTIONS
     ---------------
  REPLICATED MEMORY=    63000000 WORDS (ON EVERY NODE).
 DISTRIBUTED MEMDDI=          63 MILLION WORDS IN AGGREGATE,
 MEMDDI DISTRIBUTED OVER  16 PROCESSORS IS     3937500 WORDS/PROCESSOR.
 TOTAL MEMORY REQUESTED ON EACH PROCESSOR=    66937500 WORDS.
 TIMLIM=      525600.00 MINUTES, OR     365.0 DAYS.
 PARALL= T  BALTYP=  DLB     KDIAG=    0  COREFL= F
 MXSEQ2=     300 MXSEQ3=     150  mem10=         0

 ** LOOKING UP INTERNALLY STORED DATA FOR SOLVENT=WATER    **
 OPTICAL AND PHYSICAL CONSTANTS:
 EPS= 78.390; EPSINF=  1.776; RSOLV=  1.385 A; VMOL=  18.070 ML/MOL;
 TCE= .25700E-03 1/K; STEN= 71.810 DYN/CM;  DSTEN=  0.6500; CMF=  1.2770


     -----------------------------------
     INPUT FOR PCM SOLVATION CALCULATION 
     -----------------------------------
     IEF   =     -10
     ICOMP =       2     IFIELD=       0     ICAV  =       1
     IDISP =       1     IREP  =       0     IDP   =       0

     SOLVNT=WATER        EPS   = 78.3900     EPSINF=  1.7760
     VMOL  = 18.0700     TCE   =  0.00025700 STEN  = 71.8100
     DSTEN =  0.6500     CMF   =  1.2770     RSOLV =  1.3850

     NESFP =       0
     OMEGA = 40.0000     RET   =100.0000     FRO   =  0.7000

     TABS  =298.0000     IPRINT=       0

     --------------------------------
     INPUT FOR ITERATIVE C-PCM METHOD 
     --------------------------------
     IPCMIT  =         1     MXDIIS  =        50
     MXITR1  =       200     MXITR2  =       200
     THRES   = 0.100E-09     IMUL    =         3
     RCUT(1) =   20.0000     RCUT(2) =   50.0000

     IDIRCT  =         1
     IMGABI  =         0     RABI    =    4.0000
     IMGASC  =         0     RASC    =   20.0000
     THRSLS  = 0.500E-03     DENSLS  =    0.0100
     IEFPOL  =         1     REFPOL  =    0.0000

     INPUT FOR ISOTROPIC DIELECTRICS
     -------------------------------
     EPS=    78.39

          ----------------
          PROPERTIES INPUT
          ----------------

     MOMENTS            FIELD           POTENTIAL          DENSITY
 IEMOM =       1   IEFLD =       0   IEPOT =       0   IEDEN =       0
 WHERE =COMASS     WHERE =NUCLEI     WHERE =NUCLEI     WHERE =NUCLEI  
 OUTPUT=BOTH       OUTPUT=BOTH       OUTPUT=NONE       OUTPUT=BOTH    
 IEMINT=       0   IEFINT=       0                     IEDINT=       0
                                                       MORB  =       0
          EXTRAPOLATION IN EFFECT
          SOSCF IN EFFECT
 ORBITAL PRINTING OPTION: NPREO=     1 32767     2     1

     -------------------------------
     INTEGRAL TRANSFORMATION OPTIONS
     -------------------------------
     NWORD  =            0
     CUTOFF = 1.0E-10     MPTRAN =       0
     DIRTRF =       T     AOINTS =DUP     

          ----------------------
          INTEGRAL INPUT OPTIONS
          ----------------------
 NOPK  =       1 NORDER=       0 SCHWRZ=       T

 ..... DONE SETTING UP THE RUN .....
 CPU     0: STEP CPU TIME=     0.03 TOTAL CPU TIME=          0.0 (      0.0 MIN)
 TOTAL WALL CLOCK TIME=          0.1 SECONDS, CPU UTILIZATION IS    50.00%
 CPU     0: STEP CPU TIME=     0.00 TOTAL CPU TIME=          0.0 (      0.0 MIN)
 TOTAL WALL CLOCK TIME=          0.1 SECONDS, CPU UTILIZATION IS    50.00%

                    ----------------------
                    AO INTEGRAL TECHNOLOGY
                    ----------------------
     S,P,L SHELL ROTATED AXIS INTEGRALS, REPROGRAMMED BY
        KAZUYA ISHIMURA (IMS) AND JOSE SIERRA (SYNSTAR).
     S,P,D,L SHELL ROTATED AXIS INTEGRALS PROGRAMMED BY
        KAZUYA ISHIMURA (INSTITUTE FOR MOLECULAR SCIENCE).
     S,P,D,F,G SHELL TO TOTAL QUARTET ANGULAR MOMENTUM SUM 5,
        ERIC PROGRAM BY GRAHAM FLETCHER (ELORET AND NASA ADVANCED
        SUPERCOMPUTING DIVISION, AMES RESEARCH CENTER).
     S,P,D,F,G,L SHELL GENERAL RYS QUADRATURE PROGRAMMED BY
        MICHEL DUPUIS (PACIFIC NORTHWEST NATIONAL LABORATORY).
 Setting modorb=1 flag...
 Setting modorb=1 flag...

          -----------------------
          MP2 CONTROL INFORMATION
          -----------------------
          NACORE =        8  NBCORE =        8
          LMOMP2 =        F  AOINTS = DUP     
          METHOD =        2  NWORD  =               0
          MP2PRP =        F  OSPT   = NONE    
          CUTOFF = 1.00E-12  CPHFBS = BASISAO 
          CODE   = IMS     

          NUMBER OF CORE -A-  ORBITALS =     8
          NUMBER OF CORE -B-  ORBITALS =     8
          NUMBER OF OCC. -A-  ORBITALS =    18
          NUMBER OF OCC. -B-  ORBITALS =    18
          NUMBER OF MOLECULAR ORBITALS =    66
          NUMBER OF   BASIS  FUNCTIONS =    66

 CPU     0: STEP CPU TIME=     0.02 TOTAL CPU TIME=          0.0 (      0.0 MIN)
 TOTAL WALL CLOCK TIME=          0.1 SECONDS, CPU UTILIZATION IS    55.56%
 CPU     0: STEP CPU TIME=     0.00 TOTAL CPU TIME=          0.0 (      0.0 MIN)
 TOTAL WALL CLOCK TIME=          0.1 SECONDS, CPU UTILIZATION IS    55.56%

     INPUT FOR CAVITY DEFINITION 
     ---------------------------
   ATOM               COORDINATES                RADIUS       EPS
      1      0.4700     -7.5410      7.0490      0.0100     78.3900
      2      0.1570     -6.8570      7.6710      1.5900     78.3900
      3      1.2570     -6.5590      8.5410      1.7700     78.3900
      4      2.1540     -6.3120      7.9290      0.0100     78.3900
      5      1.4940     -7.4600      9.1490      0.0100     78.3900
      6      0.9630     -5.3900      9.4850      1.7700     78.3900
      7      1.8170     -5.2030     10.1700      0.0100     78.3900
      8      0.7520     -4.1700      8.7140      1.5900     78.3900
      9     -0.2850     -3.4160      9.3240      1.7700     78.3900
     10      0.1300     -2.4040      9.5230      0.0100     78.3900
     11     -1.4500     -3.2820      8.4350      1.6800     78.3900
     12     -2.4450     -2.3490      8.5520      1.7700     78.3900
     13     -3.8740      0.3250     10.2180      1.6800     78.3900
     14     -3.2600      0.4570     10.9900      0.0100     78.3900
     15     -4.6840      0.9110     10.1320      0.0100     78.3900
     16     -2.5390     -1.4120      9.5120      1.6800     78.3900
     17     -3.6090     -0.6360      9.3560      1.7700     78.3900
     18     -4.4830     -0.7630      8.3080      1.6800     78.3900
     19     -5.2680     -0.1320      8.2660      0.0100     78.3900
     20     -4.3990     -1.7040      7.2900      1.7700     78.3900
     21     -5.2270     -1.7450      6.3730      1.5900     78.3900
     22     -3.2870     -2.5680      7.4760      1.7700     78.3900
     23     -2.8460     -3.6420      6.7130      1.6800     78.3900
     24     -1.7500     -4.0380      7.3200      1.7700     78.3900
     25     -1.1060     -4.8610      6.9970      0.0100     78.3900
     26     -0.6270     -4.0810     10.6360      1.7700     78.3900
     27     -1.6900     -3.9450     10.9180      0.0100     78.3900
     28      0.2080     -3.5760     11.6620      1.5900     78.3900
     29     -0.0450     -4.0520     12.4620      0.0100     78.3900
     30     -0.3140     -5.5390     10.3280      1.7700     78.3900
     31     -1.0960     -5.9720      9.6600      0.0100     78.3900
     32     -0.0460     -6.3610     11.4830      1.5900     78.3900
     33     -1.2300     -7.1370     12.1770      2.1000     78.3900
     34     -2.0110     -7.8560     11.1510      1.5900     78.3900
     35     -0.6460     -7.9500     13.2640      1.5900     78.3900
     36     -2.1230     -5.9930     12.7960      1.5900     78.3900
     37     -1.6500     -5.2510     13.9460      1.7700     78.3900
     38     -0.6490     -4.7980     13.7610      0.0100     78.3900
     39     -1.5470     -5.9250     14.8270      0.0100     78.3900
     40     -2.6240     -4.1230     14.3200      1.7700     78.3900
     41     -2.2290     -3.5320     15.1770      0.0100     78.3900
     42     -2.7890     -3.2180     13.1890      1.5900     78.3900
     43     -4.1270     -2.7380     13.1520      1.7700     78.3900
     44     -4.0470     -1.6290     13.2370      0.0100     78.3900
     45     -4.8370     -3.0730     11.8800      1.6800     78.3900
     46     -4.3680     -4.0810     11.0700      1.7700     78.3900
     47     -3.4960     -4.6240     11.4400      0.0100     78.3900
     48     -4.9560     -4.3670      9.9000      1.7700     78.3900
     49     -4.5880     -5.1460      9.2330      0.0100     78.3900
     50     -5.9810     -2.3700     11.5080      1.7700     78.3900
     51     -6.4130     -1.4780     12.2530      1.5900     78.3900
     52     -6.5950     -2.6500     10.3370      1.6800     78.3900
     53     -6.1130     -3.6160      9.5390      1.7700     78.3900
     54     -6.7340     -3.8780      8.3920      1.6800     78.3900
     55     -7.5960     -3.4080      8.1660      0.0100     78.3900
     56     -6.4080     -4.5760      7.7580      0.0100     78.3900
     57     -4.8310     -3.2710     14.3830      1.7700     78.3900
     58     -5.8920     -3.4780     14.1880      0.0100     78.3900
     59     -4.7120     -2.3580     15.4610      1.5900     78.3900
     60     -4.9650     -2.8270     16.2710      0.0100     78.3900
     61     -4.0590     -4.5590     14.6490      1.7700     78.3900
     62     -4.3290     -5.3370     13.8990      0.0100     78.3900
     63     -4.1510     -5.0250     16.0100      1.5900     78.3900
     64     -5.0060     -6.2960     16.3760      2.1000     78.3900
     65     -4.4200     -7.4690     15.6950      1.5900     78.3900
     66     -5.1090     -6.3710     17.8500      1.5900     78.3900
     67     -6.4330     -6.0270     15.7740      1.5900     78.3900
     68     -7.3290     -5.0360     16.3180      1.7700     78.3900
     69     -6.8070     -4.0690     16.5000      0.0100     78.3900
     70     -7.7410     -5.3880     17.2920      0.0100     78.3900
     71     -8.5130     -4.7700     15.3680      1.7700     78.3900
     72     -9.2040     -4.0230     15.8110      0.0100     78.3900
     73     -8.0340     -4.2000     14.1090      1.5900     78.3900
     74     -8.7810     -4.7290     13.0240      1.7700     78.3900
     75     -9.1650     -3.8490     12.4570      0.0100     78.3900
     76     -7.9540     -5.5880     12.1200      1.6800     78.3900
     77     -6.7750     -6.1560     12.5460      1.7700     78.3900
     78     -6.4790     -5.8990     13.5580      0.0100     78.3900
     79     -8.4170     -5.8120     10.8400      1.7700     78.3900
     80     -9.4680     -5.3390     10.4260      1.5900     78.3900
     81     -7.6030     -6.5970     10.0610      1.6800     78.3900
     82     -7.9340     -6.7650      9.1210      0.0100     78.3900
     83     -6.4040     -7.1810     10.4150      1.7700     78.3900
     84     -5.7720     -7.8500      9.5990      1.5900     78.3900
     85     -5.9980     -6.9160     11.7600      1.7700     78.3900
     86     -5.0500     -7.3230     12.1060      0.0100     78.3900
     87     -9.9390     -5.4950     13.6270      1.7700     78.3900
     88    -10.2440     -6.3480     12.9850      0.0100     78.3900
     89    -11.0400     -4.6260     13.8380      1.5900     78.3900
     90    -11.3390     -4.2890     12.9720      0.0100     78.3900
     91     -9.3360     -5.9830     14.9390      1.7700     78.3900
     92     -8.5970     -6.7920     14.7400      0.0100     78.3900
     93    -10.3020     -6.3120     15.9590      1.5900     78.3900
     94    -10.5980     -7.8190     16.3040      2.1000     78.3900
     95     -9.5370     -8.7090     15.7730      1.5900     78.3900
     96    -10.8450     -7.9020     17.7600      1.5900     78.3900
     97    -11.9510     -8.1600     15.5690      1.5900     78.3900
     98    -12.0890     -8.1210     14.1330      1.7700     78.3900
     99    -11.2840     -8.7010     13.6260      0.0100     78.3900
    100    -12.0430     -7.0690     13.7820      0.0100     78.3900
    101    -13.4470     -8.6580     13.6560      1.7700     78.3900
    102    -13.5240     -9.7560     13.8240      0.0100     78.3900
    103    -14.5260     -8.0250     14.4170      1.5900     78.3900
    104    -15.5680     -7.6250     13.5390      1.7700     78.3900
    105    -16.5070     -8.0450     13.9730      0.0100     78.3900
    106    -15.6930     -6.1360     13.4490      1.6800     78.3900
    107    -14.8010     -5.2970     14.0910      1.7700     78.3900
    108    -14.0000     -5.7860     14.6520      0.0100     78.3900
    109    -16.7700     -5.6160     12.7600      1.7700     78.3900
    110    -17.6100     -6.3170     12.2040      1.5900     78.3900
    111    -16.8450     -4.2500     12.7460      1.6800     78.3900
    112    -17.6720     -3.8730     12.3090      0.0100     78.3900
    113    -16.0350     -3.3590     13.4130      1.7700     78.3900
    114    -16.2950     -2.1590     13.3990      1.5900     78.3900
    115    -14.9340     -3.9610     14.0980      1.7700     78.3900
    116    -14.2540     -3.3200     14.6600      0.0100     78.3900
    117    -15.2940     -8.2810     12.1960      1.7700     78.3900
    118    -15.6640     -7.6810     11.3370      0.0100     78.3900
    119    -15.8700     -9.5780     12.1590      1.5900     78.3900
    120    -15.5010    -10.0340     11.3850      0.0100     78.3900
    121    -13.7750     -8.3380     12.1820      1.7700     78.3900
    122    -13.3800     -7.3140     11.9730      0.0100     78.3900
    123    -13.2500     -9.3560     11.2960      1.5900     78.3900
    124    -12.1490     -8.9960     10.2340      2.1000     78.3900
    125    -11.1810     -8.0800     10.8700      1.5900     78.3900
    126    -11.6080    -10.2530      9.6730      1.5900     78.3900
    127    -12.9580     -8.2730      9.0940      1.5900     78.3900
    128    -12.3130     -7.3540      8.1760      1.7700     78.3900
    129    -12.0320     -7.8960      7.2460      0.0100     78.3900
    130    -11.3850     -6.8990      8.6030      0.0100     78.3900
    131    -13.2520     -6.2070      7.7740      1.7700     78.3900
    132    -14.0290     -6.5690      7.0690      0.0100     78.3900
    133    -13.9560     -5.7060      8.9470      1.5900     78.3900
    134    -14.1350     -4.3130      8.8320      1.7700     78.3900
    135    -15.2350     -4.1430      8.8910      0.0100     78.3900
    136    -13.4830     -3.6120      9.9290      1.6800     78.3900
    137    -12.9940     -2.1530     11.4920      1.7700     78.3900
    138    -12.0700     -3.1870     11.6210      1.6800     78.3900
    139    -12.4000     -4.0260     10.6680      1.7700     78.3900
    140    -11.8960     -4.9750     10.4550      0.0100     78.3900
    141    -14.2390     -0.1700     11.8510      1.6800     78.3900
    142    -14.9900     -0.5430     10.8090      1.7700     78.3900
    143    -15.7960      0.1480     10.5370      0.0100     78.3900
    144    -14.8970     -1.6390     10.0470      1.6800     78.3900
    145    -13.8710     -2.4080     10.4520      1.7700     78.3900
    146    -13.2070     -0.9670     12.2270      1.7700     78.3900
    147    -12.4510     -0.5930     13.2770      1.6800     78.3900
    148    -11.6770     -1.1360     13.6030      0.0100     78.3900
    149    -12.6290      0.2890     13.7180      0.0100     78.3900
    150    -13.6310     -3.8870      7.4710      1.7700     78.3900
    151    -13.1860     -2.8720      7.4700      0.0100     78.3900
    152    -14.6920     -3.9440      6.5380      1.5900     78.3900
    153    -14.2910     -3.8790      5.6630      0.0100     78.3900
    154    -12.5840     -4.9510      7.1840      1.7700     78.3900
    155    -11.6670     -4.7600      7.7920      0.0100     78.3900
    156    -12.3190     -5.1360      5.7780      1.5900     78.3900
    157    -10.9850     -4.6160      5.1250      2.1000     78.3900
    158     -9.9190     -4.6280      6.1390      1.5900     78.3900
    159    -10.7320     -5.4250      3.9150      1.5900     78.3900
    160    -11.3080     -3.1380      4.6900      1.5900     78.3900
    161    -12.4910     -2.7750      3.9570      1.7700     78.3900
    162    -13.4020     -3.0890      4.5090      0.0100     78.3900
    163    -12.5000     -3.2750      2.9640      0.0100     78.3900
    164    -12.5480     -1.2470      3.7940      1.7700     78.3900
    165    -12.2670     -0.7340      4.7330      0.0100     78.3900
    166    -11.6890     -0.7910      2.7160      1.5900     78.3900
    167    -12.4410     -0.6930      1.5030      1.7700     78.3900
    168    -12.4210      0.3850      1.2260      0.0100     78.3900
    169    -11.8380     -1.5160      0.3960      1.6800     78.3900
    170    -10.6340     -2.1620      0.6230      1.7700     78.3900
    171    -10.2030     -2.0690      1.6230      0.0100     78.3900
    172    -10.0240     -2.8760     -0.3290      1.7700     78.3900
    173     -9.0750     -3.3800     -0.1550      0.0100     78.3900
    174    -12.3960     -1.5700     -0.8870      1.7700     78.3900
    175    -13.4260     -0.9270     -1.1400      1.5900     78.3900
    176    -11.8060     -2.3110     -1.8510      1.6800     78.3900
    177    -10.6520     -2.9520     -1.6010      1.7700     78.3900
    178    -10.0830     -3.6530     -2.5800      1.6800     78.3900
    179    -10.5460     -3.6970     -3.4680      0.0100     78.3900
    180     -9.2030     -4.1140     -2.4610      0.0100     78.3900
    181    -13.8770     -1.0870      1.8610      1.7700     78.3900
    182    -14.0280     -2.1770      1.6990      0.0100     78.3900
    183    -14.8740     -0.3530      1.1770      1.5900     78.3900
    184    -14.7780      0.5740      1.4420      0.0100     78.3900
    185    -13.9210     -0.7620      3.3500      1.7700     78.3900
    186    -14.6990     -1.4080      3.8250      0.0100     78.3900
    187    -14.0990      0.6440      3.6480      1.5900     78.3900
    188    -15.2370      1.1750      4.5800      2.1000     78.3900
    189    -16.1110      2.0330      3.7530      1.5900     78.3900
    190    -15.8730      0.0530      5.3060      1.5900     78.3900
    191    -14.4590      2.0860      5.6040      1.5900     78.3900
    192    -15.2130      2.9570      6.4890      1.7700     78.3900
    193    -16.2350      2.5680      6.7100      0.0100     78.3900
    194    -15.3310      3.9580      6.0150      0.0100     78.3900
    195    -14.5210      3.1340      7.8490      1.7700     78.3900
    196    -15.1010      3.8130      8.5060      0.0100     78.3900
    197    -14.4440      1.8490      8.5300      1.5900     78.3900
    198    -13.1820      1.7400      9.1780      1.7700     78.3900
    199    -13.3750      1.5070     10.2450      0.0100     78.3900
    200    -12.3640      0.6690      8.5940      1.6800     78.3900
    201    -11.2230      0.1200      9.1240      1.7700     78.3900
    202     -8.8520     -0.0760     11.6560      1.6800     78.3900
    203     -9.1360      0.6360     12.2930      0.0100     78.3900
    204     -8.0080     -0.5870     11.8380      0.0100     78.3900
    205    -10.6390      0.4700     10.2850      1.6800     78.3900
    206     -9.5560     -0.2630     10.5510      1.7700     78.3900
    207     -9.0880     -1.2330      9.7070      1.6800     78.3900
    208     -8.2650     -1.7530      9.9720      0.0100     78.3900
    209     -9.6540     -1.5940      8.4970      1.7700     78.3900
    210     -9.1340     -2.4700      7.8090      1.5900     78.3900
    211    -10.8170     -0.8340      8.2160      1.7700     78.3900
    212    -11.6850     -0.8910      7.1420      1.6800     78.3900
    213    -12.5970      0.0070      7.4110      1.7700     78.3900
    214    -13.4710      0.2280      6.7930      0.0100     78.3900
    215    -12.5060      3.0870      9.0970      1.7700     78.3900
    216    -11.4010      3.0090      9.0660      0.0100     78.3900
    217    -12.8930      3.8750     10.2030      1.5900     78.3900
    218    -12.5390      4.7600     10.0550      0.0100     78.3900
    219    -13.0710      3.6330      7.7920      1.7700     78.3900
    220    -12.6020      3.1000      6.9320      0.0100     78.3900
    221    -13.0420      5.0800      7.6640      1.5900     78.3900
    222    -11.8610      5.7070      6.8250      2.1000     78.3900
    223    -11.6240      4.8780      5.6240      1.5900     78.3900
    224    -12.1290      7.1440      6.6000      1.5900     78.3900
    225    -10.6340      5.5550      7.8000      1.5900     78.3900
    226    -10.6260      6.2260      9.0830      1.7700     78.3900
    227    -11.5330      5.9880      9.6840      0.0100     78.3900
    228    -10.6040      7.3290      8.9410      0.0100     78.3900
    229     -9.3880      5.8420      9.9050      1.7700     78.3900
    230     -9.3520      6.4070     10.8610      0.0100     78.3900
    231     -9.4260      4.4250     10.2350      1.5900     78.3900
    232     -8.1080      3.8900     10.1570      1.7700     78.3900
    233     -7.9050      3.4380     11.1570      0.0100     78.3900
    234     -7.9770      2.8400      9.1080      1.6800     78.3900
    235     -8.8900      2.7690      8.0830      1.7700     78.3900
    236     -9.7020      3.4930      8.1120      0.0100     78.3900
    237     -8.8010      1.8370      7.1290      1.7700     78.3900
    238     -9.5320      1.7550      6.3300      0.0100     78.3900
    239     -6.9040      1.9550      9.1310      1.7700     78.3900
    240     -6.0590      2.0560     10.0320      1.5900     78.3900
    241     -6.7920      1.0080      8.1720      1.6800     78.3900
    242     -7.7060      0.9310      7.1900      1.7700     78.3900
    243     -7.5750     -0.0100      6.2610      1.6800     78.3900
    244     -6.8180     -0.6640      6.3270      0.0100     78.3900
    245     -8.2380     -0.1270      5.5210      0.0100     78.3900
    246     -7.1530      5.0550      9.9290      1.7700     78.3900
    247     -6.2800      4.7660      9.3080      0.0100     78.3900
    248     -6.7130      5.5710     11.1760      1.5900     78.3900
    249     -6.2570      6.4190     11.0270      0.0100     78.3900
    250     -8.0510      6.0330      9.1800      1.7700     78.3900
    251     -8.1760      5.7120      8.1230      0.0100     78.3900
    252     -7.6270      7.4050      9.2570      1.5900     78.3900
    253     -6.7980      7.5210      8.7610      0.0100     78.3900

     ----------------------------
     INPUT FOR TESSERA DEFINITION
     ----------------------------
     NTSALL  =        60     MTHALL  =         4
     MTHAUT  =         0     AUTFRE  =    2.0000
     NTSFRZ  =        60     KEEPSM  =         0
     AREAKP  =   10.0000     BONDRY  =    1.0000
     AREATL  =    0.0100

     SPHERE     INITS       METHOD
          1        60       FIXPVA
          2        60       FIXPVA
          3        60       FIXPVA
          4        60       FIXPVA
          5        60       FIXPVA
          6        60       FIXPVA
          7        60       FIXPVA
          8        60       FIXPVA
          9        60       FIXPVA
         10        60       FIXPVA
         11        60       FIXPVA
         12        60       FIXPVA
         13        60       FIXPVA
         14        60       FIXPVA
         15        60       FIXPVA
         16        60       FIXPVA
         17        60       FIXPVA
         18        60       FIXPVA
         19        60       FIXPVA
         20        60       FIXPVA
         21        60       FIXPVA
         22        60       FIXPVA
         23        60       FIXPVA
         24        60       FIXPVA
         25        60       FIXPVA
         26        60       FIXPVA
         27        60       FIXPVA
         28        60       FIXPVA
         29        60       FIXPVA
         30        60       FIXPVA
         31        60       FIXPVA
         32        60       FIXPVA
         33        60       FIXPVA
         34        60       FIXPVA
         35        60       FIXPVA
         36        60       FIXPVA
         37        60       FIXPVA
         38        60       FIXPVA
         39        60       FIXPVA
         40        60       FIXPVA
         41        60       FIXPVA
         42        60       FIXPVA
         43        60       FIXPVA
         44        60       FIXPVA
         45        60       FIXPVA
         46        60       FIXPVA
         47        60       FIXPVA
         48        60       FIXPVA
         49        60       FIXPVA
         50        60       FIXPVA
         51        60       FIXPVA
         52        60       FIXPVA
         53        60       FIXPVA
         54        60       FIXPVA
         55        60       FIXPVA
         56        60       FIXPVA
         57        60       FIXPVA
         58        60       FIXPVA
         59        60       FIXPVA
         60        60       FIXPVA
         61        60       FIXPVA
         62        60       FIXPVA
         63        60       FIXPVA
         64        60       FIXPVA
         65        60       FIXPVA
         66        60       FIXPVA
         67        60       FIXPVA
         68        60       FIXPVA
         69        60       FIXPVA
         70        60       FIXPVA
         71        60       FIXPVA
         72        60       FIXPVA
         73        60       FIXPVA
         74        60       FIXPVA
         75        60       FIXPVA
         76        60       FIXPVA
         77        60       FIXPVA
         78        60       FIXPVA
         79        60       FIXPVA
         80        60       FIXPVA
         81        60       FIXPVA
         82        60       FIXPVA
         83        60       FIXPVA
         84        60       FIXPVA
         85        60       FIXPVA
         86        60       FIXPVA
         87        60       FIXPVA
         88        60       FIXPVA
         89        60       FIXPVA
         90        60       FIXPVA
         91        60       FIXPVA
         92        60       FIXPVA
         93        60       FIXPVA
         94        60       FIXPVA
         95        60       FIXPVA
         96        60       FIXPVA
         97        60       FIXPVA
         98        60       FIXPVA
         99        60       FIXPVA
        100        60       FIXPVA
        101        60       FIXPVA
        102        60       FIXPVA
        103        60       FIXPVA
        104        60       FIXPVA
        105        60       FIXPVA
        106        60       FIXPVA
        107        60       FIXPVA
        108        60       FIXPVA
        109        60       FIXPVA
        110        60       FIXPVA
        111        60       FIXPVA
        112        60       FIXPVA
        113        60       FIXPVA
        114        60       FIXPVA
        115        60       FIXPVA
        116        60       FIXPVA
        117        60       FIXPVA
        118        60       FIXPVA
        119        60       FIXPVA
        120        60       FIXPVA
        121        60       FIXPVA
        122        60       FIXPVA
        123        60       FIXPVA
        124        60       FIXPVA
        125        60       FIXPVA
        126        60       FIXPVA
        127        60       FIXPVA
        128        60       FIXPVA
        129        60       FIXPVA
        130        60       FIXPVA
        131        60       FIXPVA
        132        60       FIXPVA
        133        60       FIXPVA
        134        60       FIXPVA
        135        60       FIXPVA
        136        60       FIXPVA
        137        60       FIXPVA
        138        60       FIXPVA
        139        60       FIXPVA
        140        60       FIXPVA
        141        60       FIXPVA
        142        60       FIXPVA
        143        60       FIXPVA
        144        60       FIXPVA
        145        60       FIXPVA
        146        60       FIXPVA
        147        60       FIXPVA
        148        60       FIXPVA
        149        60       FIXPVA
        150        60       FIXPVA
        151        60       FIXPVA
        152        60       FIXPVA
        153        60       FIXPVA
        154        60       FIXPVA
        155        60       FIXPVA
        156        60       FIXPVA
        157        60       FIXPVA
        158        60       FIXPVA
        159        60       FIXPVA
        160        60       FIXPVA
        161        60       FIXPVA
        162        60       FIXPVA
        163        60       FIXPVA
        164        60       FIXPVA
        165        60       FIXPVA
        166        60       FIXPVA
        167        60       FIXPVA
        168        60       FIXPVA
        169        60       FIXPVA
        170        60       FIXPVA
        171        60       FIXPVA
        172        60       FIXPVA
        173        60       FIXPVA
        174        60       FIXPVA
        175        60       FIXPVA
        176        60       FIXPVA
        177        60       FIXPVA
        178        60       FIXPVA
        179        60       FIXPVA
        180        60       FIXPVA
        181        60       FIXPVA
        182        60       FIXPVA
        183        60       FIXPVA
        184        60       FIXPVA
        185        60       FIXPVA
        186        60       FIXPVA
        187        60       FIXPVA
        188        60       FIXPVA
        189        60       FIXPVA
        190        60       FIXPVA
        191        60       FIXPVA
        192        60       FIXPVA
        193        60       FIXPVA
        194        60       FIXPVA
        195        60       FIXPVA
        196        60       FIXPVA
        197        60       FIXPVA
        198        60       FIXPVA
        199        60       FIXPVA
        200        60       FIXPVA
        201        60       FIXPVA
        202        60       FIXPVA
        203        60       FIXPVA
        204        60       FIXPVA
        205        60       FIXPVA
        206        60       FIXPVA
        207        60       FIXPVA
        208        60       FIXPVA
        209        60       FIXPVA
        210        60       FIXPVA
        211        60       FIXPVA
        212        60       FIXPVA
        213        60       FIXPVA
        214        60       FIXPVA
        215        60       FIXPVA
        216        60       FIXPVA
        217        60       FIXPVA
        218        60       FIXPVA
        219        60       FIXPVA
        220        60       FIXPVA
        221        60       FIXPVA
        222        60       FIXPVA
        223        60       FIXPVA
        224        60       FIXPVA
        225        60       FIXPVA
        226        60       FIXPVA
        227        60       FIXPVA
        228        60       FIXPVA
        229        60       FIXPVA
        230        60       FIXPVA
        231        60       FIXPVA
        232        60       FIXPVA
        233        60       FIXPVA
        234        60       FIXPVA
        235        60       FIXPVA
        236        60       FIXPVA
        237        60       FIXPVA
        238        60       FIXPVA
        239        60       FIXPVA
        240        60       FIXPVA
        241        60       FIXPVA
        242        60       FIXPVA
        243        60       FIXPVA
        244        60       FIXPVA
        245        60       FIXPVA
        246        60       FIXPVA
        247        60       FIXPVA
        248        60       FIXPVA
        249        60       FIXPVA
        250        60       FIXPVA
        251        60       FIXPVA
        252        60       FIXPVA
        253        60       FIXPVA

     ------------------------------
      FIXPVA TESSELLATION FOR PCM
         PEIFENG SU AND HUI LI
     UNIVERSITY OF NEBRASKA-LINCOLN
     ------------------------------


 PCM DIMENSIONS: MXSP=   253, MXTS=     10120, MEMORY=        103986

     INPUT FOR CAVITY DEFINITION 
     ---------------------------
   ATOM               COORDINATES                RADIUS       EPS
      1      0.4700     -7.5410      7.0490      0.0100     78.3900
      2      0.1570     -6.8570      7.6710      1.5900     78.3900
      3      1.2570     -6.5590      8.5410      1.7700     78.3900
      4      2.1540     -6.3120      7.9290      0.0100     78.3900
      5      1.4940     -7.4600      9.1490      0.0100     78.3900
      6      0.9630     -5.3900      9.4850      1.7700     78.3900
      7      1.8170     -5.2030     10.1700      0.0100     78.3900
      8      0.7520     -4.1700      8.7140      1.5900     78.3900
      9     -0.2850     -3.4160      9.3240      1.7700     78.3900
     10      0.1300     -2.4040      9.5230      0.0100     78.3900
     11     -1.4500     -3.2820      8.4350      1.6800     78.3900
     12     -2.4450     -2.3490      8.5520      1.7700     78.3900
     13     -3.8740      0.3250     10.2180      1.6800     78.3900
     14     -3.2600      0.4570     10.9900      0.0100     78.3900
     15     -4.6840      0.9110     10.1320      0.0100     78.3900
     16     -2.5390     -1.4120      9.5120      1.6800     78.3900
     17     -3.6090     -0.6360      9.3560      1.7700     78.3900
     18     -4.4830     -0.7630      8.3080      1.6800     78.3900
     19     -5.2680     -0.1320      8.2660      0.0100     78.3900
     20     -4.3990     -1.7040      7.2900      1.7700     78.3900
     21     -5.2270     -1.7450      6.3730      1.5900     78.3900
     22     -3.2870     -2.5680      7.4760      1.7700     78.3900
     23     -2.8460     -3.6420      6.7130      1.6800     78.3900
     24     -1.7500     -4.0380      7.3200      1.7700     78.3900
     25     -1.1060     -4.8610      6.9970      0.0100     78.3900
     26     -0.6270     -4.0810     10.6360      1.7700     78.3900
     27     -1.6900     -3.9450     10.9180      0.0100     78.3900
     28      0.2080     -3.5760     11.6620      1.5900     78.3900
     29     -0.0450     -4.0520     12.4620      0.0100     78.3900
     30     -0.3140     -5.5390     10.3280      1.7700     78.3900
     31     -1.0960     -5.9720      9.6600      0.0100     78.3900
     32     -0.0460     -6.3610     11.4830      1.5900     78.3900
     33     -1.2300     -7.1370     12.1770      2.1000     78.3900
     34     -2.0110     -7.8560     11.1510      1.5900     78.3900
     35     -0.6460     -7.9500     13.2640      1.5900     78.3900
     36     -2.1230     -5.9930     12.7960      1.5900     78.3900
     37     -1.6500     -5.2510     13.9460      1.7700     78.3900
     38     -0.6490     -4.7980     13.7610      0.0100     78.3900
     39     -1.5470     -5.9250     14.8270      0.0100     78.3900
     40     -2.6240     -4.1230     14.3200      1.7700     78.3900
     41     -2.2290     -3.5320     15.1770      0.0100     78.3900
     42     -2.7890     -3.2180     13.1890      1.5900     78.3900
     43     -4.1270     -2.7380     13.1520      1.7700     78.3900
     44     -4.0470     -1.6290     13.2370      0.0100     78.3900
     45     -4.8370     -3.0730     11.8800      1.6800     78.3900
     46     -4.3680     -4.0810     11.0700      1.7700     78.3900
     47     -3.4960     -4.6240     11.4400      0.0100     78.3900
     48     -4.9560     -4.3670      9.9000      1.7700     78.3900
     49     -4.5880     -5.1460      9.2330      0.0100     78.3900
     50     -5.9810     -2.3700     11.5080      1.7700     78.3900
     51     -6.4130     -1.4780     12.2530      1.5900     78.3900
     52     -6.5950     -2.6500     10.3370      1.6800     78.3900
     53     -6.1130     -3.6160      9.5390      1.7700     78.3900
     54     -6.7340     -3.8780      8.3920      1.6800     78.3900
     55     -7.5960     -3.4080      8.1660      0.0100     78.3900
     56     -6.4080     -4.5760      7.7580      0.0100     78.3900
     57     -4.8310     -3.2710     14.3830      1.7700     78.3900
     58     -5.8920     -3.4780     14.1880      0.0100     78.3900
     59     -4.7120     -2.3580     15.4610      1.5900     78.3900
     60     -4.9650     -2.8270     16.2710      0.0100     78.3900
     61     -4.0590     -4.5590     14.6490      1.7700     78.3900
     62     -4.3290     -5.3370     13.8990      0.0100     78.3900
     63     -4.1510     -5.0250     16.0100      1.5900     78.3900
     64     -5.0060     -6.2960     16.3760      2.1000     78.3900
     65     -4.4200     -7.4690     15.6950      1.5900     78.3900
     66     -5.1090     -6.3710     17.8500      1.5900     78.3900
     67     -6.4330     -6.0270     15.7740      1.5900     78.3900
     68     -7.3290     -5.0360     16.3180      1.7700     78.3900
     69     -6.8070     -4.0690     16.5000      0.0100     78.3900
     70     -7.7410     -5.3880     17.2920      0.0100     78.3900
     71     -8.5130     -4.7700     15.3680      1.7700     78.3900
     72     -9.2040     -4.0230     15.8110      0.0100     78.3900
     73     -8.0340     -4.2000     14.1090      1.5900     78.3900
     74     -8.7810     -4.7290     13.0240      1.7700     78.3900
     75     -9.1650     -3.8490     12.4570      0.0100     78.3900
     76     -7.9540     -5.5880     12.1200      1.6800     78.3900
     77     -6.7750     -6.1560     12.5460      1.7700     78.3900
     78     -6.4790     -5.8990     13.5580      0.0100     78.3900
     79     -8.4170     -5.8120     10.8400      1.7700     78.3900
     80     -9.4680     -5.3390     10.4260      1.5900     78.3900
     81     -7.6030     -6.5970     10.0610      1.6800     78.3900
     82     -7.9340     -6.7650      9.1210      0.0100     78.3900
     83     -6.4040     -7.1810     10.4150      1.7700     78.3900
     84     -5.7720     -7.8500      9.5990      1.5900     78.3900
     85     -5.9980     -6.9160     11.7600      1.7700     78.3900
     86     -5.0500     -7.3230     12.1060      0.0100     78.3900
     87     -9.9390     -5.4950     13.6270      1.7700     78.3900
     88    -10.2440     -6.3480     12.9850      0.0100     78.3900
     89    -11.0400     -4.6260     13.8380      1.5900     78.3900
     90    -11.3390     -4.2890     12.9720      0.0100     78.3900
     91     -9.3360     -5.9830     14.9390      1.7700     78.3900
     92     -8.5970     -6.7920     14.7400      0.0100     78.3900
     93    -10.3020     -6.3120     15.9590      1.5900     78.3900
     94    -10.5980     -7.8190     16.3040      2.1000     78.3900
     95     -9.5370     -8.7090     15.7730      1.5900     78.3900
     96    -10.8450     -7.9020     17.7600      1.5900     78.3900
     97    -11.9510     -8.1600     15.5690      1.5900     78.3900
     98    -12.0890     -8.1210     14.1330      1.7700     78.3900
     99    -11.2840     -8.7010     13.6260      0.0100     78.3900
    100    -12.0430     -7.0690     13.7820      0.0100     78.3900
    101    -13.4470     -8.6580     13.6560      1.7700     78.3900
    102    -13.5240     -9.7560     13.8240      0.0100     78.3900
    103    -14.5260     -8.0250     14.4170      1.5900     78.3900
    104    -15.5680     -7.6250     13.5390      1.7700     78.3900
    105    -16.5070     -8.0450     13.9730      0.0100     78.3900
    106    -15.6930     -6.1360     13.4490      1.6800     78.3900
    107    -14.8010     -5.2970     14.0910      1.7700     78.3900
    108    -14.0000     -5.7860     14.6520      0.0100     78.3900
    109    -16.7700     -5.6160     12.7600      1.7700     78.3900
    110    -17.6100     -6.3170     12.2040      1.5900     78.3900
    111    -16.8450     -4.2500     12.7460      1.6800     78.3900
    112    -17.6720     -3.8730     12.3090      0.0100     78.3900
    113    -16.0350     -3.3590     13.4130      1.7700     78.3900
    114    -16.2950     -2.1590     13.3990      1.5900     78.3900
    115    -14.9340     -3.9610     14.0980      1.7700     78.3900
    116    -14.2540     -3.3200     14.6600      0.0100     78.3900
    117    -15.2940     -8.2810     12.1960      1.7700     78.3900
    118    -15.6640     -7.6810     11.3370      0.0100     78.3900
    119    -15.8700     -9.5780     12.1590      1.5900     78.3900
    120    -15.5010    -10.0340     11.3850      0.0100     78.3900
    121    -13.7750     -8.3380     12.1820      1.7700     78.3900
    122    -13.3800     -7.3140     11.9730      0.0100     78.3900
    123    -13.2500     -9.3560     11.2960      1.5900     78.3900
    124    -12.1490     -8.9960     10.2340      2.1000     78.3900
    125    -11.1810     -8.0800     10.8700      1.5900     78.3900
    126    -11.6080    -10.2530      9.6730      1.5900     78.3900
    127    -12.9580     -8.2730      9.0940      1.5900     78.3900
    128    -12.3130     -7.3540      8.1760      1.7700     78.3900
    129    -12.0320     -7.8960      7.2460      0.0100     78.3900
    130    -11.3850     -6.8990      8.6030      0.0100     78.3900
    131    -13.2520     -6.2070      7.7740      1.7700     78.3900
    132    -14.0290     -6.5690      7.0690      0.0100     78.3900
    133    -13.9560     -5.7060      8.9470      1.5900     78.3900
    134    -14.1350     -4.3130      8.8320      1.7700     78.3900
    135    -15.2350     -4.1430      8.8910      0.0100     78.3900
    136    -13.4830     -3.6120      9.9290      1.6800     78.3900
    137    -12.9940     -2.1530     11.4920      1.7700     78.3900
    138    -12.0700     -3.1870     11.6210      1.6800     78.3900
    139    -12.4000     -4.0260     10.6680      1.7700     78.3900
    140    -11.8960     -4.9750     10.4550      0.0100     78.3900
    141    -14.2390     -0.1700     11.8510      1.6800     78.3900
    142    -14.9900     -0.5430     10.8090      1.7700     78.3900
    143    -15.7960      0.1480     10.5370      0.0100     78.3900
    144    -14.8970     -1.6390     10.0470      1.6800     78.3900
    145    -13.8710     -2.4080     10.4520      1.7700     78.3900
    146    -13.2070     -0.9670     12.2270      1.7700     78.3900
    147    -12.4510     -0.5930     13.2770      1.6800     78.3900
    148    -11.6770     -1.1360     13.6030      0.0100     78.3900
    149    -12.6290      0.2890     13.7180      0.0100     78.3900
    150    -13.6310     -3.8870      7.4710      1.7700     78.3900
    151    -13.1860     -2.8720      7.4700      0.0100     78.3900
    152    -14.6920     -3.9440      6.5380      1.5900     78.3900
    153    -14.2910     -3.8790      5.6630      0.0100     78.3900
    154    -12.5840     -4.9510      7.1840      1.7700     78.3900
    155    -11.6670     -4.7600      7.7920      0.0100     78.3900
    156    -12.3190     -5.1360      5.7780      1.5900     78.3900
    157    -10.9850     -4.6160      5.1250      2.1000     78.3900
    158     -9.9190     -4.6280      6.1390      1.5900     78.3900
    159    -10.7320     -5.4250      3.9150      1.5900     78.3900
    160    -11.3080     -3.1380      4.6900      1.5900     78.3900
    161    -12.4910     -2.7750      3.9570      1.7700     78.3900
    162    -13.4020     -3.0890      4.5090      0.0100     78.3900
    163    -12.5000     -3.2750      2.9640      0.0100     78.3900
    164    -12.5480     -1.2470      3.7940      1.7700     78.3900
    165    -12.2670     -0.7340      4.7330      0.0100     78.3900
    166    -11.6890     -0.7910      2.7160      1.5900     78.3900
    167    -12.4410     -0.6930      1.5030      1.7700     78.3900
    168    -12.4210      0.3850      1.2260      0.0100     78.3900
    169    -11.8380     -1.5160      0.3960      1.6800     78.3900
    170    -10.6340     -2.1620      0.6230      1.7700     78.3900
    171    -10.2030     -2.0690      1.6230      0.0100     78.3900
    172    -10.0240     -2.8760     -0.3290      1.7700     78.3900
    173     -9.0750     -3.3800     -0.1550      0.0100     78.3900
    174    -12.3960     -1.5700     -0.8870      1.7700     78.3900
    175    -13.4260     -0.9270     -1.1400      1.5900     78.3900
    176    -11.8060     -2.3110     -1.8510      1.6800     78.3900
    177    -10.6520     -2.9520     -1.6010      1.7700     78.3900
    178    -10.0830     -3.6530     -2.5800      1.6800     78.3900
    179    -10.5460     -3.6970     -3.4680      0.0100     78.3900
    180     -9.2030     -4.1140     -2.4610      0.0100     78.3900
    181    -13.8770     -1.0870      1.8610      1.7700     78.3900
    182    -14.0280     -2.1770      1.6990      0.0100     78.3900
    183    -14.8740     -0.3530      1.1770      1.5900     78.3900
    184    -14.7780      0.5740      1.4420      0.0100     78.3900
    185    -13.9210     -0.7620      3.3500      1.7700     78.3900
    186    -14.6990     -1.4080      3.8250      0.0100     78.3900
    187    -14.0990      0.6440      3.6480      1.5900     78.3900
    188    -15.2370      1.1750      4.5800      2.1000     78.3900
    189    -16.1110      2.0330      3.7530      1.5900     78.3900
    190    -15.8730      0.0530      5.3060      1.5900     78.3900
    191    -14.4590      2.0860      5.6040      1.5900     78.3900
    192    -15.2130      2.9570      6.4890      1.7700     78.3900
    193    -16.2350      2.5680      6.7100      0.0100     78.3900
    194    -15.3310      3.9580      6.0150      0.0100     78.3900
    195    -14.5210      3.1340      7.8490      1.7700     78.3900
    196    -15.1010      3.8130      8.5060      0.0100     78.3900
    197    -14.4440      1.8490      8.5300      1.5900     78.3900
    198    -13.1820      1.7400      9.1780      1.7700     78.3900
    199    -13.3750      1.5070     10.2450      0.0100     78.3900
    200    -12.3640      0.6690      8.5940      1.6800     78.3900
    201    -11.2230      0.1200      9.1240      1.7700     78.3900
    202     -8.8520     -0.0760     11.6560      1.6800     78.3900
    203     -9.1360      0.6360     12.2930      0.0100     78.3900
    204     -8.0080     -0.5870     11.8380      0.0100     78.3900
    205    -10.6390      0.4700     10.2850      1.6800     78.3900
    206     -9.5560     -0.2630     10.5510      1.7700     78.3900
    207     -9.0880     -1.2330      9.7070      1.6800     78.3900
    208     -8.2650     -1.7530      9.9720      0.0100     78.3900
    209     -9.6540     -1.5940      8.4970      1.7700     78.3900
    210     -9.1340     -2.4700      7.8090      1.5900     78.3900
    211    -10.8170     -0.8340      8.2160      1.7700     78.3900
    212    -11.6850     -0.8910      7.1420      1.6800     78.3900
    213    -12.5970      0.0070      7.4110      1.7700     78.3900
    214    -13.4710      0.2280      6.7930      0.0100     78.3900
    215    -12.5060      3.0870      9.0970      1.7700     78.3900
    216    -11.4010      3.0090      9.0660      0.0100     78.3900
    217    -12.8930      3.8750     10.2030      1.5900     78.3900
    218    -12.5390      4.7600     10.0550      0.0100     78.3900
    219    -13.0710      3.6330      7.7920      1.7700     78.3900
    220    -12.6020      3.1000      6.9320      0.0100     78.3900
    221    -13.0420      5.0800      7.6640      1.5900     78.3900
    222    -11.8610      5.7070      6.8250      2.1000     78.3900
    223    -11.6240      4.8780      5.6240      1.5900     78.3900
    224    -12.1290      7.1440      6.6000      1.5900     78.3900
    225    -10.6340      5.5550      7.8000      1.5900     78.3900
    226    -10.6260      6.2260      9.0830      1.7700     78.3900
    227    -11.5330      5.9880      9.6840      0.0100     78.3900
    228    -10.6040      7.3290      8.9410      0.0100     78.3900
    229     -9.3880      5.8420      9.9050      1.7700     78.3900
    230     -9.3520      6.4070     10.8610      0.0100     78.3900
    231     -9.4260      4.4250     10.2350      1.5900     78.3900
    232     -8.1080      3.8900     10.1570      1.7700     78.3900
    233     -7.9050      3.4380     11.1570      0.0100     78.3900
    234     -7.9770      2.8400      9.1080      1.6800     78.3900
    235     -8.8900      2.7690      8.0830      1.7700     78.3900
    236     -9.7020      3.4930      8.1120      0.0100     78.3900
    237     -8.8010      1.8370      7.1290      1.7700     78.3900
    238     -9.5320      1.7550      6.3300      0.0100     78.3900
    239     -6.9040      1.9550      9.1310      1.7700     78.3900
    240     -6.0590      2.0560     10.0320      1.5900     78.3900
    241     -6.7920      1.0080      8.1720      1.6800     78.3900
    242     -7.7060      0.9310      7.1900      1.7700     78.3900
    243     -7.5750     -0.0100      6.2610      1.6800     78.3900
    244     -6.8180     -0.6640      6.3270      0.0100     78.3900
    245     -8.2380     -0.1270      5.5210      0.0100     78.3900
    246     -7.1530      5.0550      9.9290      1.7700     78.3900
    247     -6.2800      4.7660      9.3080      0.0100     78.3900
    248     -6.7130      5.5710     11.1760      1.5900     78.3900
    249     -6.2570      6.4190     11.0270      0.0100     78.3900
    250     -8.0510      6.0330      9.1800      1.7700     78.3900
    251     -8.1760      5.7120      8.1230      0.0100     78.3900
    252     -7.6270      7.4050      9.2570      1.5900     78.3900
    253     -6.7980      7.5210      8.7610      0.0100     78.3900

 CREATION OF A NEW CAVITY WITH THE ORIGINAL SPHERE
 SIZES FOR THE COMPUTATION OF THE CAVITATION ENERGY.

     INPUT FOR CAVITY DEFINITION 
     ---------------------------
   ATOM               COORDINATES                RADIUS       EPS
      1      0.4700     -7.5410      7.0490      0.0100     78.3900
      2      0.1570     -6.8570      7.6710      1.5900     78.3900
      3      1.2570     -6.5590      8.5410      1.7700     78.3900
      4      2.1540     -6.3120      7.9290      0.0100     78.3900
      5      1.4940     -7.4600      9.1490      0.0100     78.3900
      6      0.9630     -5.3900      9.4850      1.7700     78.3900
      7      1.8170     -5.2030     10.1700      0.0100     78.3900
      8      0.7520     -4.1700      8.7140      1.5900     78.3900
      9     -0.2850     -3.4160      9.3240      1.7700     78.3900
     10      0.1300     -2.4040      9.5230      0.0100     78.3900
     11     -1.4500     -3.2820      8.4350      1.6800     78.3900
     12     -2.4450     -2.3490      8.5520      1.7700     78.3900
     13     -3.8740      0.3250     10.2180      1.6800     78.3900
     14     -3.2600      0.4570     10.9900      0.0100     78.3900
     15     -4.6840      0.9110     10.1320      0.0100     78.3900
     16     -2.5390     -1.4120      9.5120      1.6800     78.3900
     17     -3.6090     -0.6360      9.3560      1.7700     78.3900
     18     -4.4830     -0.7630      8.3080      1.6800     78.3900
     19     -5.2680     -0.1320      8.2660      0.0100     78.3900
     20     -4.3990     -1.7040      7.2900      1.7700     78.3900
     21     -5.2270     -1.7450      6.3730      1.5900     78.3900
     22     -3.2870     -2.5680      7.4760      1.7700     78.3900
     23     -2.8460     -3.6420      6.7130      1.6800     78.3900
     24     -1.7500     -4.0380      7.3200      1.7700     78.3900
     25     -1.1060     -4.8610      6.9970      0.0100     78.3900
     26     -0.6270     -4.0810     10.6360      1.7700     78.3900
     27     -1.6900     -3.9450     10.9180      0.0100     78.3900
     28      0.2080     -3.5760     11.6620      1.5900     78.3900
     29     -0.0450     -4.0520     12.4620      0.0100     78.3900
     30     -0.3140     -5.5390     10.3280      1.7700     78.3900
     31     -1.0960     -5.9720      9.6600      0.0100     78.3900
     32     -0.0460     -6.3610     11.4830      1.5900     78.3900
     33     -1.2300     -7.1370     12.1770      2.1000     78.3900
     34     -2.0110     -7.8560     11.1510      1.5900     78.3900
     35     -0.6460     -7.9500     13.2640      1.5900     78.3900
     36     -2.1230     -5.9930     12.7960      1.5900     78.3900
     37     -1.6500     -5.2510     13.9460      1.7700     78.3900
     38     -0.6490     -4.7980     13.7610      0.0100     78.3900
     39     -1.5470     -5.9250     14.8270      0.0100     78.3900
     40     -2.6240     -4.1230     14.3200      1.7700     78.3900
     41     -2.2290     -3.5320     15.1770      0.0100     78.3900
     42     -2.7890     -3.2180     13.1890      1.5900     78.3900
     43     -4.1270     -2.7380     13.1520      1.7700     78.3900
     44     -4.0470     -1.6290     13.2370      0.0100     78.3900
     45     -4.8370     -3.0730     11.8800      1.6800     78.3900
     46     -4.3680     -4.0810     11.0700      1.7700     78.3900
     47     -3.4960     -4.6240     11.4400      0.0100     78.3900
     48     -4.9560     -4.3670      9.9000      1.7700     78.3900
     49     -4.5880     -5.1460      9.2330      0.0100     78.3900
     50     -5.9810     -2.3700     11.5080      1.7700     78.3900
     51     -6.4130     -1.4780     12.2530      1.5900     78.3900
     52     -6.5950     -2.6500     10.3370      1.6800     78.3900
     53     -6.1130     -3.6160      9.5390      1.7700     78.3900
     54     -6.7340     -3.8780      8.3920      1.6800     78.3900
     55     -7.5960     -3.4080      8.1660      0.0100     78.3900
     56     -6.4080     -4.5760      7.7580      0.0100     78.3900
     57     -4.8310     -3.2710     14.3830      1.7700     78.3900
     58     -5.8920     -3.4780     14.1880      0.0100     78.3900
     59     -4.7120     -2.3580     15.4610      1.5900     78.3900
     60     -4.9650     -2.8270     16.2710      0.0100     78.3900
     61     -4.0590     -4.5590     14.6490      1.7700     78.3900
     62     -4.3290     -5.3370     13.8990      0.0100     78.3900
     63     -4.1510     -5.0250     16.0100      1.5900     78.3900
     64     -5.0060     -6.2960     16.3760      2.1000     78.3900
     65     -4.4200     -7.4690     15.6950      1.5900     78.3900
     66     -5.1090     -6.3710     17.8500      1.5900     78.3900
     67     -6.4330     -6.0270     15.7740      1.5900     78.3900
     68     -7.3290     -5.0360     16.3180      1.7700     78.3900
     69     -6.8070     -4.0690     16.5000      0.0100     78.3900
     70     -7.7410     -5.3880     17.2920      0.0100     78.3900
     71     -8.5130     -4.7700     15.3680      1.7700     78.3900
     72     -9.2040     -4.0230     15.8110      0.0100     78.3900
     73     -8.0340     -4.2000     14.1090      1.5900     78.3900
     74     -8.7810     -4.7290     13.0240      1.7700     78.3900
     75     -9.1650     -3.8490     12.4570      0.0100     78.3900
     76     -7.9540     -5.5880     12.1200      1.6800     78.3900
     77     -6.7750     -6.1560     12.5460      1.7700     78.3900
     78     -6.4790     -5.8990     13.5580      0.0100     78.3900
     79     -8.4170     -5.8120     10.8400      1.7700     78.3900
     80     -9.4680     -5.3390     10.4260      1.5900     78.3900
     81     -7.6030     -6.5970     10.0610      1.6800     78.3900
     82     -7.9340     -6.7650      9.1210      0.0100     78.3900
     83     -6.4040     -7.1810     10.4150      1.7700     78.3900
     84     -5.7720     -7.8500      9.5990      1.5900     78.3900
     85     -5.9980     -6.9160     11.7600      1.7700     78.3900
     86     -5.0500     -7.3230     12.1060      0.0100     78.3900
     87     -9.9390     -5.4950     13.6270      1.7700     78.3900
     88    -10.2440     -6.3480     12.9850      0.0100     78.3900
     89    -11.0400     -4.6260     13.8380      1.5900     78.3900
     90    -11.3390     -4.2890     12.9720      0.0100     78.3900
     91     -9.3360     -5.9830     14.9390      1.7700     78.3900
     92     -8.5970     -6.7920     14.7400      0.0100     78.3900
     93    -10.3020     -6.3120     15.9590      1.5900     78.3900
     94    -10.5980     -7.8190     16.3040      2.1000     78.3900
     95     -9.5370     -8.7090     15.7730      1.5900     78.3900
     96    -10.8450     -7.9020     17.7600      1.5900     78.3900
     97    -11.9510     -8.1600     15.5690      1.5900     78.3900
     98    -12.0890     -8.1210     14.1330      1.7700     78.3900
     99    -11.2840     -8.7010     13.6260      0.0100     78.3900
    100    -12.0430     -7.0690     13.7820      0.0100     78.3900
    101    -13.4470     -8.6580     13.6560      1.7700     78.3900
    102    -13.5240     -9.7560     13.8240      0.0100     78.3900
    103    -14.5260     -8.0250     14.4170      1.5900     78.3900
    104    -15.5680     -7.6250     13.5390      1.7700     78.3900
    105    -16.5070     -8.0450     13.9730      0.0100     78.3900
    106    -15.6930     -6.1360     13.4490      1.6800     78.3900
    107    -14.8010     -5.2970     14.0910      1.7700     78.3900
    108    -14.0000     -5.7860     14.6520      0.0100     78.3900
    109    -16.7700     -5.6160     12.7600      1.7700     78.3900
    110    -17.6100     -6.3170     12.2040      1.5900     78.3900
    111    -16.8450     -4.2500     12.7460      1.6800     78.3900
    112    -17.6720     -3.8730     12.3090      0.0100     78.3900
    113    -16.0350     -3.3590     13.4130      1.7700     78.3900
    114    -16.2950     -2.1590     13.3990      1.5900     78.3900
    115    -14.9340     -3.9610     14.0980      1.7700     78.3900
    116    -14.2540     -3.3200     14.6600      0.0100     78.3900
    117    -15.2940     -8.2810     12.1960      1.7700     78.3900
    118    -15.6640     -7.6810     11.3370      0.0100     78.3900
    119    -15.8700     -9.5780     12.1590      1.5900     78.3900
    120    -15.5010    -10.0340     11.3850      0.0100     78.3900
    121    -13.7750     -8.3380     12.1820      1.7700     78.3900
    122    -13.3800     -7.3140     11.9730      0.0100     78.3900
    123    -13.2500     -9.3560     11.2960      1.5900     78.3900
    124    -12.1490     -8.9960     10.2340      2.1000     78.3900
    125    -11.1810     -8.0800     10.8700      1.5900     78.3900
    126    -11.6080    -10.2530      9.6730      1.5900     78.3900
    127    -12.9580     -8.2730      9.0940      1.5900     78.3900
    128    -12.3130     -7.3540      8.1760      1.7700     78.3900
    129    -12.0320     -7.8960      7.2460      0.0100     78.3900
    130    -11.3850     -6.8990      8.6030      0.0100     78.3900
    131    -13.2520     -6.2070      7.7740      1.7700     78.3900
    132    -14.0290     -6.5690      7.0690      0.0100     78.3900
    133    -13.9560     -5.7060      8.9470      1.5900     78.3900
    134    -14.1350     -4.3130      8.8320      1.7700     78.3900
    135    -15.2350     -4.1430      8.8910      0.0100     78.3900
    136    -13.4830     -3.6120      9.9290      1.6800     78.3900
    137    -12.9940     -2.1530     11.4920      1.7700     78.3900
    138    -12.0700     -3.1870     11.6210      1.6800     78.3900
    139    -12.4000     -4.0260     10.6680      1.7700     78.3900
    140    -11.8960     -4.9750     10.4550      0.0100     78.3900
    141    -14.2390     -0.1700     11.8510      1.6800     78.3900
    142    -14.9900     -0.5430     10.8090      1.7700     78.3900
    143    -15.7960      0.1480     10.5370      0.0100     78.3900
    144    -14.8970     -1.6390     10.0470      1.6800     78.3900
    145    -13.8710     -2.4080     10.4520      1.7700     78.3900
    146    -13.2070     -0.9670     12.2270      1.7700     78.3900
    147    -12.4510     -0.5930     13.2770      1.6800     78.3900
    148    -11.6770     -1.1360     13.6030      0.0100     78.3900
    149    -12.6290      0.2890     13.7180      0.0100     78.3900
    150    -13.6310     -3.8870      7.4710      1.7700     78.3900
    151    -13.1860     -2.8720      7.4700      0.0100     78.3900
    152    -14.6920     -3.9440      6.5380      1.5900     78.3900
    153    -14.2910     -3.8790      5.6630      0.0100     78.3900
    154    -12.5840     -4.9510      7.1840      1.7700     78.3900
    155    -11.6670     -4.7600      7.7920      0.0100     78.3900
    156    -12.3190     -5.1360      5.7780      1.5900     78.3900
    157    -10.9850     -4.6160      5.1250      2.1000     78.3900
    158     -9.9190     -4.6280      6.1390      1.5900     78.3900
    159    -10.7320     -5.4250      3.9150      1.5900     78.3900
    160    -11.3080     -3.1380      4.6900      1.5900     78.3900
    161    -12.4910     -2.7750      3.9570      1.7700     78.3900
    162    -13.4020     -3.0890      4.5090      0.0100     78.3900
    163    -12.5000     -3.2750      2.9640      0.0100     78.3900
    164    -12.5480     -1.2470      3.7940      1.7700     78.3900
    165    -12.2670     -0.7340      4.7330      0.0100     78.3900
    166    -11.6890     -0.7910      2.7160      1.5900     78.3900
    167    -12.4410     -0.6930      1.5030      1.7700     78.3900
    168    -12.4210      0.3850      1.2260      0.0100     78.3900
    169    -11.8380     -1.5160      0.3960      1.6800     78.3900
    170    -10.6340     -2.1620      0.6230      1.7700     78.3900
    171    -10.2030     -2.0690      1.6230      0.0100     78.3900
    172    -10.0240     -2.8760     -0.3290      1.7700     78.3900
    173     -9.0750     -3.3800     -0.1550      0.0100     78.3900
    174    -12.3960     -1.5700     -0.8870      1.7700     78.3900
    175    -13.4260     -0.9270     -1.1400      1.5900     78.3900
    176    -11.8060     -2.3110     -1.8510      1.6800     78.3900
    177    -10.6520     -2.9520     -1.6010      1.7700     78.3900
    178    -10.0830     -3.6530     -2.5800      1.6800     78.3900
    179    -10.5460     -3.6970     -3.4680      0.0100     78.3900
    180     -9.2030     -4.1140     -2.4610      0.0100     78.3900
    181    -13.8770     -1.0870      1.8610      1.7700     78.3900
    182    -14.0280     -2.1770      1.6990      0.0100     78.3900
    183    -14.8740     -0.3530      1.1770      1.5900     78.3900
    184    -14.7780      0.5740      1.4420      0.0100     78.3900
    185    -13.9210     -0.7620      3.3500      1.7700     78.3900
    186    -14.6990     -1.4080      3.8250      0.0100     78.3900
    187    -14.0990      0.6440      3.6480      1.5900     78.3900
    188    -15.2370      1.1750      4.5800      2.1000     78.3900
    189    -16.1110      2.0330      3.7530      1.5900     78.3900
    190    -15.8730      0.0530      5.3060      1.5900     78.3900
    191    -14.4590      2.0860      5.6040      1.5900     78.3900
    192    -15.2130      2.9570      6.4890      1.7700     78.3900
    193    -16.2350      2.5680      6.7100      0.0100     78.3900
    194    -15.3310      3.9580      6.0150      0.0100     78.3900
    195    -14.5210      3.1340      7.8490      1.7700     78.3900
    196    -15.1010      3.8130      8.5060      0.0100     78.3900
    197    -14.4440      1.8490      8.5300      1.5900     78.3900
    198    -13.1820      1.7400      9.1780      1.7700     78.3900
    199    -13.3750      1.5070     10.2450      0.0100     78.3900
    200    -12.3640      0.6690      8.5940      1.6800     78.3900
    201    -11.2230      0.1200      9.1240      1.7700     78.3900
    202     -8.8520     -0.0760     11.6560      1.6800     78.3900
    203     -9.1360      0.6360     12.2930      0.0100     78.3900
    204     -8.0080     -0.5870     11.8380      0.0100     78.3900
    205    -10.6390      0.4700     10.2850      1.6800     78.3900
    206     -9.5560     -0.2630     10.5510      1.7700     78.3900
    207     -9.0880     -1.2330      9.7070      1.6800     78.3900
    208     -8.2650     -1.7530      9.9720      0.0100     78.3900
    209     -9.6540     -1.5940      8.4970      1.7700     78.3900
    210     -9.1340     -2.4700      7.8090      1.5900     78.3900
    211    -10.8170     -0.8340      8.2160      1.7700     78.3900
    212    -11.6850     -0.8910      7.1420      1.6800     78.3900
    213    -12.5970      0.0070      7.4110      1.7700     78.3900
    214    -13.4710      0.2280      6.7930      0.0100     78.3900
    215    -12.5060      3.0870      9.0970      1.7700     78.3900
    216    -11.4010      3.0090      9.0660      0.0100     78.3900
    217    -12.8930      3.8750     10.2030      1.5900     78.3900
    218    -12.5390      4.7600     10.0550      0.0100     78.3900
[...]
 ...... END OF RHF CALCULATION ......
 CPU     0: STEP CPU TIME=    60.68 TOTAL CPU TIME=        907.8 (     15.1 MIN)
 TOTAL WALL CLOCK TIME=       1938.3 SECONDS, CPU UTILIZATION IS    46.83%
 DONE PCM POT.
 CPU     0: STEP CPU TIME=     0.33 TOTAL CPU TIME=        908.1 (     15.1 MIN)
 TOTAL WALL CLOCK TIME=       1939.3 SECONDS, CPU UTILIZATION IS    46.82%

 Iter=  3 iFrag=      7 EFMO= -1507.398434977, DD= 0.022232039, DE= 0.012756303


 RHF      monomer      5 corr= NONE       , L1=   371, L0=   348 ID=      3


 AO spaces for     5     0     0 n-mer: L1=   371, L0=   348

 DIRECT SCF CALCULATION, SCHWRZ=T   FDIFF=T,  DIRTHR=  0.00E+00 NITDIR=10

                                                                                   NONZERO     BLOCKS
 ITER EX DEM     TOTAL ENERGY        E CHANGE  DENSITY CHANGE     ORB. GRAD      INTEGRALS    SKIPPED
   1  0  0    -1391.4935717385 -1391.4935717385   0.021147062   0.000000000      812035082   15116748
          ---------------START SECOND ORDER SCF---------------
   2  1  0    -1391.4940888603    -0.0005171218   0.005280531   0.001483345      731854997   16423442
   3  2  0    -1391.4941372664    -0.0000484061   0.000897185   0.000497680      698537887   16760330
   4  3  0    -1391.4941002363     0.0000370300   0.000348638   0.000092760      653573396   17174753
   5  4  0    -1391.4940712722     0.0000289642   0.000124801   0.000048268      622176825   17433764
   6  5  0    -1391.4940669533     0.0000043189   0.000041105   0.000022688      589457514   17729875
   7  6  0    -1391.4940653607     0.0000015926   0.000011618   0.000009649      547257252   18092469
   8  7  0    -1391.4940657298    -0.0000003691   0.000007880   0.000003612      514298559   18382352
   9  8  0    -1391.4940658077    -0.0000000779   0.000001990   0.000001790      489725168   18594740
  10  9  0    -1391.4940657666     0.0000000411   0.000000810   0.000000420      452186731   18911345
  11 10  0    -1391.4940657160     0.0000000506   0.000000429   0.000000203      415023051   19217449
  12 11  0    -1391.4940657030     0.0000000129   0.000000142   0.000000057      388928591   19439629
  13 12  0    -1391.4940657061    -0.0000000030   0.000000062   0.000000035      346223687   19768666

          -----------------
          DENSITY CONVERGED
          -----------------
     TIME TO FORM FOCK OPERATORS=      22.8 SECONDS (       1.8 SEC/ITER)
     FOCK TIME ON FIRST ITERATION=       2.7, LAST ITERATION=       1.0
     TIME TO SOLVE SCF EQUATIONS=       0.4 SECONDS (       0.0 SEC/ITER)

 FINAL RHF ENERGY IS    -1391.4940657061 AFTER  13 ITERATIONS
 ...... END OF RHF CALCULATION ......
 CPU     0: STEP CPU TIME=    53.56 TOTAL CPU TIME=        961.6 (     16.0 MIN)
 TOTAL WALL CLOCK TIME=       2054.5 SECONDS, CPU UTILIZATION IS    46.81%
 DONE PCM POT.
 CPU     0: STEP CPU TIME=     0.31 TOTAL CPU TIME=        962.0 (     16.0 MIN)
 TOTAL WALL CLOCK TIME=       2055.4 SECONDS, CPU UTILIZATION IS    46.80%

 Iter=  3 iFrag=      5 EFMO= -1432.547838003, DD= 0.016931559, DE=-0.006418491


 RHF      monomer      6 corr= NONE       , L1=   341, L0=   320 ID=      4


 AO spaces for     6     0     0 n-mer: L1=   341, L0=   320

 DIRECT SCF CALCULATION, SCHWRZ=T   FDIFF=T,  DIRTHR=  0.00E+00 NITDIR=10

                                                                                   NONZERO     BLOCKS
 ITER EX DEM     TOTAL ENERGY        E CHANGE  DENSITY CHANGE     ORB. GRAD      INTEGRALS    SKIPPED
   1  0  0    -1333.5766583482 -1333.5766583482   0.029646011   0.000000000      619228232   10936271
          ---------------START SECOND ORDER SCF---------------
   2  1  0    -1333.5770658904    -0.0004075422   0.006988011   0.001359372      566146761   11865772
   3  2  0    -1333.5771771596    -0.0001112692   0.001297276   0.000737809      544829564   12112003
   4  3  0    -1333.5770474297     0.0001297299   0.000580530   0.000116672      514715773   12429526
   5  4  0    -1333.5769954606     0.0000519692   0.000138309   0.000115616      489857566   12649085
   6  5  0    -1333.5769707944     0.0000246662   0.000067150   0.000028021      469228259   12861987
   7  6  0    -1333.5769668244     0.0000039700   0.000031449   0.000013530      438320017   13144962
   8  7  0    -1333.5769680158    -0.0000011914   0.000008134   0.000003317      414236772   13361494
   9  8  0    -1333.5769687457    -0.0000007300   0.000003058   0.000001395      384765347   13632766
  10  9  0    -1333.5769688410    -0.0000000952   0.000001021   0.000000624      357884528   13874652
  11 10  0    -1333.5769687805     0.0000000605   0.000000442   0.000000257      322908883   14185231
  12 11  0    -1333.5769687576     0.0000000229   0.000000184   0.000000099      306115537   14332848
  13 12  0    -1333.5769687629    -0.0000000053   0.000000057   0.000000026      267264622   14676332

          -----------------
          DENSITY CONVERGED
          -----------------
     TIME TO FORM FOCK OPERATORS=      19.3 SECONDS (       1.5 SEC/ITER)
     FOCK TIME ON FIRST ITERATION=       2.1, LAST ITERATION=       0.9
     TIME TO SOLVE SCF EQUATIONS=       0.4 SECONDS (       0.0 SEC/ITER)

 FINAL RHF ENERGY IS    -1333.5769687629 AFTER  13 ITERATIONS
 ...... END OF RHF CALCULATION ......
 CPU     0: STEP CPU TIME=    32.20 TOTAL CPU TIME=        994.1 (     16.6 MIN)
 TOTAL WALL CLOCK TIME=       2121.5 SECONDS, CPU UTILIZATION IS    46.86%
 DONE PCM POT.
 CPU     0: STEP CPU TIME=     0.27 TOTAL CPU TIME=        994.4 (     16.6 MIN)
 TOTAL WALL CLOCK TIME=       2122.4 SECONDS, CPU UTILIZATION IS    46.85%

 Iter=  3 iFrag=      6 EFMO= -1360.653069135, DD= 0.024228393, DE= 0.011278586


 RHF      monomer      2 corr= NONE       , L1=   341, L0=   320 ID=      5


 AO spaces for     2     0     0 n-mer: L1=   341, L0=   320

 DIRECT SCF CALCULATION, SCHWRZ=T   FDIFF=T,  DIRTHR=  0.00E+00 NITDIR=10

                                                                                   NONZERO     BLOCKS
 ITER EX DEM     TOTAL ENERGY        E CHANGE  DENSITY CHANGE     ORB. GRAD      INTEGRALS    SKIPPED
   1  0  0    -1327.1464525534 -1327.1464525534   0.034081823   0.000000000      657740787   10636348
          ---------------START SECOND ORDER SCF---------------
   2  1  0    -1327.1477551027    -0.0013025493   0.008047986   0.001642512      604791681   11609970
   3  2  0    -1327.1482040121    -0.0004489094   0.001673727   0.000552310      584797642   11852853
   4  3  0    -1327.1481207071     0.0000833051   0.000675428   0.000094316      551142638   12185159
   5  4  0    -1327.1480940330     0.0000266741   0.000165789   0.000056395      515642995   12504283
   6  5  0    -1327.1480961942    -0.0000021613   0.000044985   0.000013138      490388747   12743226
   7  6  0    -1327.1480954897     0.0000007045   0.000013984   0.000010155      453796394   13074143
   8  7  0    -1327.1480953614     0.0000001283   0.000008132   0.000002595      419427688   13379213
   9  8  0    -1327.1480956066    -0.0000002452   0.000002852   0.000001028      392965577   13600995
  10  9  0    -1327.1480957081    -0.0000001014   0.000000887   0.000000210      365526036   13846695
  11 10  0    -1327.1480956875     0.0000000206   0.000000525   0.000000097      326589298   14170669
  12 11  0    -1327.1480956900    -0.0000000025   0.000000091   0.000000048      299524203   14399833
  13 12  0    -1327.1480956908    -0.0000000008   0.000000047   0.000000014      261229529   14735698

          -----------------
          DENSITY CONVERGED
          -----------------
     TIME TO FORM FOCK OPERATORS=      19.4 SECONDS (       1.5 SEC/ITER)
     FOCK TIME ON FIRST ITERATION=       2.5, LAST ITERATION=       0.9
     TIME TO SOLVE SCF EQUATIONS=       0.4 SECONDS (       0.0 SEC/ITER)

 FINAL RHF ENERGY IS    -1327.1480956908 AFTER  13 ITERATIONS
 ...... END OF RHF CALCULATION ......
 CPU     0: STEP CPU TIME=    38.95 TOTAL CPU TIME=       1033.4 (     17.2 MIN)
 TOTAL WALL CLOCK TIME=       2208.0 SECONDS, CPU UTILIZATION IS    46.80%
 DONE PCM POT.
 CPU     0: STEP CPU TIME=     0.32 TOTAL CPU TIME=       1033.7 (     17.2 MIN)
 TOTAL WALL CLOCK TIME=       2208.8 SECONDS, CPU UTILIZATION IS    46.80%

 Iter=  3 iFrag=      2 EFMO= -1360.645659728, DD= 0.029903642, DE= 0.024155934


 RHF      monomer      3 corr= NONE       , L1=   339, L0=   318 ID=      6


 AO spaces for     3     0     0 n-mer: L1=   339, L0=   318

 DIRECT SCF CALCULATION, SCHWRZ=T   FDIFF=T,  DIRTHR=  0.00E+00 NITDIR=10

                                                                                   NONZERO     BLOCKS
 ITER EX DEM     TOTAL ENERGY        E CHANGE  DENSITY CHANGE     ORB. GRAD      INTEGRALS    SKIPPED
   1  0  0    -1337.6678451975 -1337.6678451975   0.031764232   0.000000000      661243653    9578420
          ---------------START SECOND ORDER SCF---------------
   2  1  0    -1337.6692319990    -0.0013868015   0.008406217   0.001587909      598367358   10592928
   3  2  0    -1337.6695341685    -0.0003021694   0.001569391   0.000572495      578348156   10815262
   4  3  0    -1337.6694874576     0.0000467109   0.000529937   0.000132963      544156848   11146130
   5  4  0    -1337.6694662704     0.0000211872   0.000199266   0.000075733      512129838   11431759
   6  5  0    -1337.6694667884    -0.0000005180   0.000078010   0.000035442      488211178   11648426
   7  6  0    -1337.6694661423     0.0000006462   0.000028237   0.000007518      461010852   11899369
   8  7  0    -1337.6694658782     0.0000002640   0.000012093   0.000004926      432201024   12149420
   9  8  0    -1337.6694661606    -0.0000002824   0.000004958   0.000001087      407237566   12357438
  10  9  0    -1337.6694662578    -0.0000000972   0.000001388   0.000000333      376399909   12618936
  11 10  0    -1337.6694662216     0.0000000361   0.000000715   0.000000180      333793611   12965582
  12 11  0    -1337.6694662116     0.0000000101   0.000000132   0.000000050      308981684   13174472
  13 12  0    -1337.6694662090     0.0000000026   0.000000069   0.000000028      270919097   13504550

          -----------------
          DENSITY CONVERGED
          -----------------
     TIME TO FORM FOCK OPERATORS=      19.8 SECONDS (       1.5 SEC/ITER)
     FOCK TIME ON FIRST ITERATION=       2.2, LAST ITERATION=       1.0
     TIME TO SOLVE SCF EQUATIONS=       0.3 SECONDS (       0.0 SEC/ITER)

 FINAL RHF ENERGY IS    -1337.6694662090 AFTER  13 ITERATIONS
 ...... END OF RHF CALCULATION ......
 CPU     0: STEP CPU TIME=    42.67 TOTAL CPU TIME=       1076.4 (     17.9 MIN)
 TOTAL WALL CLOCK TIME=       2296.2 SECONDS, CPU UTILIZATION IS    46.88%
 DONE PCM POT.
 CPU     0: STEP CPU TIME=     0.30 TOTAL CPU TIME=       1076.7 (     17.9 MIN)
 TOTAL WALL CLOCK TIME=       2297.1 SECONDS, CPU UTILIZATION IS    46.87%

 Iter=  3 iFrag=      3 EFMO= -1380.492115300, DD= 0.024916481, DE= 0.017869653


 RHF      monomer      4 corr= NONE       , L1=   339, L0=   318 ID=      7


 AO spaces for     4     0     0 n-mer: L1=   339, L0=   318

 DIRECT SCF CALCULATION, SCHWRZ=T   FDIFF=T,  DIRTHR=  0.00E+00 NITDIR=10

                                                                                   NONZERO     BLOCKS
 ITER EX DEM     TOTAL ENERGY        E CHANGE  DENSITY CHANGE     ORB. GRAD      INTEGRALS    SKIPPED
   1  0  0    -1348.0869840873 -1348.0869840873   0.030463263   0.000000000      632885670    9653153
          ---------------START SECOND ORDER SCF---------------
   2  1  0    -1348.0878145943    -0.0008305070   0.007117173   0.001435654      579585853   10636062
   3  2  0    -1348.0880055083    -0.0001909140   0.001396395   0.000518779      555002278   10913298
   4  3  0    -1348.0879615865     0.0000439218   0.000462695   0.000087244      521126802   11249493
   5  4  0    -1348.0879328070     0.0000287795   0.000117168   0.000043246      489055037   11527045
   6  5  0    -1348.0879299857     0.0000028213   0.000046022   0.000012999      466084703   11748152
   7  6  0    -1348.0879281057     0.0000018801   0.000011501   0.000009659      432780208   12048961
   8  7  0    -1348.0879281418    -0.0000000362   0.000006471   0.000003045      402106589   12339380
   9  8  0    -1348.0879282865    -0.0000001447   0.000002240   0.000001260      382193353   12507499
  10  9  0    -1348.0879282815     0.0000000050   0.000000694   0.000000214      353904660   12760713
  11 10  0    -1348.0879282648     0.0000000167   0.000000339   0.000000089      320310634   13039034
  12 11  0    -1348.0879282726    -0.0000000078   0.000000123   0.000000041      296529257   13244641
  13 12  0    -1348.0879282745    -0.0000000019   0.000000039   0.000000011      256933294   13590217

          -----------------
          DENSITY CONVERGED
          -----------------
     TIME TO FORM FOCK OPERATORS=      19.1 SECONDS (       1.5 SEC/ITER)
     FOCK TIME ON FIRST ITERATION=       2.4, LAST ITERATION=       0.8
     TIME TO SOLVE SCF EQUATIONS=       0.3 SECONDS (       0.0 SEC/ITER)

 FINAL RHF ENERGY IS    -1348.0879282745 AFTER  13 ITERATIONS
 ...... END OF RHF CALCULATION ......
 CPU     0: STEP CPU TIME=    28.81 TOTAL CPU TIME=       1105.5 (     18.4 MIN)
 TOTAL WALL CLOCK TIME=       2356.2 SECONDS, CPU UTILIZATION IS    46.92%
 DONE PCM POT.
 CPU     0: STEP CPU TIME=     0.27 TOTAL CPU TIME=       1105.7 (     18.4 MIN)
 TOTAL WALL CLOCK TIME=       2357.0 SECONDS, CPU UTILIZATION IS    46.91%

 Iter=  3 iFrag=      4 EFMO= -1380.540923146, DD= 0.025049742, DE= 0.003293180


 RHF      monomer      8 corr= NONE       , L1=   264, L0=   248 ID=      8


 AO spaces for     8     0     0 n-mer: L1=   264, L0=   248

 DIRECT SCF CALCULATION, SCHWRZ=T   FDIFF=T,  DIRTHR=  0.00E+00 NITDIR=10

                                                                                   NONZERO     BLOCKS
 ITER EX DEM     TOTAL ENERGY        E CHANGE  DENSITY CHANGE     ORB. GRAD      INTEGRALS    SKIPPED
   1  0  0     -768.4310478585  -768.4310478585   0.035912460   0.000000000      330437532    3963532
          ---------------START SECOND ORDER SCF---------------
   2  1  0     -768.4320895147    -0.0010416562   0.008754332   0.001833882      307538449    4492510
   3  2  0     -768.4324439048    -0.0003543901   0.001834483   0.000424019      297164586    4650534
   4  3  0     -768.4323694380     0.0000744669   0.000325952   0.000088224      282830229    4837233
   5  4  0     -768.4323414519     0.0000279861   0.000144706   0.000036532      267875159    5007146
   6  5  0     -768.4323338703     0.0000075816   0.000037218   0.000018785      258720745    5121267
   7  6  0     -768.4323333699     0.0000005003   0.000015054   0.000005970      240543313    5348925
   8  7  0     -768.4323335502    -0.0000001802   0.000005198   0.000004194      228085563    5487273
   9  8  0     -768.4323334967     0.0000000534   0.000001647   0.000000894      216969105    5618663
  10  9  0     -768.4323334750     0.0000000217   0.000001060   0.000000469      202413156    5779000
  11 10  0     -768.4323334540     0.0000000210   0.000000306   0.000000105      185818359    5947009
  12 11  0     -768.4323334596    -0.0000000056   0.000000085   0.000000044      169644198    6121288
  13 12  0     -768.4323334595     0.0000000001   0.000000046   0.000000015      150162089    6331116

          -----------------
          DENSITY CONVERGED
          -----------------
     TIME TO FORM FOCK OPERATORS=      10.9 SECONDS (       0.8 SEC/ITER)
     FOCK TIME ON FIRST ITERATION=       1.2, LAST ITERATION=       0.5
     TIME TO SOLVE SCF EQUATIONS=       0.2 SECONDS (       0.0 SEC/ITER)

 FINAL RHF ENERGY IS     -768.4323334595 AFTER  13 ITERATIONS
 ...... END OF RHF CALCULATION ......
 CPU     0: STEP CPU TIME=    31.85 TOTAL CPU TIME=       1137.6 (     19.0 MIN)
 TOTAL WALL CLOCK TIME=       2414.7 SECONDS, CPU UTILIZATION IS    47.11%
 DONE PCM POT.
 CPU     0: STEP CPU TIME=     0.19 TOTAL CPU TIME=       1137.8 (     19.0 MIN)
 TOTAL WALL CLOCK TIME=       2415.3 SECONDS, CPU UTILIZATION IS    47.11%

 Iter=  3 iFrag=      8 EFMO=  -795.791012152, DD= 0.029233742, DE= 0.044342397

 CPU     0: STEP CPU TIME=     0.00 TOTAL CPU TIME=       1137.8 (     19.0 MIN)
 TOTAL WALL CLOCK TIME=       2415.3 SECONDS, CPU UTILIZATION IS    47.11%

  Monomer SCF synchronisation on iteration   3.1 took     0.0 s.
 CPU     0: STEP CPU TIME=     0.00 TOTAL CPU TIME=       1137.8 (     19.0 MIN)
 TOTAL WALL CLOCK TIME=       2415.3 SECONDS, CPU UTILIZATION IS    47.11%
 dmexch needs              2962926  words of memory.
 CPU     0: STEP CPU TIME=     0.01 TOTAL CPU TIME=       1137.8 (     19.0 MIN)
 TOTAL WALL CLOCK TIME=       2415.3 SECONDS, CPU UTILIZATION IS    47.11%

 Data exchange of    981406 words took     0.0 s.

 Calculating apparent surface charges...
     Using       42186 words of memory.
 ASC ITERATION=   1 CONVERGED TO  0.114927E-02
 ASC ITERATION=   2 CONVERGED TO  0.107203E-01
 ASC ITERATION=   3 CONVERGED TO  0.143920E-01
 ASC ITERATION=   4 CONVERGED TO  0.226836E-02
 ASC ITERATION=   5 CONVERGED TO  0.692680E-03
 ASC ITERATION=   6 CONVERGED TO  0.634063E-03
 ASC ITERATION=   7 CONVERGED TO  0.201235E-03
 ASC ITERATION=   8 CONVERGED TO  0.125522E-03
 ASC ITERATION=   9 CONVERGED TO  0.115940E-03
 ASC ITERATION=  10 CONVERGED TO  0.357250E-04
 ASC ITERATION=  11 CONVERGED TO  0.200111E-04
 ASC ITERATION=  12 CONVERGED TO  0.835607E-05
 ASC ITERATION=  13 CONVERGED TO  0.618483E-05
 ASC ITERATION=  14 CONVERGED TO  0.340896E-05
 ASC ITERATION=  15 CONVERGED TO  0.198066E-05
 ASC ITERATION=  16 CONVERGED TO  0.948644E-06
 ASC ITERATION=  17 CONVERGED TO  0.463697E-06
 ASC ITERATION=  18 CONVERGED TO  0.290848E-06
 ASC ITERATION=  19 CONVERGED TO  0.214861E-06
 ASC ITERATION=  20 CONVERGED TO  0.162427E-06
 ASC ITERATION=  21 CONVERGED TO  0.742009E-07
 ASC ITERATION=  22 CONVERGED TO  0.322267E-07
 ASC ITERATION=  23 CONVERGED TO  0.210385E-07
 ASC ITERATION=  24 CONVERGED TO  0.975561E-08
 ASC ITERATION=  25 CONVERGED TO  0.610988E-08
 ASC ITERATION=  26 CONVERGED TO  0.336578E-08
 ASC ITERATION=  27 CONVERGED TO  0.216687E-08
 ASC ITERATION=  28 CONVERGED TO  0.102081E-08
 ASC ITERATION=  29 CONVERGED TO  0.431979E-09
 ASC ITERATION=  30 CONVERGED TO  0.212914E-09
 ASC ITERATION=  31 CONVERGED TO  0.123138E-09
 ASC ITERATION=  32 CONVERGED TO  0.622828E-10

 THE ASC EQUATIONS FOR PHASE=1 CONVERGED IN  32 ITERATIONS.

 PCM ASC=      6.8598421116 normalised to=      6.9107028958
 Nuclear factor=   1.0032349615, electronic factor=   1.0032576167

 CPU     0: STEP CPU TIME=     0.12 TOTAL CPU TIME=       1137.9 (     19.0 MIN)
 TOTAL WALL CLOCK TIME=       2415.7 SECONDS, CPU UTILIZATION IS    47.11%


 ------------------------------------------------------------------------------
 FMO iter  3.1,      0 fragment(s) converged, maxD 0.029903642 maxE 0.044342397
 ------------------------------------------------------------------------------

 RHF      monomer      1 corr= NONE       , L1=   403, L0=   378 ID=      1


 AO spaces for     1     0     0 n-mer: L1=   403, L0=   378

 DIRECT SCF CALCULATION, SCHWRZ=T   FDIFF=T,  DIRTHR=  0.00E+00 NITDIR=10

                                                                                   NONZERO     BLOCKS
 ITER EX DEM     TOTAL ENERGY        E CHANGE  DENSITY CHANGE     ORB. GRAD      INTEGRALS    SKIPPED
   1  0  0    -1549.2027189202 -1549.2027189202   0.006516678   0.000000000     1052570073   21843833
          ---------------START SECOND ORDER SCF---------------
   2  1  0    -1549.2024037420     0.0003151782   0.001045437   0.000332132      890808794   24101841
   3  2  0    -1549.2024842464    -0.0000805044   0.000652972   0.000181964      852626708   24444828
   4  3  0    -1549.2024184074     0.0000658391   0.000142368   0.000054168      797724073   24916063
   5  4  0    -1549.2024220127    -0.0000036053   0.000044122   0.000026360      747375249   25363270
