‘4A4T_1_fmo_input.inp’ -> ‘/scratch/hazwong/824126/./4A4T_1_fmo_input.inp’
‘rungms’ -> ‘/scratch/hazwong/824126/./rungms’
‘gms-files.csh’ -> ‘/scratch/hazwong/824126/./gms-files.csh’
----- GAMESS execution script 'rungms' -----
This job is running on host gollum088.lsa.umich.edu
under operating system Linux at Sat Dec 7 00:04:57 EST 2019
Available scratch disk space (Kbyte units) at beginning of the job is
Filesystem     1K-blocks  Used Available Use% Mounted on
/dev/sda4      426933580 33424 426900156   1% /scratch
GAMESS temporary binary files will be written to /scratch/hazwong/824126/4A4T_1/usrc
GAMESS supplementary output files will be written to /scratch/hazwong/824126/4A4T_1/src
Copying input file 4A4T_1_fmo_input.inp to your run's scratch directory...
cp 4A4T_1_fmo_input.inp /scratch/hazwong/824126/4A4T_1/usrc/4A4T_1_fmo_input.F05
unset echo
This is a GDDI run, keeping various output files on local disks
setenv OUTPUT /scratch/hazwong/824126/4A4T_1/usrc/4A4T_1_fmo_input.F06
setenv PUNCH /scratch/hazwong/824126/4A4T_1/usrc/4A4T_1_fmo_input.F07
unset echo
 
Assuming a single but multicore node.
 
/export/apps/CentOS7/gamess/src/build//ddikick.x /export/apps/CentOS7/gamess/src/build//gamess.R3.x 4A4T_1_fmo_input -ddi 1 16 gollum088.lsa.umich.edu:cpus=16 -scr /scratch/hazwong/824126/4A4T_1/usrc

 Distributed Data Interface kickoff program.
 Initiating 16 compute processes on 1 nodes to run the following command:
 /export/apps/CentOS7/gamess/src/build//gamess.R3.x 4A4T_1_fmo_input 

          ******************************************************
          *         GAMESS VERSION = 30 SEP 2018 (R3)         *
          *             FROM IOWA STATE UNIVERSITY             *
          * M.W.SCHMIDT, K.K.BALDRIDGE, J.A.BOATZ, S.T.ELBERT, *
          *   M.S.GORDON, J.H.JENSEN, S.KOSEKI, N.MATSUNAGA,   *
          *          K.A.NGUYEN, S.J.SU, T.L.WINDUS,           *
          *       TOGETHER WITH M.DUPUIS, J.A.MONTGOMERY       *
          *         J.COMPUT.CHEM.  14, 1347-1363(1993)        *
          **************** 64 BIT LINUX VERSION ****************

  SINCE 1993, STUDENTS AND POSTDOCS WORKING AT IOWA STATE UNIVERSITY
  AND ALSO IN THEIR VARIOUS JOBS AFTER LEAVING ISU HAVE MADE IMPORTANT
  CONTRIBUTIONS TO THE CODE:
     IVANA ADAMOVIC, CHRISTINE AIKENS, YURI ALEXEEV, POOJA ARORA,
     ANDREY ASADCHEV, ROB BELL, PRADIPTA BANDYOPADHYAY, JONATHAN BENTZ,
     BRETT BODE, KURT BRORSEN, CALEB CARLIN, GALINA CHABAN, WEI CHEN,
     CHEOL HO CHOI, PAUL DAY, ALBERT DEFUSCO, NUWAN DESILVA, TIM DUDLEY,
     DMITRI FEDOROV, ALEX FINDLATER, GRAHAM FLETCHER, MARK FREITAG,
     KURT GLAESEMANN, ANASTASIA GUNINA,
     DAN KEMP, GRANT MERRILL, NORIYUKI MINEZAWA, JONATHAN MULLIN,
     TAKESHI NAGATA, SEAN NEDD, HEATHER NETZLOFF, BOSILJKA NJEGIC, RYAN OLSON,
     MIKE PAK, BUU PHAM,
     SPENCER PRUITT, LUKE ROSKOP, JIM SHOEMAKER, LYUDMILA SLIPCHENKO,
     TONY SMITH, SAROM SOK LEANG, JIE SONG, TETSUYA TAKETSUGU, SIMON WEBB,
     PENG XU, SOOHAENG YOO, FEDERICO ZAHARIEV

  ADDITIONAL CODE HAS BEEN PROVIDED BY COLLABORATORS IN OTHER GROUPS:
     IOWA STATE UNIVERSITY:
          JOE IVANIC, AARON WEST, LAIMUTIS BYTAUTAS, KLAUS RUEDENBERG
     UNIVERSITY OF TOKYO: KIMIHIKO HIRAO, TAKAHITO NAKAJIMA,
          TAKAO TSUNEDA, MUNEAKI KAMIYA, SUSUMU YANAGISAWA,
          KIYOSHI YAGI, MAHITO CHIBA, SEIKEN TOKURA, NAOAKI KAWAKAMI
     UNIVERSITY OF AARHUS: FRANK JENSEN
     UNIVERSITY OF IOWA: VISVALDAS KAIRYS, HUI LI
     NATIONAL INST. OF STANDARDS AND TECHNOLOGY: WALT STEVENS, DAVID GARMER
     UNIVERSITY OF PISA: BENEDETTA MENNUCCI, JACOPO TOMASI
     UNIVERSITY OF MEMPHIS: HENRY KURTZ, PRAKASHAN KORAMBATH
     UNIVERSITY OF ALBERTA: TOBY ZENG, MARIUSZ KLOBUKOWSKI
     UNIVERSITY OF NEW ENGLAND: MARK SPACKMAN
     MIE UNIVERSITY: HIROAKI UMEDA
     NAT. INST. OF ADVANCED INDUSTRIAL SCIENCE AND TECHNOLOGY: KAZUO KITAURA
     MICHIGAN STATE UNIVERSITY:
          KAROL KOWALSKI, MARTA WLOCH, JEFFREY GOUR, JESSE LUTZ,
          WEI LI, JUN SHEN, J. EMILIANO DEUSTUA, PIOTR PIECUCH
     UNIVERSITY OF MINNESOTA:
          YINAN SHU
     UNIVERSITY OF SILESIA: MONIKA MUSIAL, STANISLAW KUCHARSKI
     FACULTES UNIVERSITAIRES NOTRE-DAME DE LA PAIX:
          OLIVIER QUINET, BENOIT CHAMPAGNE
     UNIVERSITY OF CALIFORNIA - SANTA BARBARA: BERNARD KIRTMAN
     INSTITUTE FOR MOLECULAR SCIENCE:
          KAZUYA ISHIMURA, MICHIO KATOUDA, AND SHIGERU NAGASE
     UNIVERSITY OF NOTRE DAME: ANNA POMOGAEVA, DAN CHIPMAN
     KYUSHU UNIVERSITY:
          HARUYUKI NAKANO,
          FENG LONG GU, JACEK KORCHOWIEC, MARCIN MAKOWSKI, AND YURIKO AOKI,
          HIROTOSHI MORI AND EISAKU MIYOSHI
     PENNSYLVANIA STATE UNIVERSITY:
          TZVETELIN IORDANOV, CHET SWALINA, JONATHAN SKONE,
          SHARON HAMMES-SCHIFFER
     WASEDA UNIVERSITY:
          MASATO KOBAYASHI, TOMOKO AKAMA, TSUGUKI TOUMA,
          TAKESHI YOSHIKAWA, YASUHIRO IKABATA, JUNJI SEINO,
          YUYA NAKAJIMA, HIROMI NAKAI
     NANJING UNIVERSITY: SHUHUA LI
     UNIVERSITY OF NEBRASKA:
          PEIFENG SU, DEJUN SI, NANDUN THELLAMUREGE, YALI WANG, HUI LI
     UNIVERSITY OF ZURICH: ROBERTO PEVERATI, KIM BALDRIDGE
     N. COPERNICUS UNIVERSITY AND JACKSON STATE UNIVERSITY:
          MARIA BARYSZ
     UNIVERSITY OF COPENHAGEN: Jimmy Kromann, CASPER STEINMANN
     TOKYO INSTITUTE OF TECHNOLOGY: HIROYA NAKATA
     NAGOYA UNIVERSITY: YOSHIO NISHIMOTO, STEPHAN IRLE
     MOSCOW STATE UNIVERSITY: VLADIMIR MIRONOV


 PARALLEL VERSION RUNNING ON       16 PROCESSORS IN        1 NODES.

 EXECUTION OF GAMESS BEGUN Sat Dec  7 00:04:57 2019

            ECHO OF THE FIRST FEW INPUT CARDS -
 INPUT CARD>!*** FMO 5.3 (Gamess) INPUT generated by Facio 22.1.1.32 ***                    
 INPUT CARD> $CONTRL RUNTYP=ENERGY NPRINT=-5 ISPHER=1 MAXIT=200 $END                        
 INPUT CARD> $SYSTEM MWORDS=63 MEMDDI=63 $END                                               
 INPUT CARD> $GDDI NGROUP=1 $END                                                            
 INPUT CARD> $SCF DIRSCF=.TRUE. NPUNCH=0 $END                                               
 INPUT CARD>!*** NumCPU : 2  MemPerNode : 512MB                                             
 INPUT CARD> $PCM SOLVNT=WATER IEF=-10 ICOMP=2 ICAV=1 IDISP=1 IFMO=-1 $END                  
 INPUT CARD> $PCMCAV RADII=SUAHF $END                                                       
 INPUT CARD> $TESCAV NTSALL=60 $END                                                         
 INPUT CARD> $FMOPRP                                                                        
 INPUT CARD>    NAODIR=200                                                                  
 INPUT CARD>    NGRFMO(1)=1, 1, 0, 0, 0,   0, 0, 0, 0, 0                                    
 INPUT CARD>    IPIEDA=1                                                                    
 INPUT CARD>    NPRINT=9                                                                    
 INPUT CARD> $END                                                                           
 INPUT CARD> $FMO                                                                           
 INPUT CARD>      SCFTYP(1)=RHF                                                             
 INPUT CARD>      MODGRD=10                                                                 
 INPUT CARD>      MODMUL=0                                                                  
 INPUT CARD>      MAXCAO=5                                                                  
 INPUT CARD>      MAXBND=10                                                                 
 INPUT CARD>      NLAYER=1                                                                  
 INPUT CARD>      MPLEVL(1)=2                                                               
 INPUT CARD>      NFRAG=8                                                                   
 INPUT CARD>      ICHARG(1)=-1, -1, -1, -1, -1, -1, -1, 0                                   
 INPUT CARD>      FRGNAM(1)=F1, F2, F3, F4, F5, F6, F7, F8                                  
 INPUT CARD>      indat(1)=0                                                                
 INPUT CARD>               1   -36   0                                                      
 INPUT CARD>               37   -67   0                                                     
 INPUT CARD>               68   -97   0                                                     
 INPUT CARD>               98   -127   0                                                    
 INPUT CARD>               128   -160   0                                                   
 INPUT CARD>               161   -191   0                                                   
 INPUT CARD>               192   -225   0                                                   
 INPUT CARD>               226   -253   0                                                   
 INPUT CARD> $END                                                                           
 INPUT CARD>                                                                                
 INPUT CARD> $FMOBND                                                                        
 INPUT CARD>   -37   36       6-31G*    MINI                                                
 INPUT CARD>   -68   67       6-31G*    MINI                                                
 INPUT CARD>   -98   97       6-31G*    MINI                                                
 INPUT CARD>   -128   127       6-31G*    MINI                                              
 INPUT CARD>   -161   160       6-31G*    MINI                                              
 INPUT CARD>   -192   191       6-31G*    MINI                                              
 INPUT CARD>   -226   225       6-31G*    MINI                                              
 INPUT CARD> $END                                                                           
 INPUT CARD> $FMOHYB                                                                        
 INPUT CARD> 6-31G*      15   5                                                             
 INPUT CARD>   1 0  -0.065034   0.288264   0.000000   0.000000   0.604412                   
 INPUT CARD>         0.290129   0.000000   0.000000   0.319045  -0.017106                   


 -------------------------------------------------------------
 GROUP DDI, PROGRAMMED BY: RYAN M. OLSON AND DMITRI G. FEDOROV
        FEDOROV ET AL., J. COMPUT. CHEM., 25 (2004) 872.
 -------------------------------------------------------------

 -------------------------------------------------------
 GDDI: INITIALIZATION COMPLETED FOR GROUP     1 OF     1
 WITH    16 PROCESSES BALTYP=DLB   global rank=        0
 -------------------------------------------------------

   63000000 WORDS OF MEMORY AVAILABLE


     RUN TITLE
     ---------
  FMO calculation                                                                

 THE POINT GROUP OF THE MOLECULE IS C1      
 THE ORDER OF THE PRINCIPAL AXIS IS     0

 ATOM   ATOMIC CHARGE
 H.1-1       1.0
 O.1-1       8.0
 C.1-1       6.0
 N.1-1       7.0
 P.1-1      15.0

     ATOMIC BASIS SET LIBRARY
     ----------------
 THE CONTRACTED PRIMITIVE FUNCTIONS HAVE BEEN UNNORMALIZED
 THE CONTRACTED BASIS FUNCTIONS ARE NOW NORMALIZED TO UNITY

  SHELL TYPE  PRIMITIVE        EXPONENT          CONTRACTION COEFFICIENT(S)

 H.1-1     

      1   S       1            18.7311370    0.033494604338
      1   S       2             2.8253944    0.234726953484
      1   S       3             0.6401217    0.813757326146

      2   S       4             0.1612778    1.000000000000

 O.1-1     

      3   S       5          5484.6716600    0.001831074430
      3   S       6           825.2349460    0.013950172200
      3   S       7           188.0469580    0.068445078098
      3   S       8            52.9645000    0.232714335992
      3   S       9            16.8975704    0.470192897984
      3   S      10             5.7996353    0.358520852987

      4   L      11            15.5396162   -0.110777549525    0.070874268231
      4   L      12             3.5999336   -0.148026262701    0.339752839147
      4   L      13             1.0137618    1.130767015354    0.727158577316

      5   L      14             0.2700058    1.000000000000    1.000000000000

      6   D      15             0.8000000    1.000000000000

 C.1-1     

      7   S      16          3047.5248800    0.001834737132
      7   S      17           457.3695180    0.014037322813
      7   S      18           103.9486850    0.068842622264
      7   S      19            29.2101553    0.232184443216
      7   S      20             9.2866630    0.467941348435
      7   S      21             3.1639270    0.362311985337

      8   L      22             7.8682723   -0.119332419775    0.068999066591
      8   L      23             1.8812885   -0.160854151696    0.316423960957
      8   L      24             0.5442493    1.143456437840    0.744308290898

      9   L      25             0.1687145    1.000000000000    1.000000000000

     10   D      26             0.8000000    1.000000000000

 N.1-1     

     11   S      27          4173.5114600    0.001834772160
     11   S      28           627.4579110    0.013994627002
     11   S      29           142.9020930    0.068586551812
     11   S      30            40.2343293    0.232240873040
     11   S      31            12.8202129    0.469069948082
     11   S      32             4.3904370    0.360455199063

     12   L      33            11.6263619   -0.114961181702    0.067579743878
     12   L      34             2.7162798   -0.169117478561    0.323907295893
     12   L      35             0.7722184    1.145851947027    0.740895139755

     13   L      36             0.2120315    1.000000000000    1.000000000000

     14   D      37             0.8000000    1.000000000000

 P.1-1     

     15   S      38         19413.3000000    0.001851598923
     15   S      39          2909.4200000    0.014206191735
     15   S      40           661.3640000    0.069999459277
     15   S      41           185.7590000    0.240078860331
     15   S      42            59.1943000    0.484761717984
     15   S      43            20.0310000    0.335199804993

     16   L      44           339.4780000   -0.002782170105    0.004564616191
     16   L      45            81.0101000   -0.036049901354    0.033693571881
     16   L      46            25.8780000   -0.116631004382    0.139754883368
     16   L      47             9.4522100    0.096832803638    0.339361716786
     16   L      48             3.6656600    0.614418023082    0.450920623685
     16   L      49             1.4674600    0.403798015170    0.238585800889

     17   L      50             2.1562300   -0.252924113863   -0.017765312733
     17   L      51             0.7489970    0.032851844678    0.274058196433
     17   L      52             0.2831450    1.081254761783    0.785421562957

     18   L      53             0.0998317    1.000000000000    1.000000000000

     19   D      54             0.5500000    1.000000000000

 TOTAL NUMBER OF BASIS SET SHELLS             =   19
 NUMBER OF CARTESIAN GAUSSIAN BASIS FUNCTIONS =   66

     $CONTRL OPTIONS
     ---------------
 SCFTYP=RHF          RUNTYP=ENERGY       EXETYP=RUN     
 MPLEVL=       0     CITYP =NONE         CCTYP =NONE         VBTYP =NONE    
 DFTTYP=NONE         TDDFT =NONE    
 MULT  =       1     ICHARG=       0     NZVAR =       0     COORD =UNIQUE  
 PP    =NONE         RELWFN=NONE         LOCAL =NONE         NUMGRD=       F
 ISPHER=       1     NOSYM =       0     MAXIT =     200     UNITS =ANGS    
 PLTORB=       F     MOLPLT=       F     AIMPAC=       F     FRIEND=        
 NPRINT=      -5     IREST =       0     GEOM  =INPUT   
 NORMF =       0     NORMP =       0     ITOL  =      24     ICUT  =      12
 INTTYP=BEST         GRDTYP=BEST         QMTTOL= 1.0E-06

     $SYSTEM OPTIONS
     ---------------
  REPLICATED MEMORY=    63000000 WORDS (ON EVERY NODE).
 DISTRIBUTED MEMDDI=          63 MILLION WORDS IN AGGREGATE,
 MEMDDI DISTRIBUTED OVER  16 PROCESSORS IS     3937500 WORDS/PROCESSOR.
 TOTAL MEMORY REQUESTED ON EACH PROCESSOR=    66937500 WORDS.
 TIMLIM=      525600.00 MINUTES, OR     365.0 DAYS.
 PARALL= T  BALTYP=  DLB     KDIAG=    0  COREFL= F
 MXSEQ2=     300 MXSEQ3=     150  mem10=         0

 ** LOOKING UP INTERNALLY STORED DATA FOR SOLVENT=WATER    **
 OPTICAL AND PHYSICAL CONSTANTS:
 EPS= 78.390; EPSINF=  1.776; RSOLV=  1.385 A; VMOL=  18.070 ML/MOL;
 TCE= .25700E-03 1/K; STEN= 71.810 DYN/CM;  DSTEN=  0.6500; CMF=  1.2770


     -----------------------------------
     INPUT FOR PCM SOLVATION CALCULATION 
     -----------------------------------
     IEF   =     -10
     ICOMP =       2     IFIELD=       0     ICAV  =       1
     IDISP =       1     IREP  =       0     IDP   =       0

     SOLVNT=WATER        EPS   = 78.3900     EPSINF=  1.7760
     VMOL  = 18.0700     TCE   =  0.00025700 STEN  = 71.8100
     DSTEN =  0.6500     CMF   =  1.2770     RSOLV =  1.3850

     NESFP =       0
     OMEGA = 40.0000     RET   =100.0000     FRO   =  0.7000

     TABS  =298.0000     IPRINT=       0

     --------------------------------
     INPUT FOR ITERATIVE C-PCM METHOD 
     --------------------------------
     IPCMIT  =         1     MXDIIS  =        50
     MXITR1  =       200     MXITR2  =       200
     THRES   = 0.100E-09     IMUL    =         3
     RCUT(1) =   20.0000     RCUT(2) =   50.0000

     IDIRCT  =         1
     IMGABI  =         0     RABI    =    4.0000
     IMGASC  =         0     RASC    =   20.0000
     THRSLS  = 0.500E-03     DENSLS  =    0.0100
     IEFPOL  =         1     REFPOL  =    0.0000

     INPUT FOR ISOTROPIC DIELECTRICS
     -------------------------------
     EPS=    78.39

          ----------------
          PROPERTIES INPUT
          ----------------

     MOMENTS            FIELD           POTENTIAL          DENSITY
 IEMOM =       1   IEFLD =       0   IEPOT =       0   IEDEN =       0
 WHERE =COMASS     WHERE =NUCLEI     WHERE =NUCLEI     WHERE =NUCLEI  
 OUTPUT=BOTH       OUTPUT=BOTH       OUTPUT=NONE       OUTPUT=BOTH    
 IEMINT=       0   IEFINT=       0                     IEDINT=       0
                                                       MORB  =       0
          EXTRAPOLATION IN EFFECT
          SOSCF IN EFFECT
 ORBITAL PRINTING OPTION: NPREO=     1 32767     2     1

     -------------------------------
     INTEGRAL TRANSFORMATION OPTIONS
     -------------------------------
     NWORD  =            0
     CUTOFF = 1.0E-10     MPTRAN =       0
     DIRTRF =       T     AOINTS =DUP     

          ----------------------
          INTEGRAL INPUT OPTIONS
          ----------------------
 NOPK  =       1 NORDER=       0 SCHWRZ=       T

 ..... DONE SETTING UP THE RUN .....
 CPU     0: STEP CPU TIME=     0.04 TOTAL CPU TIME=          0.0 (      0.0 MIN)
 TOTAL WALL CLOCK TIME=          0.1 SECONDS, CPU UTILIZATION IS    57.14%
 CPU     0: STEP CPU TIME=     0.00 TOTAL CPU TIME=          0.0 (      0.0 MIN)
 TOTAL WALL CLOCK TIME=          0.1 SECONDS, CPU UTILIZATION IS    57.14%

                    ----------------------
                    AO INTEGRAL TECHNOLOGY
                    ----------------------
     S,P,L SHELL ROTATED AXIS INTEGRALS, REPROGRAMMED BY
        KAZUYA ISHIMURA (IMS) AND JOSE SIERRA (SYNSTAR).
     S,P,D,L SHELL ROTATED AXIS INTEGRALS PROGRAMMED BY
        KAZUYA ISHIMURA (INSTITUTE FOR MOLECULAR SCIENCE).
     S,P,D,F,G SHELL TO TOTAL QUARTET ANGULAR MOMENTUM SUM 5,
        ERIC PROGRAM BY GRAHAM FLETCHER (ELORET AND NASA ADVANCED
        SUPERCOMPUTING DIVISION, AMES RESEARCH CENTER).
     S,P,D,F,G,L SHELL GENERAL RYS QUADRATURE PROGRAMMED BY
        MICHEL DUPUIS (PACIFIC NORTHWEST NATIONAL LABORATORY).
 Setting modorb=1 flag...
 Setting modorb=1 flag...

          -----------------------
          MP2 CONTROL INFORMATION
          -----------------------
          NACORE =        8  NBCORE =        8
          LMOMP2 =        F  AOINTS = DUP     
          METHOD =        2  NWORD  =               0
          MP2PRP =        F  OSPT   = NONE    
          CUTOFF = 1.00E-12  CPHFBS = BASISAO 
          CODE   = IMS     

          NUMBER OF CORE -A-  ORBITALS =     8
          NUMBER OF CORE -B-  ORBITALS =     8
          NUMBER OF OCC. -A-  ORBITALS =    18
          NUMBER OF OCC. -B-  ORBITALS =    18
          NUMBER OF MOLECULAR ORBITALS =    66
          NUMBER OF   BASIS  FUNCTIONS =    66

 CPU     0: STEP CPU TIME=     0.02 TOTAL CPU TIME=          0.1 (      0.0 MIN)
 TOTAL WALL CLOCK TIME=          0.1 SECONDS, CPU UTILIZATION IS    54.55%
 CPU     0: STEP CPU TIME=     0.00 TOTAL CPU TIME=          0.1 (      0.0 MIN)
 TOTAL WALL CLOCK TIME=          0.1 SECONDS, CPU UTILIZATION IS    54.55%

     INPUT FOR CAVITY DEFINITION 
     ---------------------------
   ATOM               COORDINATES                RADIUS       EPS
      1      1.5840     -8.9140      8.6920      0.0100     78.3900
      2      1.2870     -8.0560      9.0400      1.5900     78.3900
      3      2.1850     -7.7130     10.1060      1.7700     78.3900
      4      3.2240     -7.6710      9.7040      0.0100     78.3900
      5      2.1470     -8.5150     10.8780      0.0100     78.3900
      6      1.8510     -6.3720     10.7650      1.7700     78.3900
      7      2.5660     -6.1400     11.5850      0.0100     78.3900
      8      1.9410     -5.2970      9.7870      1.5900     78.3900
      9      0.9150     -4.3530     10.0360      1.7700     78.3900
     10      1.4150     -3.3670     10.1730      0.0100     78.3900
     11     -0.0180     -4.2640      8.9070      1.6800     78.3900
     12     -0.8860     -3.2340      8.6620      1.7700     78.3900
     13     -2.2730     -0.1910      9.5570      1.6800     78.3900
     14     -1.8190      0.0140     10.4220      0.0100     78.3900
     15     -2.9640      0.4450      9.2050      0.0100     78.3900
     16     -1.0410     -2.1330      9.4220      1.6800     78.3900
     17     -1.9510     -1.3010      8.9220      1.7700     78.3900
     18     -2.6070     -1.5260      7.7390      1.6800     78.3900
     19     -3.2690     -0.8350      7.4260      0.0100     78.3900
     20     -2.4420     -2.6330      6.9180      1.7700     78.3900
     21     -3.0710     -2.7520      5.8600      1.5900     78.3900
     22     -1.5200     -3.5590      7.4770      1.7700     78.3900
     23     -1.0760     -4.7860      6.9980      1.6800     78.3900
     24     -0.1770     -5.1680      7.8750      1.7700     78.3900
     25      0.4140     -6.0880      7.8220      0.0100     78.3900
     26      0.2250     -4.7560     11.3210      1.7700     78.3900
     27     -0.8500     -4.4850     11.3300      0.0100     78.3900
     28      0.8720     -4.1570     12.4260      1.5900     78.3900
     29      0.4320     -4.5000     13.2130      0.0100     78.3900
     30      0.4230     -6.2680     11.3130      1.7700     78.3900
     31     -0.2480     -6.7420     10.5580      0.0100     78.3900
     32      0.3550     -6.9110     12.6040      1.5900     78.3900
     33     -1.0260     -7.4440     13.1360      2.1000     78.3900
     34     -1.6490     -8.2810     12.0910      1.5900     78.3900
     35     -0.8110     -8.0720     14.4570      1.5900     78.3900
     36     -1.8750     -6.1370     13.3180      1.5900     78.3900
     37     -1.6220     -5.2720     14.4520      1.7700     78.3900
     38     -0.5620     -4.9210     14.4730      0.0100     78.3900
     39     -1.8030     -5.8180     15.4080      0.0100     78.3900
     40     -2.5570     -4.0560     14.4340      1.7700     78.3900
     41     -2.3300     -3.3720     15.2800      0.0100     78.3900
     42     -2.3720     -3.2930     13.2070      1.5900     78.3900
     43     -3.6270     -2.7670     12.7850      1.7700     78.3900
     44     -3.4890     -1.6600     12.7600      0.0100     78.3900
     45     -4.0310     -3.2290     11.4290      1.6800     78.3900
     46     -3.4990     -4.3890     10.9140      1.7700     78.3900
     47     -2.8050     -4.9220     11.5630      0.0100     78.3900
     48     -3.8070     -4.8110      9.6800      1.7700     78.3900
     49     -3.3740     -5.7090      9.2460      0.0100     78.3900
     50     -4.9490     -2.4960     10.6800      1.7700     78.3900
     51     -5.4290     -1.4520     11.1510      1.5900     78.3900
     52     -5.2850     -2.9200      9.4400      1.6800     78.3900
     53     -4.7330     -4.0330      8.9290      1.7700     78.3900
     54     -5.0680     -4.4070      7.6980      1.6800     78.3900
     55     -5.7450     -3.8670      7.1910      0.0100     78.3900
     56     -4.6560     -5.2010      7.2520      0.0100     78.3900
     57     -4.6500     -3.1130     13.8470      1.7700     78.3900
     58     -5.6550     -3.3100     13.4230      0.0100     78.3900
     59     -4.7210     -2.0730     14.8050      1.5900     78.3900
     60     -5.1880     -2.4280     15.5760      0.0100     78.3900
     61     -4.0590     -4.3800     14.4500      1.7700     78.3900
     62     -4.2040     -5.2450     13.7630      0.0100     78.3900
     63     -4.4990     -4.6490     15.7960      1.5900     78.3900
     64     -5.6520     -5.6860     16.0560      2.1000     78.3900
     65     -5.1870     -6.9990     15.5700      1.5900     78.3900
     66     -6.0380     -5.5980     17.4860      1.5900     78.3900
     67     -6.8450     -5.1890     15.1600      1.5900     78.3900
     68     -7.6570     -4.0560     15.5590      1.7700     78.3900
     69     -7.0270     -3.1460     15.6920      0.0100     78.3900
     70     -8.1870     -4.2670     16.5250      0.0100     78.3900
     71     -8.7210     -3.7160     14.5000      1.7700     78.3900
     72     -9.3370     -2.8450     14.8180      0.0100     78.3900
     73     -8.0800     -3.3490     13.2400      1.5900     78.3900
     74     -8.8620     -3.8210     12.1530      1.7700     78.3900
     75     -9.0990     -2.9130     11.5540      0.0100     78.3900
     76     -8.1190     -4.7980     11.3140      1.6800     78.3900
     77     -7.0850     -5.5320     11.8470      1.7700     78.3900
     78     -6.8780     -5.3450     12.8990      0.0100     78.3900
     79     -8.4580     -4.9170      9.9830      1.7700     78.3900
     80     -9.3440     -4.2450      9.4620      1.5900     78.3900
     81     -7.7090     -5.8230      9.2760      1.6800     78.3900
     82     -7.9760     -5.9490      8.3100      0.0100     78.3900
     83     -6.6690     -6.5990      9.7450      1.7700     78.3900
     84     -6.0580     -7.3450      8.9830      1.5900     78.3900
     85     -6.3650     -6.4060     11.1290      1.7700     78.3900
     86     -5.5350     -6.9590     11.5610      0.0100     78.3900
     87    -10.1450     -4.3900     12.7390      1.7700     78.3900
     88    -10.5510     -5.2450     12.1540      0.0100     78.3900
     89    -11.1100     -3.3530     12.8260      1.5900     78.3900
     90    -11.6730     -3.4050     12.0310      0.0100     78.3900
     91     -9.6660     -4.8530     14.1100      1.7700     78.3900
     92     -9.0240     -5.7580     13.9980      0.0100     78.3900
     93    -10.7110     -5.0050     15.0960      1.5900     78.3900
     94    -11.0660     -6.4320     15.6430      2.1000     78.3900
     95     -9.8220     -7.1510     16.0050      1.5900     78.3900
     96    -12.0770     -6.3400     16.7260      1.5900     78.3900
     97    -11.7310     -7.1580     14.4150      1.5900     78.3900
     98    -11.7530     -8.6040     14.3530      1.7700     78.3900
     99    -11.9270     -9.0620     15.3570      0.0100     78.3900
    100    -10.7680     -8.9700     13.9810      0.0100     78.3900
    101    -12.8550     -9.1230     13.4170      1.7700     78.3900
    102    -12.7880    -10.2230     13.2920      0.0100     78.3900
    103    -14.1560     -8.8500     14.0140      1.5900     78.3900
    104    -15.0620     -8.4160     13.0110      1.7700     78.3900
    105    -15.9370     -9.1040     13.0720      0.0100     78.3900
    106    -15.5130     -7.0100     13.2390      1.6800     78.3900
    107    -14.8420     -6.1780     14.1110      1.7700     78.3900
    108    -13.9820     -6.6150     14.6170      0.0100     78.3900
    109    -16.6380     -6.5690     12.5750      1.7700     78.3900
    110    -17.2660     -7.2790     11.7960      1.5900     78.3900
    111    -17.0080     -5.2780     12.8540      1.6800     78.3900
    112    -17.8620     -4.9670     12.4210      0.0100     78.3900
    113    -16.4140     -4.4100     13.7480      1.7700     78.3900
    114    -16.8870     -3.2920     13.9360      1.5900     78.3900
    115    -15.2470     -4.9320     14.3880      1.7700     78.3900
    116    -14.7280     -4.3140     15.1170      0.0100     78.3900
    117    -14.3760     -8.6080     11.6660      1.7700     78.3900
    118    -14.6730     -7.8240     10.9420      0.0100     78.3900
    119    -14.6700     -9.8890     11.1350      1.5900     78.3900
    120    -14.1090     -9.9970     10.3520      0.0100     78.3900
    121    -12.9010     -8.4660     12.0300      1.7700     78.3900
    122    -12.6540     -7.3890     12.1740      0.0100     78.3900
    123    -11.9770     -9.1350     11.1370      1.5900     78.3900
    124    -11.4620     -8.3870      9.8470      2.1000     78.3900
    125    -11.2070     -6.9710     10.1770      1.5900     78.3900
    126    -10.3490     -9.1720      9.2680      1.5900     78.3900
    127    -12.6660     -8.4860      8.8380      1.5900     78.3900
    128    -12.7590     -7.5970      7.6910      1.7700     78.3900
    129    -12.4970     -8.1530      6.7620      0.0100     78.3900
    130    -12.0580     -6.7300      7.7640      0.0100     78.3900
    131    -14.1720     -7.0020      7.5250      1.7700     78.3900
    132    -14.8650     -7.7330      7.0580      0.0100     78.3900
    133    -14.7260     -6.6990      8.8370      1.5900     78.3900
    134    -15.4470     -5.4960      8.8030      1.7700     78.3900
    135    -16.4680     -5.7260      9.1890      0.0100     78.3900
    136    -14.8120     -4.4990      9.6710      1.6800     78.3900
    137    -14.4830     -2.7680     10.9830      1.7700     78.3900
    138    -13.2780     -3.4580     10.9440      1.6800     78.3900
    139    -13.5210     -4.4810     10.1590      1.7700     78.3900
    140    -12.7980     -5.2580      9.8910      0.0100     78.3900
    141    -16.1780     -1.2050     11.5100      1.6800     78.3900
    142    -16.9900     -1.9320     10.7360      1.7700     78.3900
    143    -18.0220     -1.5690     10.6470      0.0100     78.3900
    144    -16.7160     -3.0380     10.0340      1.6800     78.3900
    145    -15.4350     -3.4050     10.2080      1.7700     78.3900
    146    -14.8900     -1.6010     11.6610      1.7700     78.3900
    147    -14.0710     -0.8680     12.4400      1.6800     78.3900
    148    -13.1320     -1.1500     12.6400      0.0100     78.3900
    149    -14.4410     -0.0790     12.9320      0.0100     78.3900
    150    -15.5340     -5.0600      7.3560      1.7700     78.3900
    151    -15.5490     -3.9580      7.2510      0.0100     78.3900
    152    -16.6910     -5.6170      6.7580      1.5900     78.3900
    153    -16.6040     -5.5250      5.7970      0.0100     78.3900
    154    -14.2610     -5.6580      6.7710      1.7700     78.3900
    155    -13.3820     -5.0560      7.1060      0.0100     78.3900
    156    -14.3180     -5.8580      5.3340      1.5900     78.3900
    157    -13.2770     -5.1400      4.3920      2.1000     78.3900
    158    -11.9620     -5.1820      5.0580      1.5900     78.3900
    159    -13.3580     -5.7070      3.0280      1.5900     78.3900
    160    -13.7550     -3.6450      4.3120      1.5900     78.3900
    161    -15.0910     -3.2780      3.8990      1.7700     78.3900
    162    -15.8560     -4.0070      4.2550      0.0100     78.3900
    163    -15.1530     -3.2570      2.7900      0.0100     78.3900
    164    -15.4820     -1.8910      4.4430      1.7700     78.3900
    165    -16.4940     -1.5970      4.0830      0.0100     78.3900
    166    -15.5600     -1.9700      5.8950      1.5900     78.3900
    167    -15.0510     -0.7800      6.4740      1.7700     78.3900
    168    -15.8730     -0.3870      7.1210      0.0100     78.3900
    169    -13.8370     -1.0230      7.3190      1.6800     78.3900
    170    -13.0430     -2.1250      7.0920      1.7700     78.3900
    171    -13.3850     -2.7910      6.3100      0.0100     78.3900
    172    -11.9630     -2.3880      7.8380      1.7700     78.3900
    173    -11.3430     -3.2700      7.6820      0.0100     78.3900
    174    -13.4840     -0.1240      8.3230      1.7700     78.3900
    175    -14.1850      0.8820      8.5040      1.5900     78.3900
    176    -12.3990     -0.3740      9.0910      1.6800     78.3900
    177    -11.6550     -1.4720      8.8820      1.7700     78.3900
    178    -10.6150     -1.6900      9.6810      1.6800     78.3900
    179    -10.4480     -1.0420     10.4240      0.0100     78.3900
    180    -10.1100     -2.5550      9.6370      0.0100     78.3900
    181    -14.8080      0.2030      5.3430      1.7700     78.3900
    182    -13.9570      0.8650      5.5610      0.0100     78.3900
    183    -15.9590      0.9920      5.0940      1.5900     78.3900
    184    -15.7850      1.5110      4.2930      0.0100     78.3900
    185    -14.5000     -0.7350      4.1740      1.7700     78.3900
    186    -13.4730     -1.1560      4.2830      0.0100     78.3900
    187    -14.7390     -0.1720      2.8600      1.5900     78.3900
    188    -13.5700      0.6380      2.1700      2.1000     78.3900
    189    -12.3380     -0.1810      2.1930      1.5900     78.3900
    190    -14.0430      1.0970      0.8430      1.5900     78.3900
    191    -13.4010      1.9250      3.0550      1.5900     78.3900
    192    -12.1460      2.6550      3.0800      1.7700     78.3900
    193    -12.2410      3.5880      2.4820      0.0100     78.3900
    194    -11.2950      2.0740      2.6450      0.0100     78.3900
    195    -11.7530      3.0410      4.5170      1.7700     78.3900
    196    -12.3980      3.8680      4.8920      0.0100     78.3900
    197    -11.9450      1.9060      5.4040      1.5900     78.3900
    198    -10.8860      1.8180      6.3240      1.7700     78.3900
    199    -11.3350      1.7580      7.3430      0.0100     78.3900
    200    -10.0920      0.6090      6.0720      1.6800     78.3900
    201     -9.1210      0.1000      6.8860      1.7700     78.3900
    202     -7.2590      0.2630      9.8010      1.6800     78.3900
    203     -7.6210      1.0810     10.2410      0.0100     78.3900
    204     -6.5820     -0.2990     10.2840      0.0100     78.3900
    205     -8.7110      0.6290      8.0510      1.6800     78.3900
    206     -7.7730     -0.1060      8.6410      1.7700     78.3900
    207     -7.2870     -1.2700      8.1080      1.6800     78.3900
    208     -6.5720     -1.7670      8.6170      0.0100     78.3900
    209     -7.6840     -1.8360      6.9040      1.7700     78.3900
    210     -7.1870     -2.8880      6.4910      1.5900     78.3900
    211     -8.6820     -1.0520      6.2630      1.7700     78.3900
    212     -9.3560     -1.2560      5.0640      1.6800     78.3900
    213    -10.1930     -0.2500      4.9930      1.7700     78.3900
    214    -10.9100     -0.0760      4.1850      0.0100     78.3900
    215    -10.0830      3.0910      6.1900      1.7700     78.3900
    216     -9.0130      2.9470      6.4440      0.0100     78.3900
    217    -10.6440      4.0960      7.0170      1.5900     78.3900
    218    -10.1870      4.9200      6.8140      0.0100     78.3900
    219    -10.2760      3.4070      4.7090      1.7700     78.3900
    220     -9.6910      2.6900      4.0870      0.0100     78.3900
    221    -10.0640      4.7860      4.3410      1.5900     78.3900
    222     -8.6710      5.2260      3.7540      2.1000     78.3900
    223     -8.2600      4.2320      2.7400      1.5900     78.3900
    224     -8.7470      6.6400      3.3090      1.5900     78.3900
    225     -7.7070      5.1190      4.9920      1.5900     78.3900
    226     -7.8710      5.9940      6.1300      1.7700     78.3900
    227     -8.8990      5.9420      6.5520      0.0100     78.3900
    228     -7.6980      7.0530      5.8390      0.0100     78.3900
    229     -6.8670      5.6590      7.2370      1.7700     78.3900
    230     -6.9590      6.3710      8.0880      0.0100     78.3900
    231     -7.1380      4.3270      7.7700      1.5900     78.3900
    232     -5.8970      3.6760      8.0260      1.7700     78.3900
    233     -5.9380      3.3720      9.0970      0.0100     78.3900
    234     -5.6940      2.4600      7.1890      1.6800     78.3900
    235     -6.3920      2.2990      6.0160      1.7700     78.3900
    236     -7.1030      3.0860      5.7730      0.0100     78.3900
    237     -6.2340      1.2140      5.2470      1.7700     78.3900
    238     -6.8060      1.0620      4.3340      0.0100     78.3900
    239     -4.7650      1.4970      7.5740      1.7700     78.3900
    240     -4.1070      1.6700      8.6110      1.5900     78.3900
    241     -4.5980      0.3880      6.8150      1.6800     78.3900
    242     -5.3030      0.2300      5.6810      1.7700     78.3900
    243     -5.1350     -0.8800      4.9640      1.6800     78.3900
    244     -4.4730     -1.5690      5.2680      0.0100     78.3900
    245     -5.6320     -1.0390      4.1120      0.0100     78.3900
    246     -4.7900      4.7030      7.8500      1.7700     78.3900
    247     -3.8440      4.2470      7.4830      0.0100     78.3900
    248     -4.5640      5.3830      9.0760      1.5900     78.3900
    249     -3.9370      6.1100      8.9200      0.0100     78.3900
    250     -5.3980      5.6160      6.7940      1.7700     78.3900
    251     -5.3470      5.1410      5.7930      0.0100     78.3900
    252     -4.8360      6.9410      6.7620      1.5900     78.3900
    253     -3.9120      6.9050      6.4470      0.0100     78.3900

     ----------------------------
     INPUT FOR TESSERA DEFINITION
     ----------------------------
     NTSALL  =        60     MTHALL  =         4
     MTHAUT  =         0     AUTFRE  =    2.0000
     NTSFRZ  =        60     KEEPSM  =         0
     AREAKP  =   10.0000     BONDRY  =    1.0000
     AREATL  =    0.0100

     SPHERE     INITS       METHOD
          1        60       FIXPVA
          2        60       FIXPVA
          3        60       FIXPVA
          4        60       FIXPVA
          5        60       FIXPVA
          6        60       FIXPVA
          7        60       FIXPVA
          8        60       FIXPVA
          9        60       FIXPVA
         10        60       FIXPVA
         11        60       FIXPVA
         12        60       FIXPVA
         13        60       FIXPVA
         14        60       FIXPVA
         15        60       FIXPVA
         16        60       FIXPVA
         17        60       FIXPVA
         18        60       FIXPVA
         19        60       FIXPVA
         20        60       FIXPVA
         21        60       FIXPVA
         22        60       FIXPVA
         23        60       FIXPVA
         24        60       FIXPVA
         25        60       FIXPVA
         26        60       FIXPVA
         27        60       FIXPVA
         28        60       FIXPVA
         29        60       FIXPVA
         30        60       FIXPVA
         31        60       FIXPVA
         32        60       FIXPVA
         33        60       FIXPVA
         34        60       FIXPVA
         35        60       FIXPVA
         36        60       FIXPVA
         37        60       FIXPVA
         38        60       FIXPVA
         39        60       FIXPVA
         40        60       FIXPVA
         41        60       FIXPVA
         42        60       FIXPVA
         43        60       FIXPVA
         44        60       FIXPVA
         45        60       FIXPVA
         46        60       FIXPVA
         47        60       FIXPVA
         48        60       FIXPVA
         49        60       FIXPVA
         50        60       FIXPVA
         51        60       FIXPVA
         52        60       FIXPVA
         53        60       FIXPVA
         54        60       FIXPVA
         55        60       FIXPVA
         56        60       FIXPVA
         57        60       FIXPVA
         58        60       FIXPVA
         59        60       FIXPVA
         60        60       FIXPVA
         61        60       FIXPVA
         62        60       FIXPVA
         63        60       FIXPVA
         64        60       FIXPVA
         65        60       FIXPVA
         66        60       FIXPVA
         67        60       FIXPVA
         68        60       FIXPVA
         69        60       FIXPVA
         70        60       FIXPVA
         71        60       FIXPVA
         72        60       FIXPVA
         73        60       FIXPVA
         74        60       FIXPVA
         75        60       FIXPVA
         76        60       FIXPVA
         77        60       FIXPVA
         78        60       FIXPVA
         79        60       FIXPVA
         80        60       FIXPVA
         81        60       FIXPVA
         82        60       FIXPVA
         83        60       FIXPVA
         84        60       FIXPVA
         85        60       FIXPVA
         86        60       FIXPVA
         87        60       FIXPVA
         88        60       FIXPVA
         89        60       FIXPVA
         90        60       FIXPVA
         91        60       FIXPVA
         92        60       FIXPVA
         93        60       FIXPVA
         94        60       FIXPVA
         95        60       FIXPVA
         96        60       FIXPVA
         97        60       FIXPVA
         98        60       FIXPVA
         99        60       FIXPVA
        100        60       FIXPVA
        101        60       FIXPVA
        102        60       FIXPVA
        103        60       FIXPVA
        104        60       FIXPVA
        105        60       FIXPVA
        106        60       FIXPVA
        107        60       FIXPVA
        108        60       FIXPVA
        109        60       FIXPVA
        110        60       FIXPVA
        111        60       FIXPVA
        112        60       FIXPVA
        113        60       FIXPVA
        114        60       FIXPVA
        115        60       FIXPVA
        116        60       FIXPVA
        117        60       FIXPVA
        118        60       FIXPVA
        119        60       FIXPVA
        120        60       FIXPVA
        121        60       FIXPVA
        122        60       FIXPVA
        123        60       FIXPVA
        124        60       FIXPVA
        125        60       FIXPVA
        126        60       FIXPVA
        127        60       FIXPVA
        128        60       FIXPVA
        129        60       FIXPVA
        130        60       FIXPVA
        131        60       FIXPVA
        132        60       FIXPVA
        133        60       FIXPVA
        134        60       FIXPVA
        135        60       FIXPVA
        136        60       FIXPVA
        137        60       FIXPVA
        138        60       FIXPVA
        139        60       FIXPVA
        140        60       FIXPVA
        141        60       FIXPVA
        142        60       FIXPVA
        143        60       FIXPVA
        144        60       FIXPVA
        145        60       FIXPVA
        146        60       FIXPVA
        147        60       FIXPVA
        148        60       FIXPVA
        149        60       FIXPVA
        150        60       FIXPVA
        151        60       FIXPVA
        152        60       FIXPVA
        153        60       FIXPVA
        154        60       FIXPVA
        155        60       FIXPVA
        156        60       FIXPVA
        157        60       FIXPVA
        158        60       FIXPVA
        159        60       FIXPVA
        160        60       FIXPVA
        161        60       FIXPVA
        162        60       FIXPVA
        163        60       FIXPVA
        164        60       FIXPVA
        165        60       FIXPVA
        166        60       FIXPVA
        167        60       FIXPVA
        168        60       FIXPVA
        169        60       FIXPVA
        170        60       FIXPVA
        171        60       FIXPVA
        172        60       FIXPVA
        173        60       FIXPVA
        174        60       FIXPVA
        175        60       FIXPVA
        176        60       FIXPVA
        177        60       FIXPVA
        178        60       FIXPVA
        179        60       FIXPVA
        180        60       FIXPVA
        181        60       FIXPVA
        182        60       FIXPVA
        183        60       FIXPVA
        184        60       FIXPVA
        185        60       FIXPVA
        186        60       FIXPVA
        187        60       FIXPVA
        188        60       FIXPVA
        189        60       FIXPVA
        190        60       FIXPVA
        191        60       FIXPVA
        192        60       FIXPVA
        193        60       FIXPVA
        194        60       FIXPVA
        195        60       FIXPVA
        196        60       FIXPVA
        197        60       FIXPVA
        198        60       FIXPVA
        199        60       FIXPVA
        200        60       FIXPVA
        201        60       FIXPVA
        202        60       FIXPVA
        203        60       FIXPVA
        204        60       FIXPVA
        205        60       FIXPVA
        206        60       FIXPVA
        207        60       FIXPVA
        208        60       FIXPVA
        209        60       FIXPVA
        210        60       FIXPVA
        211        60       FIXPVA
        212        60       FIXPVA
        213        60       FIXPVA
        214        60       FIXPVA
        215        60       FIXPVA
        216        60       FIXPVA
        217        60       FIXPVA
        218        60       FIXPVA
        219        60       FIXPVA
        220        60       FIXPVA
        221        60       FIXPVA
        222        60       FIXPVA
        223        60       FIXPVA
        224        60       FIXPVA
        225        60       FIXPVA
        226        60       FIXPVA
        227        60       FIXPVA
        228        60       FIXPVA
        229        60       FIXPVA
        230        60       FIXPVA
        231        60       FIXPVA
        232        60       FIXPVA
        233        60       FIXPVA
        234        60       FIXPVA
        235        60       FIXPVA
        236        60       FIXPVA
        237        60       FIXPVA
        238        60       FIXPVA
        239        60       FIXPVA
        240        60       FIXPVA
        241        60       FIXPVA
        242        60       FIXPVA
        243        60       FIXPVA
        244        60       FIXPVA
        245        60       FIXPVA
        246        60       FIXPVA
        247        60       FIXPVA
        248        60       FIXPVA
        249        60       FIXPVA
        250        60       FIXPVA
        251        60       FIXPVA
        252        60       FIXPVA
        253        60       FIXPVA

     ------------------------------
      FIXPVA TESSELLATION FOR PCM
         PEIFENG SU AND HUI LI
     UNIVERSITY OF NEBRASKA-LINCOLN
     ------------------------------


 PCM DIMENSIONS: MXSP=   253, MXTS=     10120, MEMORY=        103986

     INPUT FOR CAVITY DEFINITION 
     ---------------------------
   ATOM               COORDINATES                RADIUS       EPS
      1      1.5840     -8.9140      8.6920      0.0100     78.3900
      2      1.2870     -8.0560      9.0400      1.5900     78.3900
      3      2.1850     -7.7130     10.1060      1.7700     78.3900
      4      3.2240     -7.6710      9.7040      0.0100     78.3900
      5      2.1470     -8.5150     10.8780      0.0100     78.3900
      6      1.8510     -6.3720     10.7650      1.7700     78.3900
      7      2.5660     -6.1400     11.5850      0.0100     78.3900
      8      1.9410     -5.2970      9.7870      1.5900     78.3900
      9      0.9150     -4.3530     10.0360      1.7700     78.3900
     10      1.4150     -3.3670     10.1730      0.0100     78.3900
     11     -0.0180     -4.2640      8.9070      1.6800     78.3900
     12     -0.8860     -3.2340      8.6620      1.7700     78.3900
     13     -2.2730     -0.1910      9.5570      1.6800     78.3900
     14     -1.8190      0.0140     10.4220      0.0100     78.3900
     15     -2.9640      0.4450      9.2050      0.0100     78.3900
     16     -1.0410     -2.1330      9.4220      1.6800     78.3900
     17     -1.9510     -1.3010      8.9220      1.7700     78.3900
     18     -2.6070     -1.5260      7.7390      1.6800     78.3900
     19     -3.2690     -0.8350      7.4260      0.0100     78.3900
     20     -2.4420     -2.6330      6.9180      1.7700     78.3900
     21     -3.0710     -2.7520      5.8600      1.5900     78.3900
     22     -1.5200     -3.5590      7.4770      1.7700     78.3900
     23     -1.0760     -4.7860      6.9980      1.6800     78.3900
     24     -0.1770     -5.1680      7.8750      1.7700     78.3900
     25      0.4140     -6.0880      7.8220      0.0100     78.3900
     26      0.2250     -4.7560     11.3210      1.7700     78.3900
     27     -0.8500     -4.4850     11.3300      0.0100     78.3900
     28      0.8720     -4.1570     12.4260      1.5900     78.3900
     29      0.4320     -4.5000     13.2130      0.0100     78.3900
     30      0.4230     -6.2680     11.3130      1.7700     78.3900
     31     -0.2480     -6.7420     10.5580      0.0100     78.3900
     32      0.3550     -6.9110     12.6040      1.5900     78.3900
     33     -1.0260     -7.4440     13.1360      2.1000     78.3900
     34     -1.6490     -8.2810     12.0910      1.5900     78.3900
     35     -0.8110     -8.0720     14.4570      1.5900     78.3900
     36     -1.8750     -6.1370     13.3180      1.5900     78.3900
     37     -1.6220     -5.2720     14.4520      1.7700     78.3900
     38     -0.5620     -4.9210     14.4730      0.0100     78.3900
     39     -1.8030     -5.8180     15.4080      0.0100     78.3900
     40     -2.5570     -4.0560     14.4340      1.7700     78.3900
     41     -2.3300     -3.3720     15.2800      0.0100     78.3900
     42     -2.3720     -3.2930     13.2070      1.5900     78.3900
     43     -3.6270     -2.7670     12.7850      1.7700     78.3900
     44     -3.4890     -1.6600     12.7600      0.0100     78.3900
     45     -4.0310     -3.2290     11.4290      1.6800     78.3900
     46     -3.4990     -4.3890     10.9140      1.7700     78.3900
     47     -2.8050     -4.9220     11.5630      0.0100     78.3900
     48     -3.8070     -4.8110      9.6800      1.7700     78.3900
     49     -3.3740     -5.7090      9.2460      0.0100     78.3900
     50     -4.9490     -2.4960     10.6800      1.7700     78.3900
     51     -5.4290     -1.4520     11.1510      1.5900     78.3900
     52     -5.2850     -2.9200      9.4400      1.6800     78.3900
     53     -4.7330     -4.0330      8.9290      1.7700     78.3900
     54     -5.0680     -4.4070      7.6980      1.6800     78.3900
     55     -5.7450     -3.8670      7.1910      0.0100     78.3900
     56     -4.6560     -5.2010      7.2520      0.0100     78.3900
     57     -4.6500     -3.1130     13.8470      1.7700     78.3900
     58     -5.6550     -3.3100     13.4230      0.0100     78.3900
     59     -4.7210     -2.0730     14.8050      1.5900     78.3900
     60     -5.1880     -2.4280     15.5760      0.0100     78.3900
     61     -4.0590     -4.3800     14.4500      1.7700     78.3900
     62     -4.2040     -5.2450     13.7630      0.0100     78.3900
     63     -4.4990     -4.6490     15.7960      1.5900     78.3900
     64     -5.6520     -5.6860     16.0560      2.1000     78.3900
     65     -5.1870     -6.9990     15.5700      1.5900     78.3900
     66     -6.0380     -5.5980     17.4860      1.5900     78.3900
     67     -6.8450     -5.1890     15.1600      1.5900     78.3900
     68     -7.6570     -4.0560     15.5590      1.7700     78.3900
     69     -7.0270     -3.1460     15.6920      0.0100     78.3900
     70     -8.1870     -4.2670     16.5250      0.0100     78.3900
     71     -8.7210     -3.7160     14.5000      1.7700     78.3900
     72     -9.3370     -2.8450     14.8180      0.0100     78.3900
     73     -8.0800     -3.3490     13.2400      1.5900     78.3900
     74     -8.8620     -3.8210     12.1530      1.7700     78.3900
     75     -9.0990     -2.9130     11.5540      0.0100     78.3900
     76     -8.1190     -4.7980     11.3140      1.6800     78.3900
     77     -7.0850     -5.5320     11.8470      1.7700     78.3900
     78     -6.8780     -5.3450     12.8990      0.0100     78.3900
     79     -8.4580     -4.9170      9.9830      1.7700     78.3900
     80     -9.3440     -4.2450      9.4620      1.5900     78.3900
     81     -7.7090     -5.8230      9.2760      1.6800     78.3900
     82     -7.9760     -5.9490      8.3100      0.0100     78.3900
     83     -6.6690     -6.5990      9.7450      1.7700     78.3900
     84     -6.0580     -7.3450      8.9830      1.5900     78.3900
     85     -6.3650     -6.4060     11.1290      1.7700     78.3900
     86     -5.5350     -6.9590     11.5610      0.0100     78.3900
     87    -10.1450     -4.3900     12.7390      1.7700     78.3900
     88    -10.5510     -5.2450     12.1540      0.0100     78.3900
     89    -11.1100     -3.3530     12.8260      1.5900     78.3900
     90    -11.6730     -3.4050     12.0310      0.0100     78.3900
     91     -9.6660     -4.8530     14.1100      1.7700     78.3900
     92     -9.0240     -5.7580     13.9980      0.0100     78.3900
     93    -10.7110     -5.0050     15.0960      1.5900     78.3900
     94    -11.0660     -6.4320     15.6430      2.1000     78.3900
     95     -9.8220     -7.1510     16.0050      1.5900     78.3900
     96    -12.0770     -6.3400     16.7260      1.5900     78.3900
     97    -11.7310     -7.1580     14.4150      1.5900     78.3900
     98    -11.7530     -8.6040     14.3530      1.7700     78.3900
     99    -11.9270     -9.0620     15.3570      0.0100     78.3900
    100    -10.7680     -8.9700     13.9810      0.0100     78.3900
    101    -12.8550     -9.1230     13.4170      1.7700     78.3900
    102    -12.7880    -10.2230     13.2920      0.0100     78.3900
    103    -14.1560     -8.8500     14.0140      1.5900     78.3900
    104    -15.0620     -8.4160     13.0110      1.7700     78.3900
    105    -15.9370     -9.1040     13.0720      0.0100     78.3900
    106    -15.5130     -7.0100     13.2390      1.6800     78.3900
    107    -14.8420     -6.1780     14.1110      1.7700     78.3900
    108    -13.9820     -6.6150     14.6170      0.0100     78.3900
    109    -16.6380     -6.5690     12.5750      1.7700     78.3900
    110    -17.2660     -7.2790     11.7960      1.5900     78.3900
    111    -17.0080     -5.2780     12.8540      1.6800     78.3900
    112    -17.8620     -4.9670     12.4210      0.0100     78.3900
    113    -16.4140     -4.4100     13.7480      1.7700     78.3900
    114    -16.8870     -3.2920     13.9360      1.5900     78.3900
    115    -15.2470     -4.9320     14.3880      1.7700     78.3900
    116    -14.7280     -4.3140     15.1170      0.0100     78.3900
    117    -14.3760     -8.6080     11.6660      1.7700     78.3900
    118    -14.6730     -7.8240     10.9420      0.0100     78.3900
    119    -14.6700     -9.8890     11.1350      1.5900     78.3900
    120    -14.1090     -9.9970     10.3520      0.0100     78.3900
    121    -12.9010     -8.4660     12.0300      1.7700     78.3900
    122    -12.6540     -7.3890     12.1740      0.0100     78.3900
    123    -11.9770     -9.1350     11.1370      1.5900     78.3900
    124    -11.4620     -8.3870      9.8470      2.1000     78.3900
    125    -11.2070     -6.9710     10.1770      1.5900     78.3900
    126    -10.3490     -9.1720      9.2680      1.5900     78.3900
    127    -12.6660     -8.4860      8.8380      1.5900     78.3900
    128    -12.7590     -7.5970      7.6910      1.7700     78.3900
    129    -12.4970     -8.1530      6.7620      0.0100     78.3900
    130    -12.0580     -6.7300      7.7640      0.0100     78.3900
    131    -14.1720     -7.0020      7.5250      1.7700     78.3900
    132    -14.8650     -7.7330      7.0580      0.0100     78.3900
    133    -14.7260     -6.6990      8.8370      1.5900     78.3900
    134    -15.4470     -5.4960      8.8030      1.7700     78.3900
    135    -16.4680     -5.7260      9.1890      0.0100     78.3900
    136    -14.8120     -4.4990      9.6710      1.6800     78.3900
    137    -14.4830     -2.7680     10.9830      1.7700     78.3900
    138    -13.2780     -3.4580     10.9440      1.6800     78.3900
    139    -13.5210     -4.4810     10.1590      1.7700     78.3900
    140    -12.7980     -5.2580      9.8910      0.0100     78.3900
    141    -16.1780     -1.2050     11.5100      1.6800     78.3900
    142    -16.9900     -1.9320     10.7360      1.7700     78.3900
    143    -18.0220     -1.5690     10.6470      0.0100     78.3900
    144    -16.7160     -3.0380     10.0340      1.6800     78.3900
    145    -15.4350     -3.4050     10.2080      1.7700     78.3900
    146    -14.8900     -1.6010     11.6610      1.7700     78.3900
    147    -14.0710     -0.8680     12.4400      1.6800     78.3900
    148    -13.1320     -1.1500     12.6400      0.0100     78.3900
    149    -14.4410     -0.0790     12.9320      0.0100     78.3900
    150    -15.5340     -5.0600      7.3560      1.7700     78.3900
    151    -15.5490     -3.9580      7.2510      0.0100     78.3900
    152    -16.6910     -5.6170      6.7580      1.5900     78.3900
    153    -16.6040     -5.5250      5.7970      0.0100     78.3900
    154    -14.2610     -5.6580      6.7710      1.7700     78.3900
    155    -13.3820     -5.0560      7.1060      0.0100     78.3900
    156    -14.3180     -5.8580      5.3340      1.5900     78.3900
    157    -13.2770     -5.1400      4.3920      2.1000     78.3900
    158    -11.9620     -5.1820      5.0580      1.5900     78.3900
    159    -13.3580     -5.7070      3.0280      1.5900     78.3900
    160    -13.7550     -3.6450      4.3120      1.5900     78.3900
    161    -15.0910     -3.2780      3.8990      1.7700     78.3900
    162    -15.8560     -4.0070      4.2550      0.0100     78.3900
    163    -15.1530     -3.2570      2.7900      0.0100     78.3900
    164    -15.4820     -1.8910      4.4430      1.7700     78.3900
    165    -16.4940     -1.5970      4.0830      0.0100     78.3900
    166    -15.5600     -1.9700      5.8950      1.5900     78.3900
    167    -15.0510     -0.7800      6.4740      1.7700     78.3900
    168    -15.8730     -0.3870      7.1210      0.0100     78.3900
    169    -13.8370     -1.0230      7.3190      1.6800     78.3900
    170    -13.0430     -2.1250      7.0920      1.7700     78.3900
    171    -13.3850     -2.7910      6.3100      0.0100     78.3900
    172    -11.9630     -2.3880      7.8380      1.7700     78.3900
    173    -11.3430     -3.2700      7.6820      0.0100     78.3900
    174    -13.4840     -0.1240      8.3230      1.7700     78.3900
    175    -14.1850      0.8820      8.5040      1.5900     78.3900
    176    -12.3990     -0.3740      9.0910      1.6800     78.3900
    177    -11.6550     -1.4720      8.8820      1.7700     78.3900
    178    -10.6150     -1.6900      9.6810      1.6800     78.3900
    179    -10.4480     -1.0420     10.4240      0.0100     78.3900
    180    -10.1100     -2.5550      9.6370      0.0100     78.3900
    181    -14.8080      0.2030      5.3430      1.7700     78.3900
    182    -13.9570      0.8650      5.5610      0.0100     78.3900
    183    -15.9590      0.9920      5.0940      1.5900     78.3900
    184    -15.7850      1.5110      4.2930      0.0100     78.3900
    185    -14.5000     -0.7350      4.1740      1.7700     78.3900
    186    -13.4730     -1.1560      4.2830      0.0100     78.3900
    187    -14.7390     -0.1720      2.8600      1.5900     78.3900
    188    -13.5700      0.6380      2.1700      2.1000     78.3900
    189    -12.3380     -0.1810      2.1930      1.5900     78.3900
    190    -14.0430      1.0970      0.8430      1.5900     78.3900
    191    -13.4010      1.9250      3.0550      1.5900     78.3900
    192    -12.1460      2.6550      3.0800      1.7700     78.3900
    193    -12.2410      3.5880      2.4820      0.0100     78.3900
    194    -11.2950      2.0740      2.6450      0.0100     78.3900
    195    -11.7530      3.0410      4.5170      1.7700     78.3900
    196    -12.3980      3.8680      4.8920      0.0100     78.3900
    197    -11.9450      1.9060      5.4040      1.5900     78.3900
    198    -10.8860      1.8180      6.3240      1.7700     78.3900
    199    -11.3350      1.7580      7.3430      0.0100     78.3900
    200    -10.0920      0.6090      6.0720      1.6800     78.3900
    201     -9.1210      0.1000      6.8860      1.7700     78.3900
    202     -7.2590      0.2630      9.8010      1.6800     78.3900
    203     -7.6210      1.0810     10.2410      0.0100     78.3900
    204     -6.5820     -0.2990     10.2840      0.0100     78.3900
    205     -8.7110      0.6290      8.0510      1.6800     78.3900
    206     -7.7730     -0.1060      8.6410      1.7700     78.3900
    207     -7.2870     -1.2700      8.1080      1.6800     78.3900
    208     -6.5720     -1.7670      8.6170      0.0100     78.3900
    209     -7.6840     -1.8360      6.9040      1.7700     78.3900
    210     -7.1870     -2.8880      6.4910      1.5900     78.3900
    211     -8.6820     -1.0520      6.2630      1.7700     78.3900
    212     -9.3560     -1.2560      5.0640      1.6800     78.3900
    213    -10.1930     -0.2500      4.9930      1.7700     78.3900
    214    -10.9100     -0.0760      4.1850      0.0100     78.3900
    215    -10.0830      3.0910      6.1900      1.7700     78.3900
    216     -9.0130      2.9470      6.4440      0.0100     78.3900
    217    -10.6440      4.0960      7.0170      1.5900     78.3900
    218    -10.1870      4.9200      6.8140      0.0100     78.3900
    219    -10.2760      3.4070      4.7090      1.7700     78.3900
    220     -9.6910      2.6900      4.0870      0.0100     78.3900
    221    -10.0640      4.7860      4.3410      1.5900     78.3900
    222     -8.6710      5.2260      3.7540      2.1000     78.3900
    223     -8.2600      4.2320      2.7400      1.5900     78.3900
    224     -8.7470      6.6400      3.3090      1.5900     78.3900
    225     -7.7070      5.1190      4.9920      1.5900     78.3900
    226     -7.8710      5.9940      6.1300      1.7700     78.3900
    227     -8.8990      5.9420      6.5520      0.0100     78.3900
    228     -7.6980      7.0530      5.8390      0.0100     78.3900
    229     -6.8670      5.6590      7.2370      1.7700     78.3900
    230     -6.9590      6.3710      8.0880      0.0100     78.3900
    231     -7.1380      4.3270      7.7700      1.5900     78.3900
    232     -5.8970      3.6760      8.0260      1.7700     78.3900
    233     -5.9380      3.3720      9.0970      0.0100     78.3900
    234     -5.6940      2.4600      7.1890      1.6800     78.3900
    235     -6.3920      2.2990      6.0160      1.7700     78.3900
    236     -7.1030      3.0860      5.7730      0.0100     78.3900
    237     -6.2340      1.2140      5.2470      1.7700     78.3900
    238     -6.8060      1.0620      4.3340      0.0100     78.3900
    239     -4.7650      1.4970      7.5740      1.7700     78.3900
    240     -4.1070      1.6700      8.6110      1.5900     78.3900
    241     -4.5980      0.3880      6.8150      1.6800     78.3900
    242     -5.3030      0.2300      5.6810      1.7700     78.3900
    243     -5.1350     -0.8800      4.9640      1.6800     78.3900
    244     -4.4730     -1.5690      5.2680      0.0100     78.3900
    245     -5.6320     -1.0390      4.1120      0.0100     78.3900
    246     -4.7900      4.7030      7.8500      1.7700     78.3900
    247     -3.8440      4.2470      7.4830      0.0100     78.3900
    248     -4.5640      5.3830      9.0760      1.5900     78.3900
    249     -3.9370      6.1100      8.9200      0.0100     78.3900
    250     -5.3980      5.6160      6.7940      1.7700     78.3900
    251     -5.3470      5.1410      5.7930      0.0100     78.3900
    252     -4.8360      6.9410      6.7620      1.5900     78.3900
    253     -3.9120      6.9050      6.4470      0.0100     78.3900

 CREATION OF A NEW CAVITY WITH THE ORIGINAL SPHERE
 SIZES FOR THE COMPUTATION OF THE CAVITATION ENERGY.

     INPUT FOR CAVITY DEFINITION 
     ---------------------------
   ATOM               COORDINATES                RADIUS       EPS
      1      1.5840     -8.9140      8.6920      0.0100     78.3900
      2      1.2870     -8.0560      9.0400      1.5900     78.3900
      3      2.1850     -7.7130     10.1060      1.7700     78.3900
      4      3.2240     -7.6710      9.7040      0.0100     78.3900
      5      2.1470     -8.5150     10.8780      0.0100     78.3900
      6      1.8510     -6.3720     10.7650      1.7700     78.3900
      7      2.5660     -6.1400     11.5850      0.0100     78.3900
      8      1.9410     -5.2970      9.7870      1.5900     78.3900
      9      0.9150     -4.3530     10.0360      1.7700     78.3900
     10      1.4150     -3.3670     10.1730      0.0100     78.3900
     11     -0.0180     -4.2640      8.9070      1.6800     78.3900
     12     -0.8860     -3.2340      8.6620      1.7700     78.3900
     13     -2.2730     -0.1910      9.5570      1.6800     78.3900
     14     -1.8190      0.0140     10.4220      0.0100     78.3900
     15     -2.9640      0.4450      9.2050      0.0100     78.3900
     16     -1.0410     -2.1330      9.4220      1.6800     78.3900
     17     -1.9510     -1.3010      8.9220      1.7700     78.3900
     18     -2.6070     -1.5260      7.7390      1.6800     78.3900
     19     -3.2690     -0.8350      7.4260      0.0100     78.3900
     20     -2.4420     -2.6330      6.9180      1.7700     78.3900
     21     -3.0710     -2.7520      5.8600      1.5900     78.3900
     22     -1.5200     -3.5590      7.4770      1.7700     78.3900
     23     -1.0760     -4.7860      6.9980      1.6800     78.3900
     24     -0.1770     -5.1680      7.8750      1.7700     78.3900
     25      0.4140     -6.0880      7.8220      0.0100     78.3900
     26      0.2250     -4.7560     11.3210      1.7700     78.3900
     27     -0.8500     -4.4850     11.3300      0.0100     78.3900
     28      0.8720     -4.1570     12.4260      1.5900     78.3900
     29      0.4320     -4.5000     13.2130      0.0100     78.3900
     30      0.4230     -6.2680     11.3130      1.7700     78.3900
     31     -0.2480     -6.7420     10.5580      0.0100     78.3900
     32      0.3550     -6.9110     12.6040      1.5900     78.3900
     33     -1.0260     -7.4440     13.1360      2.1000     78.3900
     34     -1.6490     -8.2810     12.0910      1.5900     78.3900
     35     -0.8110     -8.0720     14.4570      1.5900     78.3900
     36     -1.8750     -6.1370     13.3180      1.5900     78.3900
     37     -1.6220     -5.2720     14.4520      1.7700     78.3900
     38     -0.5620     -4.9210     14.4730      0.0100     78.3900
     39     -1.8030     -5.8180     15.4080      0.0100     78.3900
     40     -2.5570     -4.0560     14.4340      1.7700     78.3900
     41     -2.3300     -3.3720     15.2800      0.0100     78.3900
     42     -2.3720     -3.2930     13.2070      1.5900     78.3900
     43     -3.6270     -2.7670     12.7850      1.7700     78.3900
     44     -3.4890     -1.6600     12.7600      0.0100     78.3900
     45     -4.0310     -3.2290     11.4290      1.6800     78.3900
     46     -3.4990     -4.3890     10.9140      1.7700     78.3900
     47     -2.8050     -4.9220     11.5630      0.0100     78.3900
     48     -3.8070     -4.8110      9.6800      1.7700     78.3900
     49     -3.3740     -5.7090      9.2460      0.0100     78.3900
     50     -4.9490     -2.4960     10.6800      1.7700     78.3900
     51     -5.4290     -1.4520     11.1510      1.5900     78.3900
     52     -5.2850     -2.9200      9.4400      1.6800     78.3900
     53     -4.7330     -4.0330      8.9290      1.7700     78.3900
     54     -5.0680     -4.4070      7.6980      1.6800     78.3900
     55     -5.7450     -3.8670      7.1910      0.0100     78.3900
     56     -4.6560     -5.2010      7.2520      0.0100     78.3900
     57     -4.6500     -3.1130     13.8470      1.7700     78.3900
     58     -5.6550     -3.3100     13.4230      0.0100     78.3900
     59     -4.7210     -2.0730     14.8050      1.5900     78.3900
     60     -5.1880     -2.4280     15.5760      0.0100     78.3900
     61     -4.0590     -4.3800     14.4500      1.7700     78.3900
     62     -4.2040     -5.2450     13.7630      0.0100     78.3900
     63     -4.4990     -4.6490     15.7960      1.5900     78.3900
     64     -5.6520     -5.6860     16.0560      2.1000     78.3900
     65     -5.1870     -6.9990     15.5700      1.5900     78.3900
     66     -6.0380     -5.5980     17.4860      1.5900     78.3900
     67     -6.8450     -5.1890     15.1600      1.5900     78.3900
     68     -7.6570     -4.0560     15.5590      1.7700     78.3900
     69     -7.0270     -3.1460     15.6920      0.0100     78.3900
     70     -8.1870     -4.2670     16.5250      0.0100     78.3900
     71     -8.7210     -3.7160     14.5000      1.7700     78.3900
     72     -9.3370     -2.8450     14.8180      0.0100     78.3900
     73     -8.0800     -3.3490     13.2400      1.5900     78.3900
     74     -8.8620     -3.8210     12.1530      1.7700     78.3900
     75     -9.0990     -2.9130     11.5540      0.0100     78.3900
     76     -8.1190     -4.7980     11.3140      1.6800     78.3900
     77     -7.0850     -5.5320     11.8470      1.7700     78.3900
     78     -6.8780     -5.3450     12.8990      0.0100     78.3900
     79     -8.4580     -4.9170      9.9830      1.7700     78.3900
     80     -9.3440     -4.2450      9.4620      1.5900     78.3900
     81     -7.7090     -5.8230      9.2760      1.6800     78.3900
     82     -7.9760     -5.9490      8.3100      0.0100     78.3900
     83     -6.6690     -6.5990      9.7450      1.7700     78.3900
     84     -6.0580     -7.3450      8.9830      1.5900     78.3900
     85     -6.3650     -6.4060     11.1290      1.7700     78.3900
     86     -5.5350     -6.9590     11.5610      0.0100     78.3900
     87    -10.1450     -4.3900     12.7390      1.7700     78.3900
     88    -10.5510     -5.2450     12.1540      0.0100     78.3900
     89    -11.1100     -3.3530     12.8260      1.5900     78.3900
     90    -11.6730     -3.4050     12.0310      0.0100     78.3900
     91     -9.6660     -4.8530     14.1100      1.7700     78.3900
     92     -9.0240     -5.7580     13.9980      0.0100     78.3900
     93    -10.7110     -5.0050     15.0960      1.5900     78.3900
     94    -11.0660     -6.4320     15.6430      2.1000     78.3900
     95     -9.8220     -7.1510     16.0050      1.5900     78.3900
     96    -12.0770     -6.3400     16.7260      1.5900     78.3900
     97    -11.7310     -7.1580     14.4150      1.5900     78.3900
     98    -11.7530     -8.6040     14.3530      1.7700     78.3900
     99    -11.9270     -9.0620     15.3570      0.0100     78.3900
    100    -10.7680     -8.9700     13.9810      0.0100     78.3900
    101    -12.8550     -9.1230     13.4170      1.7700     78.3900
    102    -12.7880    -10.2230     13.2920      0.0100     78.3900
    103    -14.1560     -8.8500     14.0140      1.5900     78.3900
    104    -15.0620     -8.4160     13.0110      1.7700     78.3900
    105    -15.9370     -9.1040     13.0720      0.0100     78.3900
    106    -15.5130     -7.0100     13.2390      1.6800     78.3900
    107    -14.8420     -6.1780     14.1110      1.7700     78.3900
    108    -13.9820     -6.6150     14.6170      0.0100     78.3900
    109    -16.6380     -6.5690     12.5750      1.7700     78.3900
    110    -17.2660     -7.2790     11.7960      1.5900     78.3900
    111    -17.0080     -5.2780     12.8540      1.6800     78.3900
    112    -17.8620     -4.9670     12.4210      0.0100     78.3900
    113    -16.4140     -4.4100     13.7480      1.7700     78.3900
    114    -16.8870     -3.2920     13.9360      1.5900     78.3900
    115    -15.2470     -4.9320     14.3880      1.7700     78.3900
    116    -14.7280     -4.3140     15.1170      0.0100     78.3900
    117    -14.3760     -8.6080     11.6660      1.7700     78.3900
    118    -14.6730     -7.8240     10.9420      0.0100     78.3900
    119    -14.6700     -9.8890     11.1350      1.5900     78.3900
    120    -14.1090     -9.9970     10.3520      0.0100     78.3900
    121    -12.9010     -8.4660     12.0300      1.7700     78.3900
    122    -12.6540     -7.3890     12.1740      0.0100     78.3900
    123    -11.9770     -9.1350     11.1370      1.5900     78.3900
    124    -11.4620     -8.3870      9.8470      2.1000     78.3900
    125    -11.2070     -6.9710     10.1770      1.5900     78.3900
    126    -10.3490     -9.1720      9.2680      1.5900     78.3900
    127    -12.6660     -8.4860      8.8380      1.5900     78.3900
    128    -12.7590     -7.5970      7.6910      1.7700     78.3900
    129    -12.4970     -8.1530      6.7620      0.0100     78.3900
    130    -12.0580     -6.7300      7.7640      0.0100     78.3900
    131    -14.1720     -7.0020      7.5250      1.7700     78.3900
    132    -14.8650     -7.7330      7.0580      0.0100     78.3900
    133    -14.7260     -6.6990      8.8370      1.5900     78.3900
    134    -15.4470     -5.4960      8.8030      1.7700     78.3900
    135    -16.4680     -5.7260      9.1890      0.0100     78.3900
    136    -14.8120     -4.4990      9.6710      1.6800     78.3900
    137    -14.4830     -2.7680     10.9830      1.7700     78.3900
    138    -13.2780     -3.4580     10.9440      1.6800     78.3900
    139    -13.5210     -4.4810     10.1590      1.7700     78.3900
    140    -12.7980     -5.2580      9.8910      0.0100     78.3900
    141    -16.1780     -1.2050     11.5100      1.6800     78.3900
    142    -16.9900     -1.9320     10.7360      1.7700     78.3900
    143    -18.0220     -1.5690     10.6470      0.0100     78.3900
    144    -16.7160     -3.0380     10.0340      1.6800     78.3900
    145    -15.4350     -3.4050     10.2080      1.7700     78.3900
    146    -14.8900     -1.6010     11.6610      1.7700     78.3900
    147    -14.0710     -0.8680     12.4400      1.6800     78.3900
    148    -13.1320     -1.1500     12.6400      0.0100     78.3900
    149    -14.4410     -0.0790     12.9320      0.0100     78.3900
    150    -15.5340     -5.0600      7.3560      1.7700     78.3900
    151    -15.5490     -3.9580      7.2510      0.0100     78.3900
    152    -16.6910     -5.6170      6.7580      1.5900     78.3900
    153    -16.6040     -5.5250      5.7970      0.0100     78.3900
    154    -14.2610     -5.6580      6.7710      1.7700     78.3900
    155    -13.3820     -5.0560      7.1060      0.0100     78.3900
    156    -14.3180     -5.8580      5.3340      1.5900     78.3900
    157    -13.2770     -5.1400      4.3920      2.1000     78.3900
    158    -11.9620     -5.1820      5.0580      1.5900     78.3900
    159    -13.3580     -5.7070      3.0280      1.5900     78.3900
    160    -13.7550     -3.6450      4.3120      1.5900     78.3900
    161    -15.0910     -3.2780      3.8990      1.7700     78.3900
    162    -15.8560     -4.0070      4.2550      0.0100     78.3900
    163    -15.1530     -3.2570      2.7900      0.0100     78.3900
    164    -15.4820     -1.8910      4.4430      1.7700     78.3900
    165    -16.4940     -1.5970      4.0830      0.0100     78.3900
    166    -15.5600     -1.9700      5.8950      1.5900     78.3900
    167    -15.0510     -0.7800      6.4740      1.7700     78.3900
    168    -15.8730     -0.3870      7.1210      0.0100     78.3900
    169    -13.8370     -1.0230      7.3190      1.6800     78.3900
    170    -13.0430     -2.1250      7.0920      1.7700     78.3900
    171    -13.3850     -2.7910      6.3100      0.0100     78.3900
    172    -11.9630     -2.3880      7.8380      1.7700     78.3900
    173    -11.3430     -3.2700      7.6820      0.0100     78.3900
    174    -13.4840     -0.1240      8.3230      1.7700     78.3900
    175    -14.1850      0.8820      8.5040      1.5900     78.3900
    176    -12.3990     -0.3740      9.0910      1.6800     78.3900
    177    -11.6550     -1.4720      8.8820      1.7700     78.3900
    178    -10.6150     -1.6900      9.6810      1.6800     78.3900
    179    -10.4480     -1.0420     10.4240      0.0100     78.3900
    180    -10.1100     -2.5550      9.6370      0.0100     78.3900
    181    -14.8080      0.2030      5.3430      1.7700     78.3900
    182    -13.9570      0.8650      5.5610      0.0100     78.3900
    183    -15.9590      0.9920      5.0940      1.5900     78.3900
    184    -15.7850      1.5110      4.2930      0.0100     78.3900
    185    -14.5000     -0.7350      4.1740      1.7700     78.3900
    186    -13.4730     -1.1560      4.2830      0.0100     78.3900
    187    -14.7390     -0.1720      2.8600      1.5900     78.3900
    188    -13.5700      0.6380      2.1700      2.1000     78.3900
    189    -12.3380     -0.1810      2.1930      1.5900     78.3900
    190    -14.0430      1.0970      0.8430      1.5900     78.3900
    191    -13.4010      1.9250      3.0550      1.5900     78.3900
    192    -12.1460      2.6550      3.0800      1.7700     78.3900
    193    -12.2410      3.5880      2.4820      0.0100     78.3900
    194    -11.2950      2.0740      2.6450      0.0100     78.3900
    195    -11.7530      3.0410      4.5170      1.7700     78.3900
    196    -12.3980      3.8680      4.8920      0.0100     78.3900
    197    -11.9450      1.9060      5.4040      1.5900     78.3900
    198    -10.8860      1.8180      6.3240      1.7700     78.3900
    199    -11.3350      1.7580      7.3430      0.0100     78.3900
    200    -10.0920      0.6090      6.0720      1.6800     78.3900
    201     -9.1210      0.1000      6.8860      1.7700     78.3900
    202     -7.2590      0.2630      9.8010      1.6800     78.3900
    203     -7.6210      1.0810     10.2410      0.0100     78.3900
    204     -6.5820     -0.2990     10.2840      0.0100     78.3900
    205     -8.7110      0.6290      8.0510      1.6800     78.3900
    206     -7.7730     -0.1060      8.6410      1.7700     78.3900
    207     -7.2870     -1.2700      8.1080      1.6800     78.3900
    208     -6.5720     -1.7670      8.6170      0.0100     78.3900
    209     -7.6840     -1.8360      6.9040      1.7700     78.3900
    210     -7.1870     -2.8880      6.4910      1.5900     78.3900
    211     -8.6820     -1.0520      6.2630      1.7700     78.3900
    212     -9.3560     -1.2560      5.0640      1.6800     78.3900
    213    -10.1930     -0.2500      4.9930      1.7700     78.3900
    214    -10.9100     -0.0760      4.1850      0.0100     78.3900
    215    -10.0830      3.0910      6.1900      1.7700     78.3900
    216     -9.0130      2.9470      6.4440      0.0100     78.3900
    217    -10.6440      4.0960      7.0170      1.5900     78.3900
    218    -10.1870      4.9200      6.8140      0.0100     78.3900
[...]

 Iter=  3 iFrag=      5 EFMO= -1432.580372893, DD= 0.021678585, DE=-0.001453212


 RHF      monomer      6 corr= NONE       , L1=   341, L0=   320 ID=      4


 AO spaces for     6     0     0 n-mer: L1=   341, L0=   320

 DIRECT SCF CALCULATION, SCHWRZ=T   FDIFF=T,  DIRTHR=  0.00E+00 NITDIR=10

                                                                                   NONZERO     BLOCKS
 ITER EX DEM     TOTAL ENERGY        E CHANGE  DENSITY CHANGE     ORB. GRAD      INTEGRALS    SKIPPED
   1  0  0    -1325.0262250888 -1325.0262250888   0.035664210   0.000000000      656733383   10661666
          ---------------START SECOND ORDER SCF---------------
   2  1  0    -1325.0276540501    -0.0014289613   0.009452417   0.001731416      587713996   11774198
   3  2  0    -1325.0280072365    -0.0003531864   0.001774101   0.000432424      569455293   11984110
   4  3  0    -1325.0279499372     0.0000572993   0.000450386   0.000083653      535240027   12316274
   5  4  0    -1325.0279296099     0.0000203273   0.000155155   0.000033322      498066547   12643561
   6  5  0    -1325.0279288017     0.0000008082   0.000047937   0.000008033      471600540   12892618
   7  6  0    -1325.0279284839     0.0000003179   0.000011205   0.000005767      435888973   13223072
   8  7  0    -1325.0279284476     0.0000000363   0.000005659   0.000001935      403797893   13514801
   9  8  0    -1325.0279285668    -0.0000001192   0.000001767   0.000000701      373675716   13777394
  10  9  0    -1325.0279285900    -0.0000000232   0.000000885   0.000000289      348172202   14005191
  11 10  0    -1325.0279285658     0.0000000242   0.000000450   0.000000097      310884642   14305857
  12 11  0    -1325.0279285586     0.0000000071   0.000000087   0.000000021      289467988   14491184
  13 12  0    -1325.0279285578     0.0000000009   0.000000057   0.000000016      247861467   14849158

          -----------------
          DENSITY CONVERGED
          -----------------
     TIME TO FORM FOCK OPERATORS=      18.2 SECONDS (       1.4 SEC/ITER)
     FOCK TIME ON FIRST ITERATION=       1.7, LAST ITERATION=       0.8
     TIME TO SOLVE SCF EQUATIONS=       0.4 SECONDS (       0.0 SEC/ITER)

 FINAL RHF ENERGY IS    -1325.0279285578 AFTER  13 ITERATIONS
 ...... END OF RHF CALCULATION ......
 CPU     0: STEP CPU TIME=    43.34 TOTAL CPU TIME=        947.4 (     15.8 MIN)
 TOTAL WALL CLOCK TIME=       2077.6 SECONDS, CPU UTILIZATION IS    45.60%
 DONE PCM POT.
 CPU     0: STEP CPU TIME=     0.28 TOTAL CPU TIME=        947.7 (     15.8 MIN)
 TOTAL WALL CLOCK TIME=       2078.5 SECONDS, CPU UTILIZATION IS    45.59%

 Iter=  3 iFrag=      6 EFMO= -1360.664465248, DD= 0.028871121, DE= 0.021453399


 RHF      monomer      2 corr= NONE       , L1=   341, L0=   320 ID=      5


 AO spaces for     2     0     0 n-mer: L1=   341, L0=   320

 DIRECT SCF CALCULATION, SCHWRZ=T   FDIFF=T,  DIRTHR=  0.00E+00 NITDIR=10

                                                                                   NONZERO     BLOCKS
 ITER EX DEM     TOTAL ENERGY        E CHANGE  DENSITY CHANGE     ORB. GRAD      INTEGRALS    SKIPPED
   1  0  0    -1328.0538546668 -1328.0538546668   0.036126360   0.000000000      659559015   10592292
          ---------------START SECOND ORDER SCF---------------
   2  1  0    -1328.0548904827    -0.0010358159   0.008116079   0.002243845      605837738   11605469
   3  2  0    -1328.0552514917    -0.0003610090   0.001825634   0.000491078      586035760   11845019
   4  3  0    -1328.0551600131     0.0000914786   0.000687024   0.000080757      552199401   12182218
   5  4  0    -1328.0551329239     0.0000270892   0.000167658   0.000061058      518125401   12486415
   6  5  0    -1328.0551311146     0.0000018093   0.000050234   0.000018267      491554454   12736620
   7  6  0    -1328.0551292772     0.0000018374   0.000013872   0.000006830      458039942   13044966
   8  7  0    -1328.0551290105     0.0000002667   0.000008969   0.000003855      425445807   13337308
   9  8  0    -1328.0551293090    -0.0000002985   0.000003466   0.000000979      398348344   13569961
  10  9  0    -1328.0551294304    -0.0000001215   0.000001062   0.000000452      374159397   13780204
  11 10  0    -1328.0551294024     0.0000000281   0.000000644   0.000000066      332838977   14128322
  12 11  0    -1328.0551293994     0.0000000029   0.000000111   0.000000029      306260448   14352396
  13 12  0    -1328.0551293988     0.0000000006   0.000000054   0.000000012      268227105   14686526

          -----------------
          DENSITY CONVERGED
          -----------------
     TIME TO FORM FOCK OPERATORS=      20.3 SECONDS (       1.6 SEC/ITER)
     FOCK TIME ON FIRST ITERATION=       2.2, LAST ITERATION=       0.9
     TIME TO SOLVE SCF EQUATIONS=       0.4 SECONDS (       0.0 SEC/ITER)

 FINAL RHF ENERGY IS    -1328.0551293988 AFTER  13 ITERATIONS
 ...... END OF RHF CALCULATION ......
 CPU     0: STEP CPU TIME=    45.16 TOTAL CPU TIME=        992.8 (     16.5 MIN)
 TOTAL WALL CLOCK TIME=       2164.4 SECONDS, CPU UTILIZATION IS    45.87%
 DONE PCM POT.
 CPU     0: STEP CPU TIME=     0.26 TOTAL CPU TIME=        993.1 (     16.6 MIN)
 TOTAL WALL CLOCK TIME=       2165.2 SECONDS, CPU UTILIZATION IS    45.87%

 Iter=  3 iFrag=      2 EFMO= -1360.655756971, DD= 0.030383976, DE= 0.021584762


 RHF      monomer      3 corr= NONE       , L1=   339, L0=   318 ID=      6


 AO spaces for     3     0     0 n-mer: L1=   339, L0=   318

 DIRECT SCF CALCULATION, SCHWRZ=T   FDIFF=T,  DIRTHR=  0.00E+00 NITDIR=10

                                                                                   NONZERO     BLOCKS
 ITER EX DEM     TOTAL ENERGY        E CHANGE  DENSITY CHANGE     ORB. GRAD      INTEGRALS    SKIPPED
   1  0  0    -1340.2373332651 -1340.2373332651   0.034005558   0.000000000      640566164    9732614
          ---------------START SECOND ORDER SCF---------------
   2  1  0    -1340.2388541761    -0.0015209110   0.008893876   0.001713382      572599907   10775106
   3  2  0    -1340.2391462163    -0.0002920402   0.001567215   0.000510203      554400027   10977113
   4  3  0    -1340.2391070703     0.0000391460   0.000500257   0.000076570      521226066   11300383
   5  4  0    -1340.2390925643     0.0000145060   0.000154811   0.000044859      486072207   11607809
   6  5  0    -1340.2390919326     0.0000006317   0.000057058   0.000020815      459604844   11848081
   7  6  0    -1340.2390913074     0.0000006252   0.000017388   0.000006044      430341201   12118159
   8  7  0    -1340.2390912245     0.0000000830   0.000008929   0.000004012      399414296   12384828
   9  8  0    -1340.2390913927    -0.0000001683   0.000003301   0.000001270      378530827   12571323
  10  9  0    -1340.2390914517    -0.0000000589   0.000001185   0.000000284      352529817   12795491
  11 10  0    -1340.2390914288     0.0000000228   0.000000645   0.000000110      314128658   13104954
  12 11  0    -1340.2390914214     0.0000000075   0.000000100   0.000000030      289833996   13314658
  13 12  0    -1340.2390914205     0.0000000009   0.000000060   0.000000017      251993575   13639355

          -----------------
          DENSITY CONVERGED
          -----------------
     TIME TO FORM FOCK OPERATORS=      18.3 SECONDS (       1.4 SEC/ITER)
     FOCK TIME ON FIRST ITERATION=       2.1, LAST ITERATION=       0.8
     TIME TO SOLVE SCF EQUATIONS=       0.3 SECONDS (       0.0 SEC/ITER)

 FINAL RHF ENERGY IS    -1340.2390914205 AFTER  13 ITERATIONS
 ...... END OF RHF CALCULATION ......
 CPU     0: STEP CPU TIME=    43.45 TOTAL CPU TIME=       1036.5 (     17.3 MIN)
 TOTAL WALL CLOCK TIME=       2258.9 SECONDS, CPU UTILIZATION IS    45.89%
 DONE PCM POT.
 CPU     0: STEP CPU TIME=     0.22 TOTAL CPU TIME=       1036.8 (     17.3 MIN)
 TOTAL WALL CLOCK TIME=       2259.6 SECONDS, CPU UTILIZATION IS    45.88%

 Iter=  3 iFrag=      3 EFMO= -1380.510002869, DD= 0.026804234, DE= 0.021397118


 RHF      monomer      4 corr= NONE       , L1=   339, L0=   318 ID=      7


 AO spaces for     4     0     0 n-mer: L1=   339, L0=   318

 DIRECT SCF CALCULATION, SCHWRZ=T   FDIFF=T,  DIRTHR=  0.00E+00 NITDIR=10

                                                                                   NONZERO     BLOCKS
 ITER EX DEM     TOTAL ENERGY        E CHANGE  DENSITY CHANGE     ORB. GRAD      INTEGRALS    SKIPPED
   1  0  0    -1346.5500897407 -1346.5500897407   0.034942157   0.000000000      638249886    9713027
          ---------------START SECOND ORDER SCF---------------
   2  1  0    -1346.5513905997    -0.0013008590   0.008289319   0.001711440      581090954   10710863
   3  2  0    -1346.5516954659    -0.0003048662   0.001697184   0.000520604      558226622   10956793
   4  3  0    -1346.5516462397     0.0000492261   0.000505227   0.000083406      525959259   11270182
   5  4  0    -1346.5516253736     0.0000208662   0.000132590   0.000037297      491563688   11569533
   6  5  0    -1346.5516255063    -0.0000001327   0.000043894   0.000008126      466407855   11800820
   7  6  0    -1346.5516242167     0.0000012896   0.000011776   0.000005765      432313118   12112258
   8  7  0    -1346.5516241616     0.0000000551   0.000004423   0.000001609      398227265   12412835
   9  8  0    -1346.5516242663    -0.0000001046   0.000001814   0.000001057      374887284   12608939
  10  9  0    -1346.5516242612     0.0000000051   0.000000791   0.000000322      347225884   12852889
  11 10  0    -1346.5516242342     0.0000000270   0.000000349   0.000000136      315660834   13117102
  12 11  0    -1346.5516242355    -0.0000000013   0.000000099   0.000000027      294343800   13293094
  13 12  0    -1346.5516242371    -0.0000000017   0.000000000   0.000000007      254062413   13633453

          -----------------
          DENSITY CONVERGED
          -----------------
     TIME TO FORM FOCK OPERATORS=      17.6 SECONDS (       1.4 SEC/ITER)
     FOCK TIME ON FIRST ITERATION=       2.7, LAST ITERATION=       1.0
     TIME TO SOLVE SCF EQUATIONS=       0.4 SECONDS (       0.0 SEC/ITER)

 FINAL RHF ENERGY IS    -1346.5516242371 AFTER  13 ITERATIONS
 ...... END OF RHF CALCULATION ......
 CPU     0: STEP CPU TIME=    27.94 TOTAL CPU TIME=       1064.7 (     17.7 MIN)
 TOTAL WALL CLOCK TIME=       2326.4 SECONDS, CPU UTILIZATION IS    45.77%
 DONE PCM POT.
 CPU     0: STEP CPU TIME=     0.27 TOTAL CPU TIME=       1065.0 (     17.7 MIN)
 TOTAL WALL CLOCK TIME=       2327.3 SECONDS, CPU UTILIZATION IS    45.76%

 Iter=  3 iFrag=      4 EFMO= -1380.537688837, DD= 0.028954947, DE= 0.009704583


 RHF      monomer      8 corr= NONE       , L1=   264, L0=   248 ID=      8


 AO spaces for     8     0     0 n-mer: L1=   264, L0=   248

 DIRECT SCF CALCULATION, SCHWRZ=T   FDIFF=T,  DIRTHR=  0.00E+00 NITDIR=10

                                                                                   NONZERO     BLOCKS
 ITER EX DEM     TOTAL ENERGY        E CHANGE  DENSITY CHANGE     ORB. GRAD      INTEGRALS    SKIPPED
   1  0  0     -769.1971398732  -769.1971398732   0.035818081   0.000000000      329613228    3962731
          ---------------START SECOND ORDER SCF---------------
   2  1  0     -769.1980764478    -0.0009365746   0.008932910   0.001754723      308401590    4483591
   3  2  0     -769.1984485190    -0.0003720713   0.001806598   0.000462744      298217889    4642476
   4  3  0     -769.1983701447     0.0000783744   0.000326979   0.000089446      284068255    4828464
   5  4  0     -769.1983402846     0.0000298601   0.000133933   0.000042364      269470183    4996298
   6  5  0     -769.1983340183     0.0000062663   0.000043170   0.000020224      259408110    5121451
   7  6  0     -769.1983334002     0.0000006182   0.000014245   0.000005640      243839458    5317066
   8  7  0     -769.1983334589    -0.0000000588   0.000005652   0.000004427      229161156    5484951
   9  8  0     -769.1983335027    -0.0000000438   0.000002075   0.000000864      219168656    5597639
  10  9  0     -769.1983335303    -0.0000000276   0.000001124   0.000000575      204322446    5764583
  11 10  0     -769.1983335121     0.0000000182   0.000000407   0.000000106      187446500    5936889
  12 11  0     -769.1983335126    -0.0000000005   0.000000094   0.000000053      172605450    6092678
  13 12  0     -769.1983335129    -0.0000000003   0.000000055   0.000000018      152190123    6316754

          -----------------
          DENSITY CONVERGED
          -----------------
     TIME TO FORM FOCK OPERATORS=      10.4 SECONDS (       0.8 SEC/ITER)
     FOCK TIME ON FIRST ITERATION=       1.1, LAST ITERATION=       0.5
     TIME TO SOLVE SCF EQUATIONS=       0.2 SECONDS (       0.0 SEC/ITER)

 FINAL RHF ENERGY IS     -769.1983335129 AFTER  13 ITERATIONS
 ...... END OF RHF CALCULATION ......
 CPU     0: STEP CPU TIME=    21.02 TOTAL CPU TIME=       1086.0 (     18.1 MIN)
 TOTAL WALL CLOCK TIME=       2373.2 SECONDS, CPU UTILIZATION IS    45.76%
 DONE PCM POT.
 CPU     0: STEP CPU TIME=     0.17 TOTAL CPU TIME=       1086.2 (     18.1 MIN)
 TOTAL WALL CLOCK TIME=       2373.8 SECONDS, CPU UTILIZATION IS    45.76%

 Iter=  3 iFrag=      8 EFMO=  -795.792894158, DD= 0.028895625, DE= 0.042413712

 CPU     0: STEP CPU TIME=     0.00 TOTAL CPU TIME=       1086.2 (     18.1 MIN)
 TOTAL WALL CLOCK TIME=       2373.8 SECONDS, CPU UTILIZATION IS    45.76%

  Monomer SCF synchronisation on iteration   3.1 took     0.0 s.
 CPU     0: STEP CPU TIME=     0.00 TOTAL CPU TIME=       1086.2 (     18.1 MIN)
 TOTAL WALL CLOCK TIME=       2373.8 SECONDS, CPU UTILIZATION IS    45.76%
 dmexch needs              2962926  words of memory.
 CPU     0: STEP CPU TIME=     0.01 TOTAL CPU TIME=       1086.2 (     18.1 MIN)
 TOTAL WALL CLOCK TIME=       2373.8 SECONDS, CPU UTILIZATION IS    45.76%

 Data exchange of    981406 words took     0.0 s.

 Calculating apparent surface charges...
     Using       41347 words of memory.
 ASC ITERATION=   1 CONVERGED TO  0.121884E-02
 ASC ITERATION=   2 CONVERGED TO  0.117677E-01
 ASC ITERATION=   3 CONVERGED TO  0.152181E-01
 ASC ITERATION=   4 CONVERGED TO  0.167962E-02
 ASC ITERATION=   5 CONVERGED TO  0.813689E-03
 ASC ITERATION=   6 CONVERGED TO  0.546815E-03
 ASC ITERATION=   7 CONVERGED TO  0.208570E-03
 ASC ITERATION=   8 CONVERGED TO  0.205941E-03
 ASC ITERATION=   9 CONVERGED TO  0.103212E-03
 ASC ITERATION=  10 CONVERGED TO  0.395607E-04
 ASC ITERATION=  11 CONVERGED TO  0.210113E-04
 ASC ITERATION=  12 CONVERGED TO  0.908476E-05
 ASC ITERATION=  13 CONVERGED TO  0.727798E-05
 ASC ITERATION=  14 CONVERGED TO  0.358439E-05
 ASC ITERATION=  15 CONVERGED TO  0.169357E-05
 ASC ITERATION=  16 CONVERGED TO  0.798779E-06
 ASC ITERATION=  17 CONVERGED TO  0.451387E-06
 ASC ITERATION=  18 CONVERGED TO  0.312965E-06
 ASC ITERATION=  19 CONVERGED TO  0.176554E-06
 ASC ITERATION=  20 CONVERGED TO  0.787851E-07
 ASC ITERATION=  21 CONVERGED TO  0.479728E-07
 ASC ITERATION=  22 CONVERGED TO  0.284753E-07
 ASC ITERATION=  23 CONVERGED TO  0.149280E-07
 ASC ITERATION=  24 CONVERGED TO  0.829445E-08
 ASC ITERATION=  25 CONVERGED TO  0.415233E-08
 ASC ITERATION=  26 CONVERGED TO  0.191085E-08
 ASC ITERATION=  27 CONVERGED TO  0.909706E-09
 ASC ITERATION=  28 CONVERGED TO  0.468811E-09
 ASC ITERATION=  29 CONVERGED TO  0.256229E-09
 ASC ITERATION=  30 CONVERGED TO  0.131149E-09
 ASC ITERATION=  31 CONVERGED TO  0.652463E-10

 THE ASC EQUATIONS FOR PHASE=1 CONVERGED IN  31 ITERATIONS.

 PCM ASC=      6.8599018931 normalised to=      6.9107028958
 Nuclear factor=   1.0031408000, electronic factor=   1.0031639160

 CPU     0: STEP CPU TIME=     0.13 TOTAL CPU TIME=       1086.3 (     18.1 MIN)
 TOTAL WALL CLOCK TIME=       2374.1 SECONDS, CPU UTILIZATION IS    45.76%


 ------------------------------------------------------------------------------
 FMO iter  3.1,      0 fragment(s) converged, maxD 0.030383976 maxE 0.042413712
 ------------------------------------------------------------------------------

 RHF      monomer      1 corr= NONE       , L1=   403, L0=   378 ID=      1


 AO spaces for     1     0     0 n-mer: L1=   403, L0=   378

 DIRECT SCF CALCULATION, SCHWRZ=T   FDIFF=T,  DIRTHR=  0.00E+00 NITDIR=10

                                                                                   NONZERO     BLOCKS
 ITER EX DEM     TOTAL ENERGY        E CHANGE  DENSITY CHANGE     ORB. GRAD      INTEGRALS    SKIPPED
   1  0  0    -1552.1231512570 -1552.1231512570   0.006384691   0.000000000     1052874220   21839628
          ---------------START SECOND ORDER SCF---------------
   2  1  0    -1552.1229124649     0.0002387920   0.001264524   0.000316911      887885088   24121817
   3  2  0    -1552.1229782199    -0.0000657550   0.000774050   0.000149909      849486125   24471280
   4  3  0    -1552.1229229736     0.0000552463   0.000125510   0.000052711      794904461   24936344
   5  4  0    -1552.1229267738    -0.0000038002   0.000041400   0.000024676      742644040   25401586
   6  5  0    -1552.1229295600    -0.0000027862   0.000018656   0.000003827      690536180   25835352
   7  6  0    -1552.1229296606    -0.0000001006   0.000005051   0.000002801      632411979   26319143
   8  7  0    -1552.1229293885     0.0000002721   0.000001723   0.000000896      585940093   26718464
   9  8  0    -1552.1229294256    -0.0000000371   0.000000924   0.000000559      537131556   27118655
  10  9  0    -1552.1229294443    -0.0000000187   0.000000338   0.000000176      494681906   27451801
  11 10  0    -1552.1229294310     0.0000000133   0.000000132   0.000000052      447482613   27837029
  12 11  0    -1552.1229294214     0.0000000096   0.000000058   0.000000014      401019720   28190150

          -----------------
          DENSITY CONVERGED
          -----------------
     TIME TO FORM FOCK OPERATORS=      25.7 SECONDS (       2.1 SEC/ITER)
     FOCK TIME ON FIRST ITERATION=       3.9, LAST ITERATION=       1.2
     TIME TO SOLVE SCF EQUATIONS=       0.5 SECONDS (       0.0 SEC/ITER)

 FINAL RHF ENERGY IS    -1552.1229294214 AFTER  12 ITERATIONS
 ...... END OF RHF CALCULATION ......
 CPU     0: STEP CPU TIME=    45.24 TOTAL CPU TIME=       1131.6 (     18.9 MIN)
 TOTAL WALL CLOCK TIME=       2472.4 SECONDS, CPU UTILIZATION IS    45.77%
 DONE PCM POT.
 CPU     0: STEP CPU TIME=     0.36 TOTAL CPU TIME=       1131.9 (     18.9 MIN)
 TOTAL WALL CLOCK TIME=       2473.6 SECONDS, CPU UTILIZATION IS    45.76%

 Iter=  4 iFrag=      1 EFMO= -1597.657242183, DD= 0.007701852, DE=-0.025816787


 RHF      monomer      7 corr= NONE       , L1=   386, L0=   362 ID=      2


 AO spaces for     7     0     0 n-mer: L1=   386, L0=   362

 DIRECT SCF CALCULATION, SCHWRZ=T   FDIFF=T,  DIRTHR=  0.00E+00 NITDIR=10

                                                                                   NONZERO     BLOCKS
 ITER EX DEM     TOTAL ENERGY        E CHANGE  DENSITY CHANGE     ORB. GRAD      INTEGRALS    SKIPPED
   1  0  0    -1468.8611629124 -1468.8611629124   0.006184290   0.000000000      935738631   17462782
          ---------------START SECOND ORDER SCF---------------
   2  1  0    -1468.8608629840     0.0002999284   0.001310083   0.000318090      802299089   19358451
   3  2  0    -1468.8609085128    -0.0000455288   0.000837940   0.000168562      766091371   19682382
   4  3  0    -1468.8608458161     0.0000626967   0.000134064   0.000051592      720535700   20079566
   5  4  0    -1468.8608492806    -0.0000034645   0.000040395   0.000026670      677288702   20444228
   6  5  0    -1468.8608506153    -0.0000013347   0.000021689   0.000004965      624257973   20873060
   7  6  0    -1468.8608509054    -0.0000002901   0.000005955   0.000003045      577436951   21261120
   8  7  0    -1468.8608506429     0.0000002625   0.000002069   0.000001062      531539672   21650077
   9  8  0    -1468.8608505650     0.0000000779   0.000000972   0.000000698      497180701   21935468
  10  9  0    -1468.8608505620     0.0000000029   0.000000341   0.000000209      455454891   22257322
