‘4A4U_3_fmo_input.inp’ -> ‘/scratch/hazwong/824209/./4A4U_3_fmo_input.inp’
‘rungms’ -> ‘/scratch/hazwong/824209/./rungms’
‘gms-files.csh’ -> ‘/scratch/hazwong/824209/./gms-files.csh’
----- GAMESS execution script 'rungms' -----
This job is running on host gollum080.lsa.umich.edu
under operating system Linux at Sat Dec 7 00:11:24 EST 2019
Available scratch disk space (Kbyte units) at beginning of the job is
Filesystem     1K-blocks  Used Available Use% Mounted on
/dev/sda4      426933580 33428 426900152   1% /scratch
GAMESS temporary binary files will be written to /scratch/hazwong/824209/4A4U_3/usrc
GAMESS supplementary output files will be written to /scratch/hazwong/824209/4A4U_3/src
Copying input file 4A4U_3_fmo_input.inp to your run's scratch directory...
cp 4A4U_3_fmo_input.inp /scratch/hazwong/824209/4A4U_3/usrc/4A4U_3_fmo_input.F05
unset echo
This is a GDDI run, keeping various output files on local disks
setenv OUTPUT /scratch/hazwong/824209/4A4U_3/usrc/4A4U_3_fmo_input.F06
setenv PUNCH /scratch/hazwong/824209/4A4U_3/usrc/4A4U_3_fmo_input.F07
unset echo
 
Assuming a single but multicore node.
 
/export/apps/CentOS7/gamess/src/build//ddikick.x /export/apps/CentOS7/gamess/src/build//gamess.R3.x 4A4U_3_fmo_input -ddi 1 16 gollum080.lsa.umich.edu:cpus=16 -scr /scratch/hazwong/824209/4A4U_3/usrc

 Distributed Data Interface kickoff program.
 Initiating 16 compute processes on 1 nodes to run the following command:
 /export/apps/CentOS7/gamess/src/build//gamess.R3.x 4A4U_3_fmo_input 

          ******************************************************
          *         GAMESS VERSION = 30 SEP 2018 (R3)         *
          *             FROM IOWA STATE UNIVERSITY             *
          * M.W.SCHMIDT, K.K.BALDRIDGE, J.A.BOATZ, S.T.ELBERT, *
          *   M.S.GORDON, J.H.JENSEN, S.KOSEKI, N.MATSUNAGA,   *
          *          K.A.NGUYEN, S.J.SU, T.L.WINDUS,           *
          *       TOGETHER WITH M.DUPUIS, J.A.MONTGOMERY       *
          *         J.COMPUT.CHEM.  14, 1347-1363(1993)        *
          **************** 64 BIT LINUX VERSION ****************

  SINCE 1993, STUDENTS AND POSTDOCS WORKING AT IOWA STATE UNIVERSITY
  AND ALSO IN THEIR VARIOUS JOBS AFTER LEAVING ISU HAVE MADE IMPORTANT
  CONTRIBUTIONS TO THE CODE:
     IVANA ADAMOVIC, CHRISTINE AIKENS, YURI ALEXEEV, POOJA ARORA,
     ANDREY ASADCHEV, ROB BELL, PRADIPTA BANDYOPADHYAY, JONATHAN BENTZ,
     BRETT BODE, KURT BRORSEN, CALEB CARLIN, GALINA CHABAN, WEI CHEN,
     CHEOL HO CHOI, PAUL DAY, ALBERT DEFUSCO, NUWAN DESILVA, TIM DUDLEY,
     DMITRI FEDOROV, ALEX FINDLATER, GRAHAM FLETCHER, MARK FREITAG,
     KURT GLAESEMANN, ANASTASIA GUNINA,
     DAN KEMP, GRANT MERRILL, NORIYUKI MINEZAWA, JONATHAN MULLIN,
     TAKESHI NAGATA, SEAN NEDD, HEATHER NETZLOFF, BOSILJKA NJEGIC, RYAN OLSON,
     MIKE PAK, BUU PHAM,
     SPENCER PRUITT, LUKE ROSKOP, JIM SHOEMAKER, LYUDMILA SLIPCHENKO,
     TONY SMITH, SAROM SOK LEANG, JIE SONG, TETSUYA TAKETSUGU, SIMON WEBB,
     PENG XU, SOOHAENG YOO, FEDERICO ZAHARIEV

  ADDITIONAL CODE HAS BEEN PROVIDED BY COLLABORATORS IN OTHER GROUPS:
     IOWA STATE UNIVERSITY:
          JOE IVANIC, AARON WEST, LAIMUTIS BYTAUTAS, KLAUS RUEDENBERG
     UNIVERSITY OF TOKYO: KIMIHIKO HIRAO, TAKAHITO NAKAJIMA,
          TAKAO TSUNEDA, MUNEAKI KAMIYA, SUSUMU YANAGISAWA,
          KIYOSHI YAGI, MAHITO CHIBA, SEIKEN TOKURA, NAOAKI KAWAKAMI
     UNIVERSITY OF AARHUS: FRANK JENSEN
     UNIVERSITY OF IOWA: VISVALDAS KAIRYS, HUI LI
     NATIONAL INST. OF STANDARDS AND TECHNOLOGY: WALT STEVENS, DAVID GARMER
     UNIVERSITY OF PISA: BENEDETTA MENNUCCI, JACOPO TOMASI
     UNIVERSITY OF MEMPHIS: HENRY KURTZ, PRAKASHAN KORAMBATH
     UNIVERSITY OF ALBERTA: TOBY ZENG, MARIUSZ KLOBUKOWSKI
     UNIVERSITY OF NEW ENGLAND: MARK SPACKMAN
     MIE UNIVERSITY: HIROAKI UMEDA
     NAT. INST. OF ADVANCED INDUSTRIAL SCIENCE AND TECHNOLOGY: KAZUO KITAURA
     MICHIGAN STATE UNIVERSITY:
          KAROL KOWALSKI, MARTA WLOCH, JEFFREY GOUR, JESSE LUTZ,
          WEI LI, JUN SHEN, J. EMILIANO DEUSTUA, PIOTR PIECUCH
     UNIVERSITY OF MINNESOTA:
          YINAN SHU
     UNIVERSITY OF SILESIA: MONIKA MUSIAL, STANISLAW KUCHARSKI
     FACULTES UNIVERSITAIRES NOTRE-DAME DE LA PAIX:
          OLIVIER QUINET, BENOIT CHAMPAGNE
     UNIVERSITY OF CALIFORNIA - SANTA BARBARA: BERNARD KIRTMAN
     INSTITUTE FOR MOLECULAR SCIENCE:
          KAZUYA ISHIMURA, MICHIO KATOUDA, AND SHIGERU NAGASE
     UNIVERSITY OF NOTRE DAME: ANNA POMOGAEVA, DAN CHIPMAN
     KYUSHU UNIVERSITY:
          HARUYUKI NAKANO,
          FENG LONG GU, JACEK KORCHOWIEC, MARCIN MAKOWSKI, AND YURIKO AOKI,
          HIROTOSHI MORI AND EISAKU MIYOSHI
     PENNSYLVANIA STATE UNIVERSITY:
          TZVETELIN IORDANOV, CHET SWALINA, JONATHAN SKONE,
          SHARON HAMMES-SCHIFFER
     WASEDA UNIVERSITY:
          MASATO KOBAYASHI, TOMOKO AKAMA, TSUGUKI TOUMA,
          TAKESHI YOSHIKAWA, YASUHIRO IKABATA, JUNJI SEINO,
          YUYA NAKAJIMA, HIROMI NAKAI
     NANJING UNIVERSITY: SHUHUA LI
     UNIVERSITY OF NEBRASKA:
          PEIFENG SU, DEJUN SI, NANDUN THELLAMUREGE, YALI WANG, HUI LI
     UNIVERSITY OF ZURICH: ROBERTO PEVERATI, KIM BALDRIDGE
     N. COPERNICUS UNIVERSITY AND JACKSON STATE UNIVERSITY:
          MARIA BARYSZ
     UNIVERSITY OF COPENHAGEN: Jimmy Kromann, CASPER STEINMANN
     TOKYO INSTITUTE OF TECHNOLOGY: HIROYA NAKATA
     NAGOYA UNIVERSITY: YOSHIO NISHIMOTO, STEPHAN IRLE
     MOSCOW STATE UNIVERSITY: VLADIMIR MIRONOV


 PARALLEL VERSION RUNNING ON       16 PROCESSORS IN        1 NODES.

 EXECUTION OF GAMESS BEGUN Sat Dec  7 00:11:24 2019

            ECHO OF THE FIRST FEW INPUT CARDS -
 INPUT CARD>!*** FMO 5.3 (Gamess) INPUT generated by Facio 22.1.1.32 ***                    
 INPUT CARD> $CONTRL RUNTYP=ENERGY NPRINT=-5 ISPHER=1 MAXIT=200 $END                        
 INPUT CARD> $SYSTEM MWORDS=63 MEMDDI=63 $END                                               
 INPUT CARD> $GDDI NGROUP=1 $END                                                            
 INPUT CARD> $SCF DIRSCF=.TRUE. NPUNCH=0 $END                                               
 INPUT CARD>!*** NumCPU : 2  MemPerNode : 512MB                                             
 INPUT CARD> $PCM SOLVNT=WATER IEF=-10 ICOMP=2 ICAV=1 IDISP=1 IFMO=-1 $END                  
 INPUT CARD> $PCMCAV RADII=SUAHF $END                                                       
 INPUT CARD> $TESCAV NTSALL=60 $END                                                         
 INPUT CARD> $FMOPRP                                                                        
 INPUT CARD>    NAODIR=200                                                                  
 INPUT CARD>    NGRFMO(1)=1, 1, 0, 0, 0,   0, 0, 0, 0, 0                                    
 INPUT CARD>    IPIEDA=1                                                                    
 INPUT CARD>    NPRINT=9                                                                    
 INPUT CARD> $END                                                                           
 INPUT CARD> $FMO                                                                           
 INPUT CARD>      SCFTYP(1)=RHF                                                             
 INPUT CARD>      MODGRD=10                                                                 
 INPUT CARD>      MODMUL=0                                                                  
 INPUT CARD>      MAXCAO=5                                                                  
 INPUT CARD>      MAXBND=10                                                                 
 INPUT CARD>      NLAYER=1                                                                  
 INPUT CARD>      MPLEVL(1)=2                                                               
 INPUT CARD>      NFRAG=8                                                                   
 INPUT CARD>      ICHARG(1)=-1, -1, -1, -1, -1, -1, -1, 0                                   
 INPUT CARD>      FRGNAM(1)=F1, F2, F3, F4, F5, F6, F7, F8                                  
 INPUT CARD>      indat(1)=0                                                                
 INPUT CARD>               1   -36   0                                                      
 INPUT CARD>               37   -67   0                                                     
 INPUT CARD>               68   -97   0                                                     
 INPUT CARD>               98   -131   0                                                    
 INPUT CARD>               132   -164   0                                                   
 INPUT CARD>               165   -195   0                                                   
 INPUT CARD>               196   -229   0                                                   
 INPUT CARD>               230   -257   0                                                   
 INPUT CARD> $END                                                                           
 INPUT CARD>                                                                                
 INPUT CARD> $FMOBND                                                                        
 INPUT CARD>   -37   36       6-31G*    MINI                                                
 INPUT CARD>   -68   67       6-31G*    MINI                                                
 INPUT CARD>   -98   97       6-31G*    MINI                                                
 INPUT CARD>   -132   131       6-31G*    MINI                                              
 INPUT CARD>   -165   164       6-31G*    MINI                                              
 INPUT CARD>   -196   195       6-31G*    MINI                                              
 INPUT CARD>   -230   229       6-31G*    MINI                                              
 INPUT CARD> $END                                                                           
 INPUT CARD> $FMOHYB                                                                        
 INPUT CARD> 6-31G*      15   5                                                             
 INPUT CARD>   1 0  -0.065034   0.288264   0.000000   0.000000   0.604412                   
 INPUT CARD>         0.290129   0.000000   0.000000   0.319045  -0.017106                   


 -------------------------------------------------------------
 GROUP DDI, PROGRAMMED BY: RYAN M. OLSON AND DMITRI G. FEDOROV
        FEDOROV ET AL., J. COMPUT. CHEM., 25 (2004) 872.
 -------------------------------------------------------------

 -------------------------------------------------------
 GDDI: INITIALIZATION COMPLETED FOR GROUP     1 OF     1
 WITH    16 PROCESSES BALTYP=DLB   global rank=        0
 -------------------------------------------------------

   63000000 WORDS OF MEMORY AVAILABLE


     RUN TITLE
     ---------
  FMO calculation                                                                

 THE POINT GROUP OF THE MOLECULE IS C1      
 THE ORDER OF THE PRINCIPAL AXIS IS     0

 ATOM   ATOMIC CHARGE
 H.1-1       1.0
 O.1-1       8.0
 C.1-1       6.0
 N.1-1       7.0
 P.1-1      15.0

     ATOMIC BASIS SET LIBRARY
     ----------------
 THE CONTRACTED PRIMITIVE FUNCTIONS HAVE BEEN UNNORMALIZED
 THE CONTRACTED BASIS FUNCTIONS ARE NOW NORMALIZED TO UNITY

  SHELL TYPE  PRIMITIVE        EXPONENT          CONTRACTION COEFFICIENT(S)

 H.1-1     

      1   S       1            18.7311370    0.033494604338
      1   S       2             2.8253944    0.234726953484
      1   S       3             0.6401217    0.813757326146

      2   S       4             0.1612778    1.000000000000

 O.1-1     

      3   S       5          5484.6716600    0.001831074430
      3   S       6           825.2349460    0.013950172200
      3   S       7           188.0469580    0.068445078098
      3   S       8            52.9645000    0.232714335992
      3   S       9            16.8975704    0.470192897984
      3   S      10             5.7996353    0.358520852987

      4   L      11            15.5396162   -0.110777549525    0.070874268231
      4   L      12             3.5999336   -0.148026262701    0.339752839147
      4   L      13             1.0137618    1.130767015354    0.727158577316

      5   L      14             0.2700058    1.000000000000    1.000000000000

      6   D      15             0.8000000    1.000000000000

 C.1-1     

      7   S      16          3047.5248800    0.001834737132
      7   S      17           457.3695180    0.014037322813
      7   S      18           103.9486850    0.068842622264
      7   S      19            29.2101553    0.232184443216
      7   S      20             9.2866630    0.467941348435
      7   S      21             3.1639270    0.362311985337

      8   L      22             7.8682723   -0.119332419775    0.068999066591
      8   L      23             1.8812885   -0.160854151696    0.316423960957
      8   L      24             0.5442493    1.143456437840    0.744308290898

      9   L      25             0.1687145    1.000000000000    1.000000000000

     10   D      26             0.8000000    1.000000000000

 N.1-1     

     11   S      27          4173.5114600    0.001834772160
     11   S      28           627.4579110    0.013994627002
     11   S      29           142.9020930    0.068586551812
     11   S      30            40.2343293    0.232240873040
     11   S      31            12.8202129    0.469069948082
     11   S      32             4.3904370    0.360455199063

     12   L      33            11.6263619   -0.114961181702    0.067579743878
     12   L      34             2.7162798   -0.169117478561    0.323907295893
     12   L      35             0.7722184    1.145851947027    0.740895139755

     13   L      36             0.2120315    1.000000000000    1.000000000000

     14   D      37             0.8000000    1.000000000000

 P.1-1     

     15   S      38         19413.3000000    0.001851598923
     15   S      39          2909.4200000    0.014206191735
     15   S      40           661.3640000    0.069999459277
     15   S      41           185.7590000    0.240078860331
     15   S      42            59.1943000    0.484761717984
     15   S      43            20.0310000    0.335199804993

     16   L      44           339.4780000   -0.002782170105    0.004564616191
     16   L      45            81.0101000   -0.036049901354    0.033693571881
     16   L      46            25.8780000   -0.116631004382    0.139754883368
     16   L      47             9.4522100    0.096832803638    0.339361716786
     16   L      48             3.6656600    0.614418023082    0.450920623685
     16   L      49             1.4674600    0.403798015170    0.238585800889

     17   L      50             2.1562300   -0.252924113863   -0.017765312733
     17   L      51             0.7489970    0.032851844678    0.274058196433
     17   L      52             0.2831450    1.081254761783    0.785421562957

     18   L      53             0.0998317    1.000000000000    1.000000000000

     19   D      54             0.5500000    1.000000000000

 TOTAL NUMBER OF BASIS SET SHELLS             =   19
 NUMBER OF CARTESIAN GAUSSIAN BASIS FUNCTIONS =   66

     $CONTRL OPTIONS
     ---------------
 SCFTYP=RHF          RUNTYP=ENERGY       EXETYP=RUN     
 MPLEVL=       0     CITYP =NONE         CCTYP =NONE         VBTYP =NONE    
 DFTTYP=NONE         TDDFT =NONE    
 MULT  =       1     ICHARG=       0     NZVAR =       0     COORD =UNIQUE  
 PP    =NONE         RELWFN=NONE         LOCAL =NONE         NUMGRD=       F
 ISPHER=       1     NOSYM =       0     MAXIT =     200     UNITS =ANGS    
 PLTORB=       F     MOLPLT=       F     AIMPAC=       F     FRIEND=        
 NPRINT=      -5     IREST =       0     GEOM  =INPUT   
 NORMF =       0     NORMP =       0     ITOL  =      24     ICUT  =      12
 INTTYP=BEST         GRDTYP=BEST         QMTTOL= 1.0E-06

     $SYSTEM OPTIONS
     ---------------
  REPLICATED MEMORY=    63000000 WORDS (ON EVERY NODE).
 DISTRIBUTED MEMDDI=          63 MILLION WORDS IN AGGREGATE,
 MEMDDI DISTRIBUTED OVER  16 PROCESSORS IS     3937500 WORDS/PROCESSOR.
 TOTAL MEMORY REQUESTED ON EACH PROCESSOR=    66937500 WORDS.
 TIMLIM=      525600.00 MINUTES, OR     365.0 DAYS.
 PARALL= T  BALTYP=  DLB     KDIAG=    0  COREFL= F
 MXSEQ2=     300 MXSEQ3=     150  mem10=         0

 ** LOOKING UP INTERNALLY STORED DATA FOR SOLVENT=WATER    **
 OPTICAL AND PHYSICAL CONSTANTS:
 EPS= 78.390; EPSINF=  1.776; RSOLV=  1.385 A; VMOL=  18.070 ML/MOL;
 TCE= .25700E-03 1/K; STEN= 71.810 DYN/CM;  DSTEN=  0.6500; CMF=  1.2770


     -----------------------------------
     INPUT FOR PCM SOLVATION CALCULATION 
     -----------------------------------
     IEF   =     -10
     ICOMP =       2     IFIELD=       0     ICAV  =       1
     IDISP =       1     IREP  =       0     IDP   =       0

     SOLVNT=WATER        EPS   = 78.3900     EPSINF=  1.7760
     VMOL  = 18.0700     TCE   =  0.00025700 STEN  = 71.8100
     DSTEN =  0.6500     CMF   =  1.2770     RSOLV =  1.3850

     NESFP =       0
     OMEGA = 40.0000     RET   =100.0000     FRO   =  0.7000

     TABS  =298.0000     IPRINT=       0

     --------------------------------
     INPUT FOR ITERATIVE C-PCM METHOD 
     --------------------------------
     IPCMIT  =         1     MXDIIS  =        50
     MXITR1  =       200     MXITR2  =       200
     THRES   = 0.100E-09     IMUL    =         3
     RCUT(1) =   20.0000     RCUT(2) =   50.0000

     IDIRCT  =         1
     IMGABI  =         0     RABI    =    4.0000
     IMGASC  =         0     RASC    =   20.0000
     THRSLS  = 0.500E-03     DENSLS  =    0.0100
     IEFPOL  =         1     REFPOL  =    0.0000

     INPUT FOR ISOTROPIC DIELECTRICS
     -------------------------------
     EPS=    78.39

          ----------------
          PROPERTIES INPUT
          ----------------

     MOMENTS            FIELD           POTENTIAL          DENSITY
 IEMOM =       1   IEFLD =       0   IEPOT =       0   IEDEN =       0
 WHERE =COMASS     WHERE =NUCLEI     WHERE =NUCLEI     WHERE =NUCLEI  
 OUTPUT=BOTH       OUTPUT=BOTH       OUTPUT=NONE       OUTPUT=BOTH    
 IEMINT=       0   IEFINT=       0                     IEDINT=       0
                                                       MORB  =       0
          EXTRAPOLATION IN EFFECT
          SOSCF IN EFFECT
 ORBITAL PRINTING OPTION: NPREO=     1 32767     2     1

     -------------------------------
     INTEGRAL TRANSFORMATION OPTIONS
     -------------------------------
     NWORD  =            0
     CUTOFF = 1.0E-10     MPTRAN =       0
     DIRTRF =       T     AOINTS =DUP     

          ----------------------
          INTEGRAL INPUT OPTIONS
          ----------------------
 NOPK  =       1 NORDER=       0 SCHWRZ=       T

 ..... DONE SETTING UP THE RUN .....
 CPU     0: STEP CPU TIME=     0.03 TOTAL CPU TIME=          0.0 (      0.0 MIN)
 TOTAL WALL CLOCK TIME=          0.1 SECONDS, CPU UTILIZATION IS    50.00%
 CPU     0: STEP CPU TIME=     0.00 TOTAL CPU TIME=          0.0 (      0.0 MIN)
 TOTAL WALL CLOCK TIME=          0.1 SECONDS, CPU UTILIZATION IS    50.00%

                    ----------------------
                    AO INTEGRAL TECHNOLOGY
                    ----------------------
     S,P,L SHELL ROTATED AXIS INTEGRALS, REPROGRAMMED BY
        KAZUYA ISHIMURA (IMS) AND JOSE SIERRA (SYNSTAR).
     S,P,D,L SHELL ROTATED AXIS INTEGRALS PROGRAMMED BY
        KAZUYA ISHIMURA (INSTITUTE FOR MOLECULAR SCIENCE).
     S,P,D,F,G SHELL TO TOTAL QUARTET ANGULAR MOMENTUM SUM 5,
        ERIC PROGRAM BY GRAHAM FLETCHER (ELORET AND NASA ADVANCED
        SUPERCOMPUTING DIVISION, AMES RESEARCH CENTER).
     S,P,D,F,G,L SHELL GENERAL RYS QUADRATURE PROGRAMMED BY
        MICHEL DUPUIS (PACIFIC NORTHWEST NATIONAL LABORATORY).
 Setting modorb=1 flag...
 Setting modorb=1 flag...

          -----------------------
          MP2 CONTROL INFORMATION
          -----------------------
          NACORE =        8  NBCORE =        8
          LMOMP2 =        F  AOINTS = DUP     
          METHOD =        2  NWORD  =               0
          MP2PRP =        F  OSPT   = NONE    
          CUTOFF = 1.00E-12  CPHFBS = BASISAO 
          CODE   = IMS     

          NUMBER OF CORE -A-  ORBITALS =     8
          NUMBER OF CORE -B-  ORBITALS =     8
          NUMBER OF OCC. -A-  ORBITALS =    18
          NUMBER OF OCC. -B-  ORBITALS =    18
          NUMBER OF MOLECULAR ORBITALS =    66
          NUMBER OF   BASIS  FUNCTIONS =    66

 CPU     0: STEP CPU TIME=     0.02 TOTAL CPU TIME=          0.1 (      0.0 MIN)
 TOTAL WALL CLOCK TIME=          0.1 SECONDS, CPU UTILIZATION IS    55.56%
 CPU     0: STEP CPU TIME=     0.00 TOTAL CPU TIME=          0.1 (      0.0 MIN)
 TOTAL WALL CLOCK TIME=          0.1 SECONDS, CPU UTILIZATION IS    55.56%

     INPUT FOR CAVITY DEFINITION 
     ---------------------------
   ATOM               COORDINATES                RADIUS       EPS
      1    -13.5890     -6.2670     -2.5060      0.0100     78.3900
      2    -12.9100     -6.5610     -1.8690      1.5900     78.3900
      3    -12.5820     -7.9150     -2.2180      1.7700     78.3900
      4    -12.1910     -7.9450     -3.2600      0.0100     78.3900
      5    -13.5050     -8.5360     -2.1800      0.0100     78.3900
      6    -11.5370     -8.5340     -1.2860      1.7700     78.3900
      7    -11.3180     -9.5810     -1.5870      0.0100     78.3900
      8    -10.2840     -7.7930     -1.3650      1.5900     78.3900
      9     -9.7000     -7.7290     -0.0730      1.7700     78.3900
     10     -8.6690     -8.1440     -0.1520      0.0100     78.3900
     11     -9.6230     -6.3420      0.4090      1.6800     78.3900
     12     -8.8420     -5.8930      1.4390      1.7700     78.3900
     13     -6.5010     -6.5090      3.9080      1.6800     78.3900
     14     -6.3610     -7.4950      3.8400      0.0100     78.3900
     15     -5.9910     -5.9910      4.6010      0.0100     78.3900
     16     -8.0280     -6.6480      2.1940      1.6800     78.3900
     17     -7.3500     -5.9290      3.0830      1.7700     78.3900
     18     -7.4670     -4.5680      3.1920      1.6800     78.3900
     19     -6.9180     -4.1000      3.8970      0.0100     78.3900
     20     -8.2980     -3.7610      2.4260      1.7700     78.3900
     21     -8.3370     -2.5370      2.5890      1.5900     78.3900
     22     -9.0490     -4.5280      1.4950      1.7700     78.3900
     23     -9.9740     -4.1270      0.5380      1.6800     78.3900
     24    -10.2890     -5.2400     -0.0860      1.7700     78.3900
     25    -10.9840     -5.3210     -0.9280      0.0100     78.3900
     26    -10.5200     -8.6100      0.8400      1.7700     78.3900
     27    -10.5290     -8.2430      1.8850      0.0100     78.3900
     28    -10.0230     -9.9320      0.8050      1.5900     78.3900
     29    -10.6180    -10.4540      1.3540      0.0100     78.3900
     30    -11.9020     -8.5240      0.2050      1.7700     78.3900
     31    -12.3710     -7.5350      0.4170      0.0100     78.3900
     32    -12.7760     -9.6380      0.5040      1.5900     78.3900
     33    -13.7430     -9.5490      1.7420      2.1000     78.3900
     34    -14.4810     -8.2740      1.6860      1.5900     78.3900
     35    -14.5560    -10.7880      1.7660      1.5900     78.3900
     36    -12.7680     -9.5110      2.9760      1.5900     78.3900
     37    -12.0540    -10.7060      3.3710      1.7700     78.3900
     38    -11.4920    -11.1550      2.5190      0.0100     78.3900
     39    -12.7740    -11.4770      3.7370      0.0100     78.3900
     40    -11.0560    -10.4070      4.4990      1.7700     78.3900
     41    -10.4610    -11.3120      4.7510      0.0100     78.3900
     42    -10.1050     -9.3780      4.0930      1.5900     78.3900
     43     -9.7820     -8.5670      5.2210      1.7700     78.3900
     44     -8.6780     -8.6520      5.3520      0.0100     78.3900
     45    -10.1350     -7.1270      5.0390      1.6800     78.3900
     46    -11.0540     -6.7610      4.0840      1.7700     78.3900
     47    -11.4980     -7.5770      3.5110      0.0100     78.3900
     48    -11.3680     -5.4770      3.8700      1.7700     78.3900
     49    -12.0720     -5.1710      3.0980      0.0100     78.3900
     50     -9.5620     -6.1480      5.8550      1.7700     78.3900
     51     -8.7590     -6.4860      6.7380      1.5900     78.3900
     52     -9.8710     -4.8450      5.6560      1.6800     78.3900
     53    -10.7410     -4.4980      4.6930      1.7700     78.3900
     54    -11.0070     -3.2100      4.5020      1.6800     78.3900
     55    -10.5370     -2.5200      5.0600      0.0100     78.3900
     56    -11.5870     -2.8910      3.7550      0.0100     78.3900
     57    -10.4670     -9.1810      6.4220      1.7700     78.3900
     58    -10.7790     -8.4160      7.1460      0.0100     78.3900
     59     -9.6130    -10.1040      7.0680      1.5900     78.3900
     60    -10.1570    -10.6400      7.6670      0.0100     78.3900
     61    -11.6700     -9.8650      5.7910      1.7700     78.3900
     62    -12.4350     -9.1180      5.4830      0.0100     78.3900
     63    -12.2090    -10.9410      6.5820      1.5900     78.3900
     64    -13.5250    -10.7610      7.4210      2.1000     78.3900
     65    -14.6820    -10.7170      6.5060      1.5900     78.3900
     66    -13.5490    -11.8200      8.4500      1.5900     78.3900
     67    -13.4160     -9.3650      8.1390      1.5900     78.3900
     68    -12.5220     -9.1550      9.2540      1.7700     78.3900
     69    -11.5020     -9.5480      9.0400      0.0100     78.3900
     70    -12.9020     -9.6790     10.1630      0.0100     78.3900
     71    -12.3900     -7.6590      9.5790      1.7700     78.3900
     72    -11.6650     -7.5140     10.4100      0.0100     78.3900
     73    -11.8690     -6.9280      8.4310      1.5900     78.3900
     74    -12.5090     -5.6790      8.3110      1.7700     78.3900
     75    -11.6680     -4.9540      8.2820      0.0100     78.3900
     76    -13.2890     -5.5480      7.0480      1.6800     78.3900
     77    -13.6230     -6.6570      6.3030      1.7700     78.3900
     78    -13.2840     -7.6070      6.7120      0.0100     78.3900
     79    -13.6130     -4.2820      6.6090      1.7700     78.3900
     80    -13.3120     -3.2680      7.2290      1.5900     78.3900
     81    -14.2750     -4.2370      5.4100      1.6800     78.3900
     82    -14.5460     -3.3170      5.0920      0.0100     78.3900
     83    -14.6180     -5.2990      4.6010      1.7700     78.3900
     84    -15.1780     -5.0940      3.5280      1.5900     78.3900
     85    -14.2480     -6.5820      5.1190      1.7700     78.3900
     86    -14.4520     -7.4660      4.5190      0.0100     78.3900
     87    -13.3280     -5.4820      9.5740      1.7700     78.3900
     88    -14.2480     -4.8790      9.4100      0.0100     78.3900
     89    -12.4810     -4.8800     10.5410      1.5900     78.3900
     90    -12.7450     -3.9590     10.6490      0.0100     78.3900
     91    -13.6730     -6.9270      9.9630      1.7700     78.3900
     92    -14.4700     -7.3250      9.3000      0.0100     78.3900
     93    -13.9770     -7.1660     11.3670      1.5900     78.3900
     94    -15.1730     -6.3260     11.9700      2.1000     78.3900
     95    -16.1420     -6.0600     10.8840      1.5900     78.3900
     96    -15.7310     -7.0190     13.1550      1.5900     78.3900
     97    -14.6000     -4.9390     12.4420      1.5900     78.3900
     98    -13.9790     -4.7670     13.7310      1.7700     78.3900
     99    -13.1410     -5.4900     13.8640      0.0100     78.3900
    100    -14.7270     -4.9490     14.5370      0.0100     78.3900
    101    -13.3990     -3.3440     13.8800      1.7700     78.3900
    102    -12.4990     -3.2430     13.2360      0.0100     78.3900
    103    -14.3580     -2.3280     13.4670      1.5900     78.3900
    104    -14.8830     -1.6830     14.6090      1.7700     78.3900
    105    -14.4390     -0.6630     14.5980      0.0100     78.3900
    106    -16.3450     -1.6150     14.5490      1.6800     78.3900
    107    -17.1270     -0.5470     14.9010      1.7700     78.3900
    108    -17.4590      2.7100     16.0300      1.6800     78.3900
    109    -18.1870      3.3740     16.1900      0.0100     78.3900
    110    -16.5160      2.9520     16.2490      0.0100     78.3900
    111    -16.6890      0.6390     15.3730      1.6800     78.3900
    112    -17.6950      1.4930     15.5780      1.7700     78.3900
    113    -19.0070      1.1920     15.3290      1.6800     78.3900
    114    -19.6960      1.9000     15.4980      0.0100     78.3900
    115    -19.4830     -0.0250     14.8600      1.7700     78.3900
    116    -20.6880     -0.2210     14.6660      1.5900     78.3900
    117    -18.4280     -0.9510     14.6510      1.7700     78.3900
    118    -18.4620     -2.2580     14.1720      1.6800     78.3900
    119    -17.1970     -2.6100     14.1250      1.7700     78.3900
    120    -16.8150     -3.5740     13.7770      0.0100     78.3900
    121    -14.4000     -2.4280     15.8300      1.7700     78.3900
    122    -15.0780     -3.2820     16.0670      0.0100     78.3900
    123    -14.3080     -1.5740     16.9540      1.5900     78.3900
    124    -13.4340     -1.1290     16.9540      0.0100     78.3900
    125    -13.0520     -2.9830     15.3400      1.7700     78.3900
    126    -12.8220     -3.9390     15.8680      0.0100     78.3900
    127    -11.9250     -2.0750     15.3980      1.5900     78.3900
    128    -11.1440     -1.8840     16.7500      2.1000     78.3900
    129    -11.8440     -0.8210     17.5040      1.5900     78.3900
    130    -10.9840     -3.1940     17.4160      1.5900     78.3900
    131     -9.7430     -1.3700     16.2780      1.5900     78.3900
    132     -9.1050     -0.1960     16.8160      1.7700     78.3900
    133     -8.0620     -0.4630     17.0770      0.0100     78.3900
    134     -9.5780      0.1870     17.7470      0.0100     78.3900
    135     -9.0690      0.9640     15.8180      1.7700     78.3900
    136     -8.3890      1.7520     16.1940      0.0100     78.3900
    137     -8.4640      0.5560     14.5750      1.5900     78.3900
    138     -9.2170      1.0540     13.4810      1.7700     78.3900
    139     -8.5000      1.6170     12.8410      0.0100     78.3900
    140     -9.7610     -0.0480     12.6980      1.6800     78.3900
    141    -10.6360     -1.2360     11.0820      1.7700     78.3900
    142    -10.2550     -2.1460     12.0560      1.6800     78.3900
    143     -9.7390     -1.3920     12.9960      1.7700     78.3900
    144     -9.3190     -1.7570     13.9360      0.0100     78.3900
    145    -11.5150     -0.2950      9.0960      1.6800     78.3900
    146    -11.1750      0.8920      9.6030      1.7700     78.3900
    147    -11.4080      1.7530      8.9670      0.0100     78.3900
    148    -10.6200      1.1810     10.7860      1.6800     78.3900
    149    -10.3530      0.0570     11.4720      1.7700     78.3900
    150    -11.2430     -1.3970      9.8250      1.7700     78.3900
    151    -11.5080     -2.5870      9.2860      1.6800     78.3900
    152    -11.2590     -3.4410      9.7470      0.0100     78.3900
    153    -12.0200     -2.6270      8.4230      0.0100     78.3900
    154    -10.2930      1.9930     14.0010      1.7700     78.3900
    155    -11.2520      1.9030     13.4440      0.0100     78.3900
    156     -9.8530      3.3270     13.9410      1.5900     78.3900
    157     -9.1130      3.4330     14.5670      0.0100     78.3900
    158    -10.4660      1.5130     15.4350      1.7700     78.3900
    159    -11.1450      0.6350     15.3950      0.0100     78.3900
    160    -11.0030      2.4620     16.3790      1.5900     78.3900
    161    -10.2110      3.4780     17.2830      2.1000     78.3900
    162    -11.1300      4.5980     17.6090      1.5900     78.3900
    163     -9.6200      2.7470     18.4110      1.5900     78.3900
    164     -9.0440      4.0240     16.3820      1.5900     78.3900
    165     -8.5550      5.3750     16.4510      1.7700     78.3900
    166     -8.6850      5.8170     17.4690      0.0100     78.3900
    167     -9.1170      6.0200     15.7390      0.0100     78.3900
    168     -7.0630      5.4350     16.0890      1.7700     78.3900
    169     -6.7210      6.4850     15.9790      0.0100     78.3900
    170     -6.3030      4.8560     17.1920      1.5900     78.3900
    171     -5.2310      4.0630     16.6840      1.7700     78.3900
    172     -4.3100      4.4480     17.1740      0.0100     78.3900
    173     -5.3700      2.6060     17.0100      1.6800     78.3900
    174     -6.2070      2.2440     18.0490      1.7700     78.3900
    175     -6.8200      3.0380     18.4860      0.0100     78.3900
    176     -6.3160      0.9730     18.4490      1.7700     78.3900
    177     -6.9930      0.6710     19.2460      0.0100     78.3900
    178     -4.5110      1.6370     16.4680      1.7700     78.3900
    179     -3.5940      1.9800     15.7040      1.5900     78.3900
    180     -4.6630      0.3400     16.8080      1.6800     78.3900
    181     -5.5180     -0.0020     17.7840      1.7700     78.3900
    182     -5.6020     -1.2820     18.1370      1.6800     78.3900
    183     -5.0420     -1.9510     17.6450      0.0100     78.3900
    184     -6.2170     -1.6030     18.8550      0.0100     78.3900
    185     -5.1650      4.3440     15.1970      1.7700     78.3900
    186     -4.8300      3.4830     14.5870      0.0100     78.3900
    187     -4.3180      5.4540     14.9570      1.5900     78.3900
    188     -4.3500      5.6470     14.0060      0.0100     78.3900
    189     -6.6140      4.6340     14.8490      1.7700     78.3900
    190     -7.1870      3.6780     14.8210      0.0100     78.3900
    191     -6.7930      5.4070     13.6450      1.5900     78.3900
    192     -6.6200      4.7480     12.2180      2.1000     78.3900
    193     -7.7150      3.7870     12.0110      1.5900     78.3900
    194     -6.5640      5.8460     11.2370      1.5900     78.3900
    195     -5.2070      4.0290     12.2010      1.5900     78.3900
    196     -4.8170      3.2110     11.0720      1.7700     78.3900
    197     -3.7830      3.4890     10.7690      0.0100     78.3900
    198     -5.4500      3.3890     10.1660      0.0100     78.3900
    199     -4.8130      1.7170     11.4420      1.7700     78.3900
    200     -4.3230      1.5600     12.4280      0.0100     78.3900
    201     -6.1780      1.2300     11.5460      1.5900     78.3900
    202     -6.2760     -0.0650     10.9700      1.7700     78.3900
    203     -6.7620     -0.7160     11.7320      0.0100     78.3900
    204     -7.1040     -0.0620      9.7540      1.6800     78.3900
    205     -7.5830     -1.1510      9.0690      1.7700     78.3900
    206     -7.8170     -4.5800      8.6410      1.6800     78.3900
    207     -7.3050     -4.9340      9.4220      0.0100     78.3900
    208     -8.2020     -5.2230      7.9740      0.0100     78.3900
    209     -7.3710     -2.4430      9.3810      1.6800     78.3900
    210     -7.9450     -3.2730      8.5130      1.7700     78.3900
    211     -8.6990     -2.8480      7.4520      1.6800     78.3900
    212     -9.1090     -3.5470      6.8520      0.0100     78.3900
    213     -8.9740     -1.5250      7.1280      1.7700     78.3900
    214     -9.6760     -1.2380      6.1510      1.5900     78.3900
    215     -8.3110     -0.6310      8.0140      1.7700     78.3900
    216     -8.2700      0.7570      8.0230      1.6800     78.3900
    217     -7.5510      1.0480      9.0800      1.7700     78.3900
    218     -7.2980      2.0510      9.4300      0.0100     78.3900
    219     -4.8690     -0.5450     10.7020      1.7700     78.3900
    220     -4.7990     -1.2420      9.8410      0.0100     78.3900
    221     -4.3630     -1.1790     11.8620      1.5900     78.3900
    222     -4.3400     -0.5260     12.5750      0.0100     78.3900
    223     -4.1600      0.7730     10.4160      1.7700     78.3900
    224     -4.4690      1.1580      9.4160      0.0100     78.3900
    225     -2.7300      0.7330     10.6040      1.5900     78.3900
    226     -1.7750      0.7290      9.3560      2.1000     78.3900
    227     -2.3360      1.6340      8.3280      1.5900     78.3900
    228     -0.3940      1.0210      9.8030      1.5900     78.3900
    229     -1.8500     -0.7560      8.8280      1.5900     78.3900
    230     -1.3830     -1.8280      9.6820      1.7700     78.3900
    231     -1.8680     -1.7960     10.6870      0.0100     78.3900
    232     -0.2810     -1.7440      9.8340      0.0100     78.3900
    233     -1.6510     -3.2050      9.0610      1.7700     78.3900
    234     -1.1670     -4.0060      9.6630      0.0100     78.3900
    235     -3.0800     -3.4890      9.0590      1.5900     78.3900
    236     -3.4320     -4.1260      7.8370      1.7700     78.3900
    237     -3.9520     -5.0680      8.1280      0.0100     78.3900
    238     -4.3590     -3.3090      7.0050      1.6800     78.3900
    239     -4.4470     -1.9490      7.1940      1.7700     78.3900
    240     -3.8340     -1.5380      7.9960      0.0100     78.3900
    241     -5.2710     -1.1910      6.4590      1.7700     78.3900
    242     -5.3690     -0.1180      6.6110      0.0100     78.3900
    243     -5.1080     -3.9130      5.9980      1.7700     78.3900
    244     -4.9880     -5.1310      5.8020      1.5900     78.3900
    245     -5.9550     -3.1670      5.2530      1.6800     78.3900
    246     -6.0440     -1.8410      5.4560      1.7700     78.3900
    247     -6.8840     -1.1340      4.7060      1.6800     78.3900
    248     -7.4340     -1.5970      4.0070      0.0100     78.3900
    249     -6.9880     -0.1460      4.8140      0.0100     78.3900
    250     -2.1450     -4.4730      7.1070      1.7700     78.3900
    251     -2.2570     -4.4270      6.0010      0.0100     78.3900
    252     -1.6930     -5.7640      7.4870      1.5900     78.3900
    253     -1.4750     -5.7560      8.4330      0.0100     78.3900
    254     -1.2180     -3.3630      7.5980      1.7700     78.3900
    255     -1.4420     -2.4170      7.0620      0.0100     78.3900
    256      0.1830     -3.6690      7.5250      1.5900     78.3900
    257      0.4270     -3.8460      6.5990      0.0100     78.3900

     ----------------------------
     INPUT FOR TESSERA DEFINITION
     ----------------------------
     NTSALL  =        60     MTHALL  =         4
     MTHAUT  =         0     AUTFRE  =    2.0000
     NTSFRZ  =        60     KEEPSM  =         0
     AREAKP  =   10.0000     BONDRY  =    1.0000
     AREATL  =    0.0100

     SPHERE     INITS       METHOD
          1        60       FIXPVA
          2        60       FIXPVA
          3        60       FIXPVA
          4        60       FIXPVA
          5        60       FIXPVA
          6        60       FIXPVA
          7        60       FIXPVA
          8        60       FIXPVA
          9        60       FIXPVA
         10        60       FIXPVA
         11        60       FIXPVA
         12        60       FIXPVA
         13        60       FIXPVA
         14        60       FIXPVA
         15        60       FIXPVA
         16        60       FIXPVA
         17        60       FIXPVA
         18        60       FIXPVA
         19        60       FIXPVA
         20        60       FIXPVA
         21        60       FIXPVA
         22        60       FIXPVA
         23        60       FIXPVA
         24        60       FIXPVA
         25        60       FIXPVA
         26        60       FIXPVA
         27        60       FIXPVA
         28        60       FIXPVA
         29        60       FIXPVA
         30        60       FIXPVA
         31        60       FIXPVA
         32        60       FIXPVA
         33        60       FIXPVA
         34        60       FIXPVA
         35        60       FIXPVA
         36        60       FIXPVA
         37        60       FIXPVA
         38        60       FIXPVA
         39        60       FIXPVA
         40        60       FIXPVA
         41        60       FIXPVA
         42        60       FIXPVA
         43        60       FIXPVA
         44        60       FIXPVA
         45        60       FIXPVA
         46        60       FIXPVA
         47        60       FIXPVA
         48        60       FIXPVA
         49        60       FIXPVA
         50        60       FIXPVA
         51        60       FIXPVA
         52        60       FIXPVA
         53        60       FIXPVA
         54        60       FIXPVA
         55        60       FIXPVA
         56        60       FIXPVA
         57        60       FIXPVA
         58        60       FIXPVA
         59        60       FIXPVA
         60        60       FIXPVA
         61        60       FIXPVA
         62        60       FIXPVA
         63        60       FIXPVA
         64        60       FIXPVA
         65        60       FIXPVA
         66        60       FIXPVA
         67        60       FIXPVA
         68        60       FIXPVA
         69        60       FIXPVA
         70        60       FIXPVA
         71        60       FIXPVA
         72        60       FIXPVA
         73        60       FIXPVA
         74        60       FIXPVA
         75        60       FIXPVA
         76        60       FIXPVA
         77        60       FIXPVA
         78        60       FIXPVA
         79        60       FIXPVA
         80        60       FIXPVA
         81        60       FIXPVA
         82        60       FIXPVA
         83        60       FIXPVA
         84        60       FIXPVA
         85        60       FIXPVA
         86        60       FIXPVA
         87        60       FIXPVA
         88        60       FIXPVA
         89        60       FIXPVA
         90        60       FIXPVA
         91        60       FIXPVA
         92        60       FIXPVA
         93        60       FIXPVA
         94        60       FIXPVA
         95        60       FIXPVA
         96        60       FIXPVA
         97        60       FIXPVA
         98        60       FIXPVA
         99        60       FIXPVA
        100        60       FIXPVA
        101        60       FIXPVA
        102        60       FIXPVA
        103        60       FIXPVA
        104        60       FIXPVA
        105        60       FIXPVA
        106        60       FIXPVA
        107        60       FIXPVA
        108        60       FIXPVA
        109        60       FIXPVA
        110        60       FIXPVA
        111        60       FIXPVA
        112        60       FIXPVA
        113        60       FIXPVA
        114        60       FIXPVA
        115        60       FIXPVA
        116        60       FIXPVA
        117        60       FIXPVA
        118        60       FIXPVA
        119        60       FIXPVA
        120        60       FIXPVA
        121        60       FIXPVA
        122        60       FIXPVA
        123        60       FIXPVA
        124        60       FIXPVA
        125        60       FIXPVA
        126        60       FIXPVA
        127        60       FIXPVA
        128        60       FIXPVA
        129        60       FIXPVA
        130        60       FIXPVA
        131        60       FIXPVA
        132        60       FIXPVA
        133        60       FIXPVA
        134        60       FIXPVA
        135        60       FIXPVA
        136        60       FIXPVA
        137        60       FIXPVA
        138        60       FIXPVA
        139        60       FIXPVA
        140        60       FIXPVA
        141        60       FIXPVA
        142        60       FIXPVA
        143        60       FIXPVA
        144        60       FIXPVA
        145        60       FIXPVA
        146        60       FIXPVA
        147        60       FIXPVA
        148        60       FIXPVA
        149        60       FIXPVA
        150        60       FIXPVA
        151        60       FIXPVA
        152        60       FIXPVA
        153        60       FIXPVA
        154        60       FIXPVA
        155        60       FIXPVA
        156        60       FIXPVA
        157        60       FIXPVA
        158        60       FIXPVA
        159        60       FIXPVA
        160        60       FIXPVA
        161        60       FIXPVA
        162        60       FIXPVA
        163        60       FIXPVA
        164        60       FIXPVA
        165        60       FIXPVA
        166        60       FIXPVA
        167        60       FIXPVA
        168        60       FIXPVA
        169        60       FIXPVA
        170        60       FIXPVA
        171        60       FIXPVA
        172        60       FIXPVA
        173        60       FIXPVA
        174        60       FIXPVA
        175        60       FIXPVA
        176        60       FIXPVA
        177        60       FIXPVA
        178        60       FIXPVA
        179        60       FIXPVA
        180        60       FIXPVA
        181        60       FIXPVA
        182        60       FIXPVA
        183        60       FIXPVA
        184        60       FIXPVA
        185        60       FIXPVA
        186        60       FIXPVA
        187        60       FIXPVA
        188        60       FIXPVA
        189        60       FIXPVA
        190        60       FIXPVA
        191        60       FIXPVA
        192        60       FIXPVA
        193        60       FIXPVA
        194        60       FIXPVA
        195        60       FIXPVA
        196        60       FIXPVA
        197        60       FIXPVA
        198        60       FIXPVA
        199        60       FIXPVA
        200        60       FIXPVA
        201        60       FIXPVA
        202        60       FIXPVA
        203        60       FIXPVA
        204        60       FIXPVA
        205        60       FIXPVA
        206        60       FIXPVA
        207        60       FIXPVA
        208        60       FIXPVA
        209        60       FIXPVA
        210        60       FIXPVA
        211        60       FIXPVA
        212        60       FIXPVA
        213        60       FIXPVA
        214        60       FIXPVA
        215        60       FIXPVA
        216        60       FIXPVA
        217        60       FIXPVA
        218        60       FIXPVA
        219        60       FIXPVA
        220        60       FIXPVA
        221        60       FIXPVA
        222        60       FIXPVA
        223        60       FIXPVA
        224        60       FIXPVA
        225        60       FIXPVA
        226        60       FIXPVA
        227        60       FIXPVA
        228        60       FIXPVA
        229        60       FIXPVA
        230        60       FIXPVA
        231        60       FIXPVA
        232        60       FIXPVA
        233        60       FIXPVA
        234        60       FIXPVA
        235        60       FIXPVA
        236        60       FIXPVA
        237        60       FIXPVA
        238        60       FIXPVA
        239        60       FIXPVA
        240        60       FIXPVA
        241        60       FIXPVA
        242        60       FIXPVA
        243        60       FIXPVA
        244        60       FIXPVA
        245        60       FIXPVA
        246        60       FIXPVA
        247        60       FIXPVA
        248        60       FIXPVA
        249        60       FIXPVA
        250        60       FIXPVA
        251        60       FIXPVA
        252        60       FIXPVA
        253        60       FIXPVA
        254        60       FIXPVA
        255        60       FIXPVA
        256        60       FIXPVA
        257        60       FIXPVA

     ------------------------------
      FIXPVA TESSELLATION FOR PCM
         PEIFENG SU AND HUI LI
     UNIVERSITY OF NEBRASKA-LINCOLN
     ------------------------------


 PCM DIMENSIONS: MXSP=   257, MXTS=     10280, MEMORY=        105630

     INPUT FOR CAVITY DEFINITION 
     ---------------------------
   ATOM               COORDINATES                RADIUS       EPS
      1    -13.5890     -6.2670     -2.5060      0.0100     78.3900
      2    -12.9100     -6.5610     -1.8690      1.5900     78.3900
      3    -12.5820     -7.9150     -2.2180      1.7700     78.3900
      4    -12.1910     -7.9450     -3.2600      0.0100     78.3900
      5    -13.5050     -8.5360     -2.1800      0.0100     78.3900
      6    -11.5370     -8.5340     -1.2860      1.7700     78.3900
      7    -11.3180     -9.5810     -1.5870      0.0100     78.3900
      8    -10.2840     -7.7930     -1.3650      1.5900     78.3900
      9     -9.7000     -7.7290     -0.0730      1.7700     78.3900
     10     -8.6690     -8.1440     -0.1520      0.0100     78.3900
     11     -9.6230     -6.3420      0.4090      1.6800     78.3900
     12     -8.8420     -5.8930      1.4390      1.7700     78.3900
     13     -6.5010     -6.5090      3.9080      1.6800     78.3900
     14     -6.3610     -7.4950      3.8400      0.0100     78.3900
     15     -5.9910     -5.9910      4.6010      0.0100     78.3900
     16     -8.0280     -6.6480      2.1940      1.6800     78.3900
     17     -7.3500     -5.9290      3.0830      1.7700     78.3900
     18     -7.4670     -4.5680      3.1920      1.6800     78.3900
     19     -6.9180     -4.1000      3.8970      0.0100     78.3900
     20     -8.2980     -3.7610      2.4260      1.7700     78.3900
     21     -8.3370     -2.5370      2.5890      1.5900     78.3900
     22     -9.0490     -4.5280      1.4950      1.7700     78.3900
     23     -9.9740     -4.1270      0.5380      1.6800     78.3900
     24    -10.2890     -5.2400     -0.0860      1.7700     78.3900
     25    -10.9840     -5.3210     -0.9280      0.0100     78.3900
     26    -10.5200     -8.6100      0.8400      1.7700     78.3900
     27    -10.5290     -8.2430      1.8850      0.0100     78.3900
     28    -10.0230     -9.9320      0.8050      1.5900     78.3900
     29    -10.6180    -10.4540      1.3540      0.0100     78.3900
     30    -11.9020     -8.5240      0.2050      1.7700     78.3900
     31    -12.3710     -7.5350      0.4170      0.0100     78.3900
     32    -12.7760     -9.6380      0.5040      1.5900     78.3900
     33    -13.7430     -9.5490      1.7420      2.1000     78.3900
     34    -14.4810     -8.2740      1.6860      1.5900     78.3900
     35    -14.5560    -10.7880      1.7660      1.5900     78.3900
     36    -12.7680     -9.5110      2.9760      1.5900     78.3900
     37    -12.0540    -10.7060      3.3710      1.7700     78.3900
     38    -11.4920    -11.1550      2.5190      0.0100     78.3900
     39    -12.7740    -11.4770      3.7370      0.0100     78.3900
     40    -11.0560    -10.4070      4.4990      1.7700     78.3900
     41    -10.4610    -11.3120      4.7510      0.0100     78.3900
     42    -10.1050     -9.3780      4.0930      1.5900     78.3900
     43     -9.7820     -8.5670      5.2210      1.7700     78.3900
     44     -8.6780     -8.6520      5.3520      0.0100     78.3900
     45    -10.1350     -7.1270      5.0390      1.6800     78.3900
     46    -11.0540     -6.7610      4.0840      1.7700     78.3900
     47    -11.4980     -7.5770      3.5110      0.0100     78.3900
     48    -11.3680     -5.4770      3.8700      1.7700     78.3900
     49    -12.0720     -5.1710      3.0980      0.0100     78.3900
     50     -9.5620     -6.1480      5.8550      1.7700     78.3900
     51     -8.7590     -6.4860      6.7380      1.5900     78.3900
     52     -9.8710     -4.8450      5.6560      1.6800     78.3900
     53    -10.7410     -4.4980      4.6930      1.7700     78.3900
     54    -11.0070     -3.2100      4.5020      1.6800     78.3900
     55    -10.5370     -2.5200      5.0600      0.0100     78.3900
     56    -11.5870     -2.8910      3.7550      0.0100     78.3900
     57    -10.4670     -9.1810      6.4220      1.7700     78.3900
     58    -10.7790     -8.4160      7.1460      0.0100     78.3900
     59     -9.6130    -10.1040      7.0680      1.5900     78.3900
     60    -10.1570    -10.6400      7.6670      0.0100     78.3900
     61    -11.6700     -9.8650      5.7910      1.7700     78.3900
     62    -12.4350     -9.1180      5.4830      0.0100     78.3900
     63    -12.2090    -10.9410      6.5820      1.5900     78.3900
     64    -13.5250    -10.7610      7.4210      2.1000     78.3900
     65    -14.6820    -10.7170      6.5060      1.5900     78.3900
     66    -13.5490    -11.8200      8.4500      1.5900     78.3900
     67    -13.4160     -9.3650      8.1390      1.5900     78.3900
     68    -12.5220     -9.1550      9.2540      1.7700     78.3900
     69    -11.5020     -9.5480      9.0400      0.0100     78.3900
     70    -12.9020     -9.6790     10.1630      0.0100     78.3900
     71    -12.3900     -7.6590      9.5790      1.7700     78.3900
     72    -11.6650     -7.5140     10.4100      0.0100     78.3900
     73    -11.8690     -6.9280      8.4310      1.5900     78.3900
     74    -12.5090     -5.6790      8.3110      1.7700     78.3900
     75    -11.6680     -4.9540      8.2820      0.0100     78.3900
     76    -13.2890     -5.5480      7.0480      1.6800     78.3900
     77    -13.6230     -6.6570      6.3030      1.7700     78.3900
     78    -13.2840     -7.6070      6.7120      0.0100     78.3900
     79    -13.6130     -4.2820      6.6090      1.7700     78.3900
     80    -13.3120     -3.2680      7.2290      1.5900     78.3900
     81    -14.2750     -4.2370      5.4100      1.6800     78.3900
     82    -14.5460     -3.3170      5.0920      0.0100     78.3900
     83    -14.6180     -5.2990      4.6010      1.7700     78.3900
     84    -15.1780     -5.0940      3.5280      1.5900     78.3900
     85    -14.2480     -6.5820      5.1190      1.7700     78.3900
     86    -14.4520     -7.4660      4.5190      0.0100     78.3900
     87    -13.3280     -5.4820      9.5740      1.7700     78.3900
     88    -14.2480     -4.8790      9.4100      0.0100     78.3900
     89    -12.4810     -4.8800     10.5410      1.5900     78.3900
     90    -12.7450     -3.9590     10.6490      0.0100     78.3900
     91    -13.6730     -6.9270      9.9630      1.7700     78.3900
     92    -14.4700     -7.3250      9.3000      0.0100     78.3900
     93    -13.9770     -7.1660     11.3670      1.5900     78.3900
     94    -15.1730     -6.3260     11.9700      2.1000     78.3900
     95    -16.1420     -6.0600     10.8840      1.5900     78.3900
     96    -15.7310     -7.0190     13.1550      1.5900     78.3900
     97    -14.6000     -4.9390     12.4420      1.5900     78.3900
     98    -13.9790     -4.7670     13.7310      1.7700     78.3900
     99    -13.1410     -5.4900     13.8640      0.0100     78.3900
    100    -14.7270     -4.9490     14.5370      0.0100     78.3900
    101    -13.3990     -3.3440     13.8800      1.7700     78.3900
    102    -12.4990     -3.2430     13.2360      0.0100     78.3900
    103    -14.3580     -2.3280     13.4670      1.5900     78.3900
    104    -14.8830     -1.6830     14.6090      1.7700     78.3900
    105    -14.4390     -0.6630     14.5980      0.0100     78.3900
    106    -16.3450     -1.6150     14.5490      1.6800     78.3900
    107    -17.1270     -0.5470     14.9010      1.7700     78.3900
    108    -17.4590      2.7100     16.0300      1.6800     78.3900
    109    -18.1870      3.3740     16.1900      0.0100     78.3900
    110    -16.5160      2.9520     16.2490      0.0100     78.3900
    111    -16.6890      0.6390     15.3730      1.6800     78.3900
    112    -17.6950      1.4930     15.5780      1.7700     78.3900
    113    -19.0070      1.1920     15.3290      1.6800     78.3900
    114    -19.6960      1.9000     15.4980      0.0100     78.3900
    115    -19.4830     -0.0250     14.8600      1.7700     78.3900
    116    -20.6880     -0.2210     14.6660      1.5900     78.3900
    117    -18.4280     -0.9510     14.6510      1.7700     78.3900
    118    -18.4620     -2.2580     14.1720      1.6800     78.3900
    119    -17.1970     -2.6100     14.1250      1.7700     78.3900
    120    -16.8150     -3.5740     13.7770      0.0100     78.3900
    121    -14.4000     -2.4280     15.8300      1.7700     78.3900
    122    -15.0780     -3.2820     16.0670      0.0100     78.3900
    123    -14.3080     -1.5740     16.9540      1.5900     78.3900
    124    -13.4340     -1.1290     16.9540      0.0100     78.3900
    125    -13.0520     -2.9830     15.3400      1.7700     78.3900
    126    -12.8220     -3.9390     15.8680      0.0100     78.3900
    127    -11.9250     -2.0750     15.3980      1.5900     78.3900
    128    -11.1440     -1.8840     16.7500      2.1000     78.3900
    129    -11.8440     -0.8210     17.5040      1.5900     78.3900
    130    -10.9840     -3.1940     17.4160      1.5900     78.3900
    131     -9.7430     -1.3700     16.2780      1.5900     78.3900
    132     -9.1050     -0.1960     16.8160      1.7700     78.3900
    133     -8.0620     -0.4630     17.0770      0.0100     78.3900
    134     -9.5780      0.1870     17.7470      0.0100     78.3900
    135     -9.0690      0.9640     15.8180      1.7700     78.3900
    136     -8.3890      1.7520     16.1940      0.0100     78.3900
    137     -8.4640      0.5560     14.5750      1.5900     78.3900
    138     -9.2170      1.0540     13.4810      1.7700     78.3900
    139     -8.5000      1.6170     12.8410      0.0100     78.3900
    140     -9.7610     -0.0480     12.6980      1.6800     78.3900
    141    -10.6360     -1.2360     11.0820      1.7700     78.3900
    142    -10.2550     -2.1460     12.0560      1.6800     78.3900
    143     -9.7390     -1.3920     12.9960      1.7700     78.3900
    144     -9.3190     -1.7570     13.9360      0.0100     78.3900
    145    -11.5150     -0.2950      9.0960      1.6800     78.3900
    146    -11.1750      0.8920      9.6030      1.7700     78.3900
    147    -11.4080      1.7530      8.9670      0.0100     78.3900
    148    -10.6200      1.1810     10.7860      1.6800     78.3900
    149    -10.3530      0.0570     11.4720      1.7700     78.3900
    150    -11.2430     -1.3970      9.8250      1.7700     78.3900
    151    -11.5080     -2.5870      9.2860      1.6800     78.3900
    152    -11.2590     -3.4410      9.7470      0.0100     78.3900
    153    -12.0200     -2.6270      8.4230      0.0100     78.3900
    154    -10.2930      1.9930     14.0010      1.7700     78.3900
    155    -11.2520      1.9030     13.4440      0.0100     78.3900
    156     -9.8530      3.3270     13.9410      1.5900     78.3900
    157     -9.1130      3.4330     14.5670      0.0100     78.3900
    158    -10.4660      1.5130     15.4350      1.7700     78.3900
    159    -11.1450      0.6350     15.3950      0.0100     78.3900
    160    -11.0030      2.4620     16.3790      1.5900     78.3900
    161    -10.2110      3.4780     17.2830      2.1000     78.3900
    162    -11.1300      4.5980     17.6090      1.5900     78.3900
    163     -9.6200      2.7470     18.4110      1.5900     78.3900
    164     -9.0440      4.0240     16.3820      1.5900     78.3900
    165     -8.5550      5.3750     16.4510      1.7700     78.3900
    166     -8.6850      5.8170     17.4690      0.0100     78.3900
    167     -9.1170      6.0200     15.7390      0.0100     78.3900
    168     -7.0630      5.4350     16.0890      1.7700     78.3900
    169     -6.7210      6.4850     15.9790      0.0100     78.3900
    170     -6.3030      4.8560     17.1920      1.5900     78.3900
    171     -5.2310      4.0630     16.6840      1.7700     78.3900
    172     -4.3100      4.4480     17.1740      0.0100     78.3900
    173     -5.3700      2.6060     17.0100      1.6800     78.3900
    174     -6.2070      2.2440     18.0490      1.7700     78.3900
    175     -6.8200      3.0380     18.4860      0.0100     78.3900
    176     -6.3160      0.9730     18.4490      1.7700     78.3900
    177     -6.9930      0.6710     19.2460      0.0100     78.3900
    178     -4.5110      1.6370     16.4680      1.7700     78.3900
    179     -3.5940      1.9800     15.7040      1.5900     78.3900
    180     -4.6630      0.3400     16.8080      1.6800     78.3900
    181     -5.5180     -0.0020     17.7840      1.7700     78.3900
    182     -5.6020     -1.2820     18.1370      1.6800     78.3900
    183     -5.0420     -1.9510     17.6450      0.0100     78.3900
    184     -6.2170     -1.6030     18.8550      0.0100     78.3900
    185     -5.1650      4.3440     15.1970      1.7700     78.3900
    186     -4.8300      3.4830     14.5870      0.0100     78.3900
    187     -4.3180      5.4540     14.9570      1.5900     78.3900
    188     -4.3500      5.6470     14.0060      0.0100     78.3900
    189     -6.6140      4.6340     14.8490      1.7700     78.3900
    190     -7.1870      3.6780     14.8210      0.0100     78.3900
    191     -6.7930      5.4070     13.6450      1.5900     78.3900
    192     -6.6200      4.7480     12.2180      2.1000     78.3900
    193     -7.7150      3.7870     12.0110      1.5900     78.3900
    194     -6.5640      5.8460     11.2370      1.5900     78.3900
    195     -5.2070      4.0290     12.2010      1.5900     78.3900
    196     -4.8170      3.2110     11.0720      1.7700     78.3900
    197     -3.7830      3.4890     10.7690      0.0100     78.3900
    198     -5.4500      3.3890     10.1660      0.0100     78.3900
    199     -4.8130      1.7170     11.4420      1.7700     78.3900
    200     -4.3230      1.5600     12.4280      0.0100     78.3900
    201     -6.1780      1.2300     11.5460      1.5900     78.3900
    202     -6.2760     -0.0650     10.9700      1.7700     78.3900
    203     -6.7620     -0.7160     11.7320      0.0100     78.3900
    204     -7.1040     -0.0620      9.7540      1.6800     78.3900
    205     -7.5830     -1.1510      9.0690      1.7700     78.3900
    206     -7.8170     -4.5800      8.6410      1.6800     78.3900
    207     -7.3050     -4.9340      9.4220      0.0100     78.3900
    208     -8.2020     -5.2230      7.9740      0.0100     78.3900
    209     -7.3710     -2.4430      9.3810      1.6800     78.3900
    210     -7.9450     -3.2730      8.5130      1.7700     78.3900
    211     -8.6990     -2.8480      7.4520      1.6800     78.3900
    212     -9.1090     -3.5470      6.8520      0.0100     78.3900
    213     -8.9740     -1.5250      7.1280      1.7700     78.3900
    214     -9.6760     -1.2380      6.1510      1.5900     78.3900
    215     -8.3110     -0.6310      8.0140      1.7700     78.3900
    216     -8.2700      0.7570      8.0230      1.6800     78.3900
    217     -7.5510      1.0480      9.0800      1.7700     78.3900
    218     -7.2980      2.0510      9.4300      0.0100     78.3900
    219     -4.8690     -0.5450     10.7020      1.7700     78.3900
    220     -4.7990     -1.2420      9.8410      0.0100     78.3900
    221     -4.3630     -1.1790     11.8620      1.5900     78.3900
    222     -4.3400     -0.5260     12.5750      0.0100     78.3900
    223     -4.1600      0.7730     10.4160      1.7700     78.3900
    224     -4.4690      1.1580      9.4160      0.0100     78.3900
    225     -2.7300      0.7330     10.6040      1.5900     78.3900
    226     -1.7750      0.7290      9.3560      2.1000     78.3900
    227     -2.3360      1.6340      8.3280      1.5900     78.3900
    228     -0.3940      1.0210      9.8030      1.5900     78.3900
    229     -1.8500     -0.7560      8.8280      1.5900     78.3900
    230     -1.3830     -1.8280      9.6820      1.7700     78.3900
    231     -1.8680     -1.7960     10.6870      0.0100     78.3900
    232     -0.2810     -1.7440      9.8340      0.0100     78.3900
    233     -1.6510     -3.2050      9.0610      1.7700     78.3900
    234     -1.1670     -4.0060      9.6630      0.0100     78.3900
    235     -3.0800     -3.4890      9.0590      1.5900     78.3900
    236     -3.4320     -4.1260      7.8370      1.7700     78.3900
    237     -3.9520     -5.0680      8.1280      0.0100     78.3900
    238     -4.3590     -3.3090      7.0050      1.6800     78.3900
    239     -4.4470     -1.9490      7.1940      1.7700     78.3900
    240     -3.8340     -1.5380      7.9960      0.0100     78.3900
    241     -5.2710     -1.1910      6.4590      1.7700     78.3900
    242     -5.3690     -0.1180      6.6110      0.0100     78.3900
    243     -5.1080     -3.9130      5.9980      1.7700     78.3900
    244     -4.9880     -5.1310      5.8020      1.5900     78.3900
    245     -5.9550     -3.1670      5.2530      1.6800     78.3900
    246     -6.0440     -1.8410      5.4560      1.7700     78.3900
    247     -6.8840     -1.1340      4.7060      1.6800     78.3900
    248     -7.4340     -1.5970      4.0070      0.0100     78.3900
    249     -6.9880     -0.1460      4.8140      0.0100     78.3900
    250     -2.1450     -4.4730      7.1070      1.7700     78.3900
    251     -2.2570     -4.4270      6.0010      0.0100     78.3900
    252     -1.6930     -5.7640      7.4870      1.5900     78.3900
    253     -1.4750     -5.7560      8.4330      0.0100     78.3900
    254     -1.2180     -3.3630      7.5980      1.7700     78.3900
    255     -1.4420     -2.4170      7.0620      0.0100     78.3900
    256      0.1830     -3.6690      7.5250      1.5900     78.3900
    257      0.4270     -3.8460      6.5990      0.0100     78.3900

 CREATION OF A NEW CAVITY WITH THE ORIGINAL SPHERE
 SIZES FOR THE COMPUTATION OF THE CAVITATION ENERGY.

     INPUT FOR CAVITY DEFINITION 
     ---------------------------
   ATOM               COORDINATES                RADIUS       EPS
      1    -13.5890     -6.2670     -2.5060      0.0100     78.3900
      2    -12.9100     -6.5610     -1.8690      1.5900     78.3900
      3    -12.5820     -7.9150     -2.2180      1.7700     78.3900
      4    -12.1910     -7.9450     -3.2600      0.0100     78.3900
      5    -13.5050     -8.5360     -2.1800      0.0100     78.3900
      6    -11.5370     -8.5340     -1.2860      1.7700     78.3900
      7    -11.3180     -9.5810     -1.5870      0.0100     78.3900
      8    -10.2840     -7.7930     -1.3650      1.5900     78.3900
      9     -9.7000     -7.7290     -0.0730      1.7700     78.3900
     10     -8.6690     -8.1440     -0.1520      0.0100     78.3900
     11     -9.6230     -6.3420      0.4090      1.6800     78.3900
     12     -8.8420     -5.8930      1.4390      1.7700     78.3900
     13     -6.5010     -6.5090      3.9080      1.6800     78.3900
     14     -6.3610     -7.4950      3.8400      0.0100     78.3900
     15     -5.9910     -5.9910      4.6010      0.0100     78.3900
     16     -8.0280     -6.6480      2.1940      1.6800     78.3900
     17     -7.3500     -5.9290      3.0830      1.7700     78.3900
     18     -7.4670     -4.5680      3.1920      1.6800     78.3900
     19     -6.9180     -4.1000      3.8970      0.0100     78.3900
     20     -8.2980     -3.7610      2.4260      1.7700     78.3900
     21     -8.3370     -2.5370      2.5890      1.5900     78.3900
     22     -9.0490     -4.5280      1.4950      1.7700     78.3900
     23     -9.9740     -4.1270      0.5380      1.6800     78.3900
     24    -10.2890     -5.2400     -0.0860      1.7700     78.3900
     25    -10.9840     -5.3210     -0.9280      0.0100     78.3900
     26    -10.5200     -8.6100      0.8400      1.7700     78.3900
     27    -10.5290     -8.2430      1.8850      0.0100     78.3900
     28    -10.0230     -9.9320      0.8050      1.5900     78.3900
     29    -10.6180    -10.4540      1.3540      0.0100     78.3900
     30    -11.9020     -8.5240      0.2050      1.7700     78.3900
     31    -12.3710     -7.5350      0.4170      0.0100     78.3900
     32    -12.7760     -9.6380      0.5040      1.5900     78.3900
     33    -13.7430     -9.5490      1.7420      2.1000     78.3900
     34    -14.4810     -8.2740      1.6860      1.5900     78.3900
     35    -14.5560    -10.7880      1.7660      1.5900     78.3900
     36    -12.7680     -9.5110      2.9760      1.5900     78.3900
     37    -12.0540    -10.7060      3.3710      1.7700     78.3900
     38    -11.4920    -11.1550      2.5190      0.0100     78.3900
     39    -12.7740    -11.4770      3.7370      0.0100     78.3900
     40    -11.0560    -10.4070      4.4990      1.7700     78.3900
     41    -10.4610    -11.3120      4.7510      0.0100     78.3900
     42    -10.1050     -9.3780      4.0930      1.5900     78.3900
     43     -9.7820     -8.5670      5.2210      1.7700     78.3900
     44     -8.6780     -8.6520      5.3520      0.0100     78.3900
     45    -10.1350     -7.1270      5.0390      1.6800     78.3900
     46    -11.0540     -6.7610      4.0840      1.7700     78.3900
     47    -11.4980     -7.5770      3.5110      0.0100     78.3900
     48    -11.3680     -5.4770      3.8700      1.7700     78.3900
     49    -12.0720     -5.1710      3.0980      0.0100     78.3900
     50     -9.5620     -6.1480      5.8550      1.7700     78.3900
     51     -8.7590     -6.4860      6.7380      1.5900     78.3900
     52     -9.8710     -4.8450      5.6560      1.6800     78.3900
     53    -10.7410     -4.4980      4.6930      1.7700     78.3900
     54    -11.0070     -3.2100      4.5020      1.6800     78.3900
     55    -10.5370     -2.5200      5.0600      0.0100     78.3900
     56    -11.5870     -2.8910      3.7550      0.0100     78.3900
     57    -10.4670     -9.1810      6.4220      1.7700     78.3900
     58    -10.7790     -8.4160      7.1460      0.0100     78.3900
     59     -9.6130    -10.1040      7.0680      1.5900     78.3900
     60    -10.1570    -10.6400      7.6670      0.0100     78.3900
     61    -11.6700     -9.8650      5.7910      1.7700     78.3900
     62    -12.4350     -9.1180      5.4830      0.0100     78.3900
     63    -12.2090    -10.9410      6.5820      1.5900     78.3900
     64    -13.5250    -10.7610      7.4210      2.1000     78.3900
     65    -14.6820    -10.7170      6.5060      1.5900     78.3900
     66    -13.5490    -11.8200      8.4500      1.5900     78.3900
     67    -13.4160     -9.3650      8.1390      1.5900     78.3900
     68    -12.5220     -9.1550      9.2540      1.7700     78.3900
     69    -11.5020     -9.5480      9.0400      0.0100     78.3900
     70    -12.9020     -9.6790     10.1630      0.0100     78.3900
     71    -12.3900     -7.6590      9.5790      1.7700     78.3900
     72    -11.6650     -7.5140     10.4100      0.0100     78.3900
     73    -11.8690     -6.9280      8.4310      1.5900     78.3900
     74    -12.5090     -5.6790      8.3110      1.7700     78.3900
     75    -11.6680     -4.9540      8.2820      0.0100     78.3900
     76    -13.2890     -5.5480      7.0480      1.6800     78.3900
     77    -13.6230     -6.6570      6.3030      1.7700     78.3900
     78    -13.2840     -7.6070      6.7120      0.0100     78.3900
     79    -13.6130     -4.2820      6.6090      1.7700     78.3900
     80    -13.3120     -3.2680      7.2290      1.5900     78.3900
     81    -14.2750     -4.2370      5.4100      1.6800     78.3900
     82    -14.5460     -3.3170      5.0920      0.0100     78.3900
     83    -14.6180     -5.2990      4.6010      1.7700     78.3900
     84    -15.1780     -5.0940      3.5280      1.5900     78.3900
     85    -14.2480     -6.5820      5.1190      1.7700     78.3900
     86    -14.4520     -7.4660      4.5190      0.0100     78.3900
     87    -13.3280     -5.4820      9.5740      1.7700     78.3900
     88    -14.2480     -4.8790      9.4100      0.0100     78.3900
     89    -12.4810     -4.8800     10.5410      1.5900     78.3900
     90    -12.7450     -3.9590     10.6490      0.0100     78.3900
     91    -13.6730     -6.9270      9.9630      1.7700     78.3900
     92    -14.4700     -7.3250      9.3000      0.0100     78.3900
     93    -13.9770     -7.1660     11.3670      1.5900     78.3900
     94    -15.1730     -6.3260     11.9700      2.1000     78.3900
     95    -16.1420     -6.0600     10.8840      1.5900     78.3900
     96    -15.7310     -7.0190     13.1550      1.5900     78.3900
     97    -14.6000     -4.9390     12.4420      1.5900     78.3900
     98    -13.9790     -4.7670     13.7310      1.7700     78.3900
     99    -13.1410     -5.4900     13.8640      0.0100     78.3900
    100    -14.7270     -4.9490     14.5370      0.0100     78.3900
    101    -13.3990     -3.3440     13.8800      1.7700     78.3900
    102    -12.4990     -3.2430     13.2360      0.0100     78.3900
    103    -14.3580     -2.3280     13.4670      1.5900     78.3900
    104    -14.8830     -1.6830     14.6090      1.7700     78.3900
    105    -14.4390     -0.6630     14.5980      0.0100     78.3900
    106    -16.3450     -1.6150     14.5490      1.6800     78.3900
    107    -17.1270     -0.5470     14.9010      1.7700     78.3900
    108    -17.4590      2.7100     16.0300      1.6800     78.3900
    109    -18.1870      3.3740     16.1900      0.0100     78.3900
    110    -16.5160      2.9520     16.2490      0.0100     78.3900
    111    -16.6890      0.6390     15.3730      1.6800     78.3900
    112    -17.6950      1.4930     15.5780      1.7700     78.3900
    113    -19.0070      1.1920     15.3290      1.6800     78.3900
    114    -19.6960      1.9000     15.4980      0.0100     78.3900
    115    -19.4830     -0.0250     14.8600      1.7700     78.3900
    116    -20.6880     -0.2210     14.6660      1.5900     78.3900
    117    -18.4280     -0.9510     14.6510      1.7700     78.3900
    118    -18.4620     -2.2580     14.1720      1.6800     78.3900
    119    -17.1970     -2.6100     14.1250      1.7700     78.3900
    120    -16.8150     -3.5740     13.7770      0.0100     78.3900
    121    -14.4000     -2.4280     15.8300      1.7700     78.3900
    122    -15.0780     -3.2820     16.0670      0.0100     78.3900
    123    -14.3080     -1.5740     16.9540      1.5900     78.3900
    124    -13.4340     -1.1290     16.9540      0.0100     78.3900
    125    -13.0520     -2.9830     15.3400      1.7700     78.3900
    126    -12.8220     -3.9390     15.8680      0.0100     78.3900
    127    -11.9250     -2.0750     15.3980      1.5900     78.3900
    128    -11.1440     -1.8840     16.7500      2.1000     78.3900
    129    -11.8440     -0.8210     17.5040      1.5900     78.3900
    130    -10.9840     -3.1940     17.4160      1.5900     78.3900
    131     -9.7430     -1.3700     16.2780      1.5900     78.3900
    132     -9.1050     -0.1960     16.8160      1.7700     78.3900
    133     -8.0620     -0.4630     17.0770      0.0100     78.3900
    134     -9.5780      0.1870     17.7470      0.0100     78.3900
    135     -9.0690      0.9640     15.8180      1.7700     78.3900
    136     -8.3890      1.7520     16.1940      0.0100     78.3900
    137     -8.4640      0.5560     14.5750      1.5900     78.3900
    138     -9.2170      1.0540     13.4810      1.7700     78.3900
    139     -8.5000      1.6170     12.8410      0.0100     78.3900
    140     -9.7610     -0.0480     12.6980      1.6800     78.3900
    141    -10.6360     -1.2360     11.0820      1.7700     78.3900
    142    -10.2550     -2.1460     12.0560      1.6800     78.3900
    143     -9.7390     -1.3920     12.9960      1.7700     78.3900
    144     -9.3190     -1.7570     13.9360      0.0100     78.3900
    145    -11.5150     -0.2950      9.0960      1.6800     78.3900
    146    -11.1750      0.8920      9.6030      1.7700     78.3900
    147    -11.4080      1.7530      8.9670      0.0100     78.3900
    148    -10.6200      1.1810     10.7860      1.6800     78.3900
    149    -10.3530      0.0570     11.4720      1.7700     78.3900
    150    -11.2430     -1.3970      9.8250      1.7700     78.3900
    151    -11.5080     -2.5870      9.2860      1.6800     78.3900
    152    -11.2590     -3.4410      9.7470      0.0100     78.3900
    153    -12.0200     -2.6270      8.4230      0.0100     78.3900
    154    -10.2930      1.9930     14.0010      1.7700     78.3900
    155    -11.2520      1.9030     13.4440      0.0100     78.3900
    156     -9.8530      3.3270     13.9410      1.5900     78.3900
    157     -9.1130      3.4330     14.5670      0.0100     78.3900
    158    -10.4660      1.5130     15.4350      1.7700     78.3900
    159    -11.1450      0.6350     15.3950      0.0100     78.3900
    160    -11.0030      2.4620     16.3790      1.5900     78.3900
    161    -10.2110      3.4780     17.2830      2.1000     78.3900
    162    -11.1300      4.5980     17.6090      1.5900     78.3900
    163     -9.6200      2.7470     18.4110      1.5900     78.3900
    164     -9.0440      4.0240     16.3820      1.5900     78.3900
    165     -8.5550      5.3750     16.4510      1.7700     78.3900
    166     -8.6850      5.8170     17.4690      0.0100     78.3900
    167     -9.1170      6.0200     15.7390      0.0100     78.3900
    168     -7.0630      5.4350     16.0890      1.7700     78.3900
    169     -6.7210      6.4850     15.9790      0.0100     78.3900
    170     -6.3030      4.8560     17.1920      1.5900     78.3900
    171     -5.2310      4.0630     16.6840      1.7700     78.3900
    172     -4.3100      4.4480     17.1740      0.0100     78.3900
    173     -5.3700      2.6060     17.0100      1.6800     78.3900
    174     -6.2070      2.2440     18.0490      1.7700     78.3900
    175     -6.8200      3.0380     18.4860      0.0100     78.3900
    176     -6.3160      0.9730     18.4490      1.7700     78.3900
    177     -6.9930      0.6710     19.2460      0.0100     78.3900
    178     -4.5110      1.6370     16.4680      1.7700     78.3900
    179     -3.5940      1.9800     15.7040      1.5900     78.3900
    180     -4.6630      0.3400     16.8080      1.6800     78.3900
    181     -5.5180     -0.0020     17.7840      1.7700     78.3900
    182     -5.6020     -1.2820     18.1370      1.6800     78.3900
    183     -5.0420     -1.9510     17.6450      0.0100     78.3900
    184     -6.2170     -1.6030     18.8550      0.0100     78.3900
    185     -5.1650      4.3440     15.1970      1.7700     78.3900
    186     -4.8300      3.4830     14.5870      0.0100     78.3900
    187     -4.3180      5.4540     14.9570      1.5900     78.3900
    188     -4.3500      5.6470     14.0060      0.0100     78.3900
    189     -6.6140      4.6340     14.8490      1.7700     78.3900
    190     -7.1870      3.6780     14.8210      0.0100     78.3900
    191     -6.7930      5.4070     13.6450      1.5900     78.3900
    192     -6.6200      4.7480     12.2180      2.1000     78.3900
    193     -7.7150      3.7870     12.0110      1.5900     78.3900
    194     -6.5640      5.8460     11.2370      1.5900     78.3900
    195     -5.2070      4.0290     12.2010      1.5900     78.3900
    196     -4.8170      3.2110     11.0720      1.7700     78.3900
    197     -3.7830      3.4890     10.7690      0.0100     78.3900
    198     -5.4500      3.3890     10.1660      0.0100     78.3900
    199     -4.8130      1.7170     11.4420      1.7700     78.3900
    200     -4.3230      1.5600     12.4280      0.0100     78.3900
    201     -6.1780      1.2300     11.5460      1.5900     78.3900
    202     -6.2760     -0.0650     10.9700      1.7700     78.3900
    203     -6.7620     -0.7160     11.7320      0.0100     78.3900
    204     -7.1040     -0.0620      9.7540      1.6800     78.3900
    205     -7.5830     -1.1510      9.0690      1.7700     78.3900
    206     -7.8170     -4.5800      8.6410      1.6800     78.3900
    207     -7.3050     -4.9340      9.4220      0.0100     78.3900
[...]
  11 10  0    -1346.3374136397    -0.0000001091   0.000002542   0.000000533      385041817   12578811
  12 11  0    -1346.3374137087    -0.0000000691   0.000000702   0.000000284      356700719   12822478
  13 12  0    -1346.3374137183    -0.0000000096   0.000000195   0.000000059      320991215   13123038
  14 13  0    -1346.3374137173     0.0000000010   0.000000092   0.000000024      289036511   13382430

          -----------------
          DENSITY CONVERGED
          -----------------
     TIME TO FORM FOCK OPERATORS=      22.5 SECONDS (       1.6 SEC/ITER)
     FOCK TIME ON FIRST ITERATION=       2.2, LAST ITERATION=       0.9
     TIME TO SOLVE SCF EQUATIONS=       0.4 SECONDS (       0.0 SEC/ITER)

 FINAL RHF ENERGY IS    -1346.3374137173 AFTER  14 ITERATIONS
 ...... END OF RHF CALCULATION ......
 CPU     0: STEP CPU TIME=    46.65 TOTAL CPU TIME=        792.8 (     13.2 MIN)
 TOTAL WALL CLOCK TIME=       1654.6 SECONDS, CPU UTILIZATION IS    47.91%
 DONE PCM POT.
 CPU     0: STEP CPU TIME=     0.27 TOTAL CPU TIME=        793.1 (     13.2 MIN)
 TOTAL WALL CLOCK TIME=       1655.5 SECONDS, CPU UTILIZATION IS    47.91%

 Iter=  2 iFrag=      3 EFMO= -1380.520283358, DD= 0.089042527, DE=-0.410652763


 RHF      monomer      8 corr= NONE       , L1=   264, L0=   248 ID=      8


 AO spaces for     8     0     0 n-mer: L1=   264, L0=   248

 DIRECT SCF CALCULATION, SCHWRZ=T   FDIFF=T,  DIRTHR=  0.00E+00 NITDIR=10

                                                                                   NONZERO     BLOCKS
 ITER EX DEM     TOTAL ENERGY        E CHANGE  DENSITY CHANGE     ORB. GRAD      INTEGRALS    SKIPPED
   1  0  0     -766.6320757027  -766.6320757027   0.034491092   0.000000000      333316372    3944388
          ---------------START SECOND ORDER SCF---------------
   2  1  0     -766.6398317431    -0.0077560404   0.007509895   0.002039088      318653545    4319040
   3  2  0     -766.6402784026    -0.0004466595   0.003857255   0.002256672      307862972    4490078
   4  3  0     -766.6402524707     0.0000259319   0.001234549   0.000359343      297698665    4628577
   5  4  0     -766.6401998480     0.0000526227   0.000376906   0.000238866      286994832    4770320
   6  5  0     -766.6402077004    -0.0000078524   0.000198577   0.000073177      273450332    4938308
   7  6  0     -766.6402167063    -0.0000090058   0.000057854   0.000033444      265473056    5030445
   8  7  0     -766.6402178347    -0.0000011284   0.000018587   0.000008207      248952886    5226924
   9  8  0     -766.6402178973    -0.0000000626   0.000008129   0.000003742      238709743    5345587
  10  9  0     -766.6402179340    -0.0000000367   0.000002433   0.000001843      221395544    5541341
  11 10  0     -766.6402179311     0.0000000029   0.000000953   0.000000329      205932102    5725215
  12 11  0     -766.6402179231     0.0000000080   0.000000284   0.000000140      192402352    5865419
  13 12  0     -766.6402179176     0.0000000055   0.000000112   0.000000062      171534459    6098205

          -----------------
          DENSITY CONVERGED
          -----------------
     TIME TO FORM FOCK OPERATORS=      11.2 SECONDS (       0.9 SEC/ITER)
     FOCK TIME ON FIRST ITERATION=       1.3, LAST ITERATION=       0.6
     TIME TO SOLVE SCF EQUATIONS=       0.2 SECONDS (       0.0 SEC/ITER)

 FINAL RHF ENERGY IS     -766.6402179176 AFTER  13 ITERATIONS
 ...... END OF RHF CALCULATION ......
 CPU     0: STEP CPU TIME=    21.22 TOTAL CPU TIME=        814.3 (     13.6 MIN)
 TOTAL WALL CLOCK TIME=       1702.3 SECONDS, CPU UTILIZATION IS    47.84%
 DONE PCM POT.
 CPU     0: STEP CPU TIME=     0.18 TOTAL CPU TIME=        814.5 (     13.6 MIN)
 TOTAL WALL CLOCK TIME=       1702.8 SECONDS, CPU UTILIZATION IS    47.83%

 Iter=  2 iFrag=      8 EFMO=  -795.825939742, DD= 0.040624061, DE= 0.000936061

 CPU     0: STEP CPU TIME=     0.00 TOTAL CPU TIME=        814.5 (     13.6 MIN)
 TOTAL WALL CLOCK TIME=       1702.8 SECONDS, CPU UTILIZATION IS    47.83%

  Monomer SCF synchronisation on iteration   2.1 took     0.0 s.
 CPU     0: STEP CPU TIME=     0.00 TOTAL CPU TIME=        814.5 (     13.6 MIN)
 TOTAL WALL CLOCK TIME=       1702.8 SECONDS, CPU UTILIZATION IS    47.83%
 dmexch needs              3065480  words of memory.
 CPU     0: STEP CPU TIME=     0.03 TOTAL CPU TIME=        814.5 (     13.6 MIN)
 TOTAL WALL CLOCK TIME=       1702.8 SECONDS, CPU UTILIZATION IS    47.83%

 Data exchange of   1015485 words took     0.0 s.

 Calculating apparent surface charges...
     Using       43570 words of memory.
 ASC ITERATION=   1 CONVERGED TO  0.537467E-02
 ASC ITERATION=   2 CONVERGED TO  0.386162E-01
 ASC ITERATION=   3 CONVERGED TO  0.645759E-01
 ASC ITERATION=   4 CONVERGED TO  0.112435E-01
 ASC ITERATION=   5 CONVERGED TO  0.477720E-02
 ASC ITERATION=   6 CONVERGED TO  0.147146E-02
 ASC ITERATION=   7 CONVERGED TO  0.106191E-02
 ASC ITERATION=   8 CONVERGED TO  0.833404E-03
 ASC ITERATION=   9 CONVERGED TO  0.418044E-03
 ASC ITERATION=  10 CONVERGED TO  0.152089E-03
 ASC ITERATION=  11 CONVERGED TO  0.961103E-04
 ASC ITERATION=  12 CONVERGED TO  0.582666E-04
 ASC ITERATION=  13 CONVERGED TO  0.204349E-04
 ASC ITERATION=  14 CONVERGED TO  0.116311E-04
 ASC ITERATION=  15 CONVERGED TO  0.728941E-05
 ASC ITERATION=  16 CONVERGED TO  0.439887E-05
 ASC ITERATION=  17 CONVERGED TO  0.241856E-05
 ASC ITERATION=  18 CONVERGED TO  0.124794E-05
 ASC ITERATION=  19 CONVERGED TO  0.703135E-06
 ASC ITERATION=  20 CONVERGED TO  0.435286E-06
 ASC ITERATION=  21 CONVERGED TO  0.273285E-06
 ASC ITERATION=  22 CONVERGED TO  0.153963E-06
 ASC ITERATION=  23 CONVERGED TO  0.656881E-07
 ASC ITERATION=  24 CONVERGED TO  0.399637E-07
 ASC ITERATION=  25 CONVERGED TO  0.232510E-07
 ASC ITERATION=  26 CONVERGED TO  0.958450E-08
 ASC ITERATION=  27 CONVERGED TO  0.445976E-08
 ASC ITERATION=  28 CONVERGED TO  0.276705E-08
 ASC ITERATION=  29 CONVERGED TO  0.193252E-08
 ASC ITERATION=  30 CONVERGED TO  0.103712E-08
 ASC ITERATION=  31 CONVERGED TO  0.479479E-09
 ASC ITERATION=  32 CONVERGED TO  0.207133E-09
 ASC ITERATION=  33 CONVERGED TO  0.138140E-09
 ASC ITERATION=  34 CONVERGED TO  0.748414E-10

 THE ASC EQUATIONS FOR PHASE=1 CONVERGED IN  34 ITERATIONS.

 PCM ASC=      6.8557565108 normalised to=      6.9107028958
 Nuclear factor=   1.0032081362, electronic factor=   1.0032337763

 CPU     0: STEP CPU TIME=     0.12 TOTAL CPU TIME=        814.6 (     13.6 MIN)
 TOTAL WALL CLOCK TIME=       1703.2 SECONDS, CPU UTILIZATION IS    47.83%


 ------------------------------------------------------------------------------
 FMO iter  2.1,      0 fragment(s) converged, maxD 0.099073077 maxE 0.441388603
 ------------------------------------------------------------------------------

 RHF      monomer      1 corr= NONE       , L1=   403, L0=   378 ID=      1


 AO spaces for     1     0     0 n-mer: L1=   403, L0=   378

 DIRECT SCF CALCULATION, SCHWRZ=T   FDIFF=T,  DIRTHR=  0.00E+00 NITDIR=10

                                                                                   NONZERO     BLOCKS
 ITER EX DEM     TOTAL ENERGY        E CHANGE  DENSITY CHANGE     ORB. GRAD      INTEGRALS    SKIPPED
   1  0  0    -1554.9620172777 -1554.9620172777   0.006614051   0.000000000     1054095764   21826324
          ---------------START SECOND ORDER SCF---------------
   2  1  0    -1554.9610332338     0.0009840439   0.002749242   0.000580484      947536365   23539043
   3  2  0    -1554.9611036384    -0.0000704046   0.001095639   0.000304726      899097629   24025438
   4  3  0    -1554.9610027126     0.0001009258   0.000275988   0.000050185      832816980   24607914
   5  4  0    -1554.9609569622     0.0000457504   0.000108839   0.000035864      789051437   24977622
   6  5  0    -1554.9609504460     0.0000065162   0.000028436   0.000013791      745072270   25361764
   7  6  0    -1554.9609532268    -0.0000027808   0.000011779   0.000005368      680937512   25897956
   8  7  0    -1554.9609534135    -0.0000001867   0.000005900   0.000002152      635053356   26279433
   9  8  0    -1554.9609531839     0.0000002297   0.000002537   0.000000854      588067393   26692205
  10  9  0    -1554.9609530875     0.0000000963   0.000000686   0.000000341      535499227   27106068
  11 10  0    -1554.9609531220    -0.0000000345   0.000000264   0.000000084      490068918   27442073
  12 11  0    -1554.9609531246    -0.0000000025   0.000000082   0.000000027      446472251   27812128
  13 12  0    -1554.9609531252    -0.0000000007   0.000000026   0.000000012      388553636   28253434

          -----------------
          DENSITY CONVERGED
          -----------------
     TIME TO FORM FOCK OPERATORS=      29.0 SECONDS (       2.2 SEC/ITER)
     FOCK TIME ON FIRST ITERATION=       3.8, LAST ITERATION=       1.2
     TIME TO SOLVE SCF EQUATIONS=       0.6 SECONDS (       0.0 SEC/ITER)

 FINAL RHF ENERGY IS    -1554.9609531252 AFTER  13 ITERATIONS
 ...... END OF RHF CALCULATION ......
 CPU     0: STEP CPU TIME=    50.81 TOTAL CPU TIME=        865.4 (     14.4 MIN)
 TOTAL WALL CLOCK TIME=       1807.3 SECONDS, CPU UTILIZATION IS    47.89%
 DONE PCM POT.
 CPU     0: STEP CPU TIME=     0.36 TOTAL CPU TIME=        865.8 (     14.4 MIN)
 TOTAL WALL CLOCK TIME=       1808.4 SECONDS, CPU UTILIZATION IS    47.88%

 Iter=  3 iFrag=      1 EFMO= -1597.611047083, DD= 0.008787641, DE=-0.026235790


 RHF      monomer      7 corr= NONE       , L1=   386, L0=   362 ID=      2


 AO spaces for     7     0     0 n-mer: L1=   386, L0=   362

 DIRECT SCF CALCULATION, SCHWRZ=T   FDIFF=T,  DIRTHR=  0.00E+00 NITDIR=10

                                                                                   NONZERO     BLOCKS
 ITER EX DEM     TOTAL ENERGY        E CHANGE  DENSITY CHANGE     ORB. GRAD      INTEGRALS    SKIPPED
   1  0  0    -1469.2867806750 -1469.2867806750   0.026640411   0.000000000      917988718   17515852
          ---------------START SECOND ORDER SCF---------------
   2  1  0    -1469.2877694527    -0.0009887778   0.006015998   0.001385666      828766810   19001399
   3  2  0    -1469.2878321498    -0.0000626971   0.001194425   0.000452636      791548346   19381431
   4  3  0    -1469.2878431258    -0.0000109760   0.000459932   0.000068725      739915409   19859255
   5  4  0    -1469.2878268831     0.0000162427   0.000122439   0.000062571      695392427   20223503
   6  5  0    -1469.2878259309     0.0000009522   0.000058574   0.000012931      658236525   20548662
   7  6  0    -1469.2878257010     0.0000002299   0.000016490   0.000007996      613280304   20927666
   8  7  0    -1469.2878256409     0.0000000601   0.000009843   0.000002640      566504277   21312125
   9  8  0    -1469.2878258570    -0.0000002161   0.000002661   0.000000749      540883443   21526429
  10  9  0    -1469.2878258856    -0.0000000286   0.000000679   0.000000441      498981001   21861181
  11 10  0    -1469.2878258869    -0.0000000013   0.000000306   0.000000134      444650271   22292529
  12 11  0    -1469.2878258810     0.0000000059   0.000000113   0.000000085      413211719   22534804

          -----------------
          DENSITY CONVERGED
          -----------------
     TIME TO FORM FOCK OPERATORS=      24.1 SECONDS (       2.0 SEC/ITER)
     FOCK TIME ON FIRST ITERATION=       3.0, LAST ITERATION=       1.3
     TIME TO SOLVE SCF EQUATIONS=       0.5 SECONDS (       0.0 SEC/ITER)

 FINAL RHF ENERGY IS    -1469.2878258810 AFTER  12 ITERATIONS
 ...... END OF RHF CALCULATION ......
 CPU     0: STEP CPU TIME=    52.34 TOTAL CPU TIME=        918.1 (     15.3 MIN)
 TOTAL WALL CLOCK TIME=       1922.3 SECONDS, CPU UTILIZATION IS    47.76%
 DONE PCM POT.
 CPU     0: STEP CPU TIME=     0.33 TOTAL CPU TIME=        918.5 (     15.3 MIN)
 TOTAL WALL CLOCK TIME=       1923.3 SECONDS, CPU UTILIZATION IS    47.76%

 Iter=  3 iFrag=      7 EFMO= -1507.391029173, DD= 0.022116893, DE= 0.008201357


 RHF      monomer      4 corr= NONE       , L1=   386, L0=   362 ID=      3


 AO spaces for     4     0     0 n-mer: L1=   386, L0=   362

 DIRECT SCF CALCULATION, SCHWRZ=T   FDIFF=T,  DIRTHR=  0.00E+00 NITDIR=10

                                                                                   NONZERO     BLOCKS
 ITER EX DEM     TOTAL ENERGY        E CHANGE  DENSITY CHANGE     ORB. GRAD      INTEGRALS    SKIPPED
   1  0  0    -1471.2657340052 -1471.2657340052   0.030978418   0.000000000      868678103   17920104
          ---------------START SECOND ORDER SCF---------------
   2  1  0    -1471.2658228545    -0.0000888493   0.007287638   0.001518269      796441751   19270059
   3  2  0    -1471.2659128317    -0.0000899772   0.001338235   0.000540731      763983740   19612994
   4  3  0    -1471.2657870880     0.0001257437   0.000580823   0.000129776      720506894   20042875
   5  4  0    -1471.2657432272     0.0000438608   0.000170611   0.000072818      684451882   20330236
   6  5  0    -1471.2657234116     0.0000198156   0.000079685   0.000036000      651184546   20641618
   7  6  0    -1471.2657202162     0.0000031954   0.000031424   0.000009859      617060311   20931029
   8  7  0    -1471.2657208252    -0.0000006090   0.000014692   0.000004385      577859789   21244047
   9  8  0    -1471.2657217911    -0.0000009660   0.000005066   0.000002010      550378821   21475827
  10  9  0    -1471.2657219419    -0.0000001507   0.000001518   0.000000638      508873606   21823274
  11 10  0    -1471.2657218386     0.0000001032   0.000000657   0.000000221      465504278   22146224
  12 11  0    -1471.2657217992     0.0000000395   0.000000326   0.000000089      435720653   22392476
  13 12  0    -1471.2657217998    -0.0000000006   0.000000109   0.000000030      382766837   22816749
  14 13  0    -1471.2657218086    -0.0000000088   0.000000040   0.000000013      351723158   23046286

          -----------------
          DENSITY CONVERGED
          -----------------
     TIME TO FORM FOCK OPERATORS=      26.7 SECONDS (       1.9 SEC/ITER)
     FOCK TIME ON FIRST ITERATION=       3.0, LAST ITERATION=       1.1
     TIME TO SOLVE SCF EQUATIONS=       0.5 SECONDS (       0.0 SEC/ITER)

 FINAL RHF ENERGY IS    -1471.2657218086 AFTER  14 ITERATIONS
 ...... END OF RHF CALCULATION ......
 CPU     0: STEP CPU TIME=    43.88 TOTAL CPU TIME=        962.4 (     16.0 MIN)
 TOTAL WALL CLOCK TIME=       2013.9 SECONDS, CPU UTILIZATION IS    47.79%
 DONE PCM POT.
 CPU     0: STEP CPU TIME=     0.33 TOTAL CPU TIME=        962.7 (     16.0 MIN)
 TOTAL WALL CLOCK TIME=       2015.0 SECONDS, CPU UTILIZATION IS    47.78%

 Iter=  3 iFrag=      4 EFMO= -1507.477199289, DD= 0.025426537, DE= 0.010528248


 RHF      monomer      5 corr= NONE       , L1=   371, L0=   348 ID=      4


 AO spaces for     5     0     0 n-mer: L1=   371, L0=   348

 DIRECT SCF CALCULATION, SCHWRZ=T   FDIFF=T,  DIRTHR=  0.00E+00 NITDIR=10

                                                                                   NONZERO     BLOCKS
 ITER EX DEM     TOTAL ENERGY        E CHANGE  DENSITY CHANGE     ORB. GRAD      INTEGRALS    SKIPPED
   1  0  0    -1390.7294134264 -1390.7294134264   0.031048470   0.000000000      823370555   14967350
          ---------------START SECOND ORDER SCF---------------
   2  1  0    -1390.7310903857    -0.0016769593   0.007530385   0.001438230      754023715   16238211
   3  2  0    -1390.7312370973    -0.0001467116   0.001491503   0.000346894      725455271   16548677
   4  3  0    -1390.7312323876     0.0000047097   0.000446703   0.000075322      682475857   16966568
   5  4  0    -1390.7312261700     0.0000062175   0.000146638   0.000036903      646991076   17265828
   6  5  0    -1390.7312239083     0.0000022617   0.000046209   0.000015356      614620803   17574765
   7  6  0    -1390.7312241679    -0.0000002596   0.000018333   0.000012734      576787983   17924073
   8  7  0    -1390.7312241402     0.0000000277   0.000009475   0.000003483      542351648   18222750
   9  8  0    -1390.7312242687    -0.0000001285   0.000002861   0.000001321      514806376   18452645
  10  9  0    -1390.7312243356    -0.0000000669   0.000001213   0.000000598      481759327   18729063
  11 10  0    -1390.7312243210     0.0000000147   0.000000675   0.000000141      438361641   19073268
  12 11  0    -1390.7312243159     0.0000000050   0.000000166   0.000000066      410590613   19290984
  13 12  0    -1390.7312243162    -0.0000000003   0.000000091   0.000000027      357381255   19727215

          -----------------
          DENSITY CONVERGED
          -----------------
     TIME TO FORM FOCK OPERATORS=      25.6 SECONDS (       2.0 SEC/ITER)
     FOCK TIME ON FIRST ITERATION=       3.4, LAST ITERATION=       1.1
     TIME TO SOLVE SCF EQUATIONS=       0.4 SECONDS (       0.0 SEC/ITER)

 FINAL RHF ENERGY IS    -1390.7312243162 AFTER  13 ITERATIONS
 ...... END OF RHF CALCULATION ......
 CPU     0: STEP CPU TIME=    50.42 TOTAL CPU TIME=       1013.1 (     16.9 MIN)
 TOTAL WALL CLOCK TIME=       2118.3 SECONDS, CPU UTILIZATION IS    47.83%
 DONE PCM POT.
 CPU     0: STEP CPU TIME=     0.32 TOTAL CPU TIME=       1013.4 (     16.9 MIN)
 TOTAL WALL CLOCK TIME=       2119.3 SECONDS, CPU UTILIZATION IS    47.82%

 Iter=  3 iFrag=      5 EFMO= -1432.544724915, DD= 0.025971991, DE= 0.017128615


 RHF      monomer      6 corr= NONE       , L1=   341, L0=   320 ID=      5


 AO spaces for     6     0     0 n-mer: L1=   341, L0=   320

 DIRECT SCF CALCULATION, SCHWRZ=T   FDIFF=T,  DIRTHR=  0.00E+00 NITDIR=10

                                                                                   NONZERO     BLOCKS
 ITER EX DEM     TOTAL ENERGY        E CHANGE  DENSITY CHANGE     ORB. GRAD      INTEGRALS    SKIPPED
   1  0  0    -1332.2650477047 -1332.2650477047   0.035715983   0.000000000      648951918   10709594
          ---------------START SECOND ORDER SCF---------------
   2  1  0    -1332.2657920097    -0.0007443050   0.008446349   0.002117945      593698080   11757879
   3  2  0    -1332.2661005051    -0.0003084954   0.001750172   0.000540930      572206114   12008519
   4  3  0    -1332.2660112757     0.0000892294   0.000476355   0.000091135      539153732   12339369
   5  4  0    -1332.2659781478     0.0000331278   0.000127211   0.000059409      504587587   12649187
   6  5  0    -1332.2659727002     0.0000054477   0.000053149   0.000016579      481514823   12876779
   7  6  0    -1332.2659708062     0.0000018940   0.000017317   0.000008125      446779877   13191231
   8  7  0    -1332.2659705344     0.0000002718   0.000006075   0.000001783      419064369   13436384
   9  8  0    -1332.2659707520    -0.0000002176   0.000002136   0.000000540      390733100   13684158
  10  9  0    -1332.2659707143     0.0000000376   0.000000862   0.000000380      360779708   13942824
  11 10  0    -1332.2659706810     0.0000000333   0.000000294   0.000000113      320739637   14267818
  12 11  0    -1332.2659706813    -0.0000000003   0.000000091   0.000000045      298286806   14463287
  13 12  0    -1332.2659706830    -0.0000000017   0.000000057   0.000000022      258745325   14797878

          -----------------
          DENSITY CONVERGED
          -----------------
     TIME TO FORM FOCK OPERATORS=      18.7 SECONDS (       1.4 SEC/ITER)
     FOCK TIME ON FIRST ITERATION=       2.2, LAST ITERATION=       0.9
     TIME TO SOLVE SCF EQUATIONS=       0.4 SECONDS (       0.0 SEC/ITER)

 FINAL RHF ENERGY IS    -1332.2659706830 AFTER  13 ITERATIONS
 ...... END OF RHF CALCULATION ......
 CPU     0: STEP CPU TIME=    33.25 TOTAL CPU TIME=       1046.7 (     17.4 MIN)
 TOTAL WALL CLOCK TIME=       2191.1 SECONDS, CPU UTILIZATION IS    47.77%
 DONE PCM POT.
 CPU     0: STEP CPU TIME=     0.28 TOTAL CPU TIME=       1047.0 (     17.4 MIN)
 TOTAL WALL CLOCK TIME=       2192.0 SECONDS, CPU UTILIZATION IS    47.76%

 Iter=  3 iFrag=      6 EFMO= -1360.662981988, DD= 0.029323808, DE= 0.009811076


 RHF      monomer      2 corr= NONE       , L1=   341, L0=   320 ID=      6

