‘4A4U_5_fmo_input.inp’ -> ‘/scratch/hazwong/824211/./4A4U_5_fmo_input.inp’
‘rungms’ -> ‘/scratch/hazwong/824211/./rungms’
‘gms-files.csh’ -> ‘/scratch/hazwong/824211/./gms-files.csh’
----- GAMESS execution script 'rungms' -----
This job is running on host gollum072.lsa.umich.edu
under operating system Linux at Sat Dec 7 00:11:24 EST 2019
Available scratch disk space (Kbyte units) at beginning of the job is
Filesystem     1K-blocks  Used Available Use% Mounted on
/dev/sda4      426933580 33260 426900320   1% /scratch
GAMESS temporary binary files will be written to /scratch/hazwong/824211/4A4U_5/usrc
GAMESS supplementary output files will be written to /scratch/hazwong/824211/4A4U_5/src
Copying input file 4A4U_5_fmo_input.inp to your run's scratch directory...
cp 4A4U_5_fmo_input.inp /scratch/hazwong/824211/4A4U_5/usrc/4A4U_5_fmo_input.F05
unset echo
This is a GDDI run, keeping various output files on local disks
setenv OUTPUT /scratch/hazwong/824211/4A4U_5/usrc/4A4U_5_fmo_input.F06
setenv PUNCH /scratch/hazwong/824211/4A4U_5/usrc/4A4U_5_fmo_input.F07
unset echo
 
Assuming a single but multicore node.
 
/export/apps/CentOS7/gamess/src/build//ddikick.x /export/apps/CentOS7/gamess/src/build//gamess.R3.x 4A4U_5_fmo_input -ddi 1 16 gollum072.lsa.umich.edu:cpus=16 -scr /scratch/hazwong/824211/4A4U_5/usrc

 Distributed Data Interface kickoff program.
 Initiating 16 compute processes on 1 nodes to run the following command:
 /export/apps/CentOS7/gamess/src/build//gamess.R3.x 4A4U_5_fmo_input 

          ******************************************************
          *         GAMESS VERSION = 30 SEP 2018 (R3)         *
          *             FROM IOWA STATE UNIVERSITY             *
          * M.W.SCHMIDT, K.K.BALDRIDGE, J.A.BOATZ, S.T.ELBERT, *
          *   M.S.GORDON, J.H.JENSEN, S.KOSEKI, N.MATSUNAGA,   *
          *          K.A.NGUYEN, S.J.SU, T.L.WINDUS,           *
          *       TOGETHER WITH M.DUPUIS, J.A.MONTGOMERY       *
          *         J.COMPUT.CHEM.  14, 1347-1363(1993)        *
          **************** 64 BIT LINUX VERSION ****************

  SINCE 1993, STUDENTS AND POSTDOCS WORKING AT IOWA STATE UNIVERSITY
  AND ALSO IN THEIR VARIOUS JOBS AFTER LEAVING ISU HAVE MADE IMPORTANT
  CONTRIBUTIONS TO THE CODE:
     IVANA ADAMOVIC, CHRISTINE AIKENS, YURI ALEXEEV, POOJA ARORA,
     ANDREY ASADCHEV, ROB BELL, PRADIPTA BANDYOPADHYAY, JONATHAN BENTZ,
     BRETT BODE, KURT BRORSEN, CALEB CARLIN, GALINA CHABAN, WEI CHEN,
     CHEOL HO CHOI, PAUL DAY, ALBERT DEFUSCO, NUWAN DESILVA, TIM DUDLEY,
     DMITRI FEDOROV, ALEX FINDLATER, GRAHAM FLETCHER, MARK FREITAG,
     KURT GLAESEMANN, ANASTASIA GUNINA,
     DAN KEMP, GRANT MERRILL, NORIYUKI MINEZAWA, JONATHAN MULLIN,
     TAKESHI NAGATA, SEAN NEDD, HEATHER NETZLOFF, BOSILJKA NJEGIC, RYAN OLSON,
     MIKE PAK, BUU PHAM,
     SPENCER PRUITT, LUKE ROSKOP, JIM SHOEMAKER, LYUDMILA SLIPCHENKO,
     TONY SMITH, SAROM SOK LEANG, JIE SONG, TETSUYA TAKETSUGU, SIMON WEBB,
     PENG XU, SOOHAENG YOO, FEDERICO ZAHARIEV

  ADDITIONAL CODE HAS BEEN PROVIDED BY COLLABORATORS IN OTHER GROUPS:
     IOWA STATE UNIVERSITY:
          JOE IVANIC, AARON WEST, LAIMUTIS BYTAUTAS, KLAUS RUEDENBERG
     UNIVERSITY OF TOKYO: KIMIHIKO HIRAO, TAKAHITO NAKAJIMA,
          TAKAO TSUNEDA, MUNEAKI KAMIYA, SUSUMU YANAGISAWA,
          KIYOSHI YAGI, MAHITO CHIBA, SEIKEN TOKURA, NAOAKI KAWAKAMI
     UNIVERSITY OF AARHUS: FRANK JENSEN
     UNIVERSITY OF IOWA: VISVALDAS KAIRYS, HUI LI
     NATIONAL INST. OF STANDARDS AND TECHNOLOGY: WALT STEVENS, DAVID GARMER
     UNIVERSITY OF PISA: BENEDETTA MENNUCCI, JACOPO TOMASI
     UNIVERSITY OF MEMPHIS: HENRY KURTZ, PRAKASHAN KORAMBATH
     UNIVERSITY OF ALBERTA: TOBY ZENG, MARIUSZ KLOBUKOWSKI
     UNIVERSITY OF NEW ENGLAND: MARK SPACKMAN
     MIE UNIVERSITY: HIROAKI UMEDA
     NAT. INST. OF ADVANCED INDUSTRIAL SCIENCE AND TECHNOLOGY: KAZUO KITAURA
     MICHIGAN STATE UNIVERSITY:
          KAROL KOWALSKI, MARTA WLOCH, JEFFREY GOUR, JESSE LUTZ,
          WEI LI, JUN SHEN, J. EMILIANO DEUSTUA, PIOTR PIECUCH
     UNIVERSITY OF MINNESOTA:
          YINAN SHU
     UNIVERSITY OF SILESIA: MONIKA MUSIAL, STANISLAW KUCHARSKI
     FACULTES UNIVERSITAIRES NOTRE-DAME DE LA PAIX:
          OLIVIER QUINET, BENOIT CHAMPAGNE
     UNIVERSITY OF CALIFORNIA - SANTA BARBARA: BERNARD KIRTMAN
     INSTITUTE FOR MOLECULAR SCIENCE:
          KAZUYA ISHIMURA, MICHIO KATOUDA, AND SHIGERU NAGASE
     UNIVERSITY OF NOTRE DAME: ANNA POMOGAEVA, DAN CHIPMAN
     KYUSHU UNIVERSITY:
          HARUYUKI NAKANO,
          FENG LONG GU, JACEK KORCHOWIEC, MARCIN MAKOWSKI, AND YURIKO AOKI,
          HIROTOSHI MORI AND EISAKU MIYOSHI
     PENNSYLVANIA STATE UNIVERSITY:
          TZVETELIN IORDANOV, CHET SWALINA, JONATHAN SKONE,
          SHARON HAMMES-SCHIFFER
     WASEDA UNIVERSITY:
          MASATO KOBAYASHI, TOMOKO AKAMA, TSUGUKI TOUMA,
          TAKESHI YOSHIKAWA, YASUHIRO IKABATA, JUNJI SEINO,
          YUYA NAKAJIMA, HIROMI NAKAI
     NANJING UNIVERSITY: SHUHUA LI
     UNIVERSITY OF NEBRASKA:
          PEIFENG SU, DEJUN SI, NANDUN THELLAMUREGE, YALI WANG, HUI LI
     UNIVERSITY OF ZURICH: ROBERTO PEVERATI, KIM BALDRIDGE
     N. COPERNICUS UNIVERSITY AND JACKSON STATE UNIVERSITY:
          MARIA BARYSZ
     UNIVERSITY OF COPENHAGEN: Jimmy Kromann, CASPER STEINMANN
     TOKYO INSTITUTE OF TECHNOLOGY: HIROYA NAKATA
     NAGOYA UNIVERSITY: YOSHIO NISHIMOTO, STEPHAN IRLE
     MOSCOW STATE UNIVERSITY: VLADIMIR MIRONOV


 PARALLEL VERSION RUNNING ON       16 PROCESSORS IN        1 NODES.

 EXECUTION OF GAMESS BEGUN Sat Dec  7 00:11:24 2019

            ECHO OF THE FIRST FEW INPUT CARDS -
 INPUT CARD>!*** FMO 5.3 (Gamess) INPUT generated by Facio 22.1.1.32 ***                    
 INPUT CARD> $CONTRL RUNTYP=ENERGY NPRINT=-5 ISPHER=1 MAXIT=200 $END                        
 INPUT CARD> $SYSTEM MWORDS=63 MEMDDI=63 $END                                               
 INPUT CARD> $GDDI NGROUP=1 $END                                                            
 INPUT CARD> $SCF DIRSCF=.TRUE. NPUNCH=0 $END                                               
 INPUT CARD>!*** NumCPU : 2  MemPerNode : 512MB                                             
 INPUT CARD> $PCM SOLVNT=WATER IEF=-10 ICOMP=2 ICAV=1 IDISP=1 IFMO=-1 $END                  
 INPUT CARD> $PCMCAV RADII=SUAHF $END                                                       
 INPUT CARD> $TESCAV NTSALL=60 $END                                                         
 INPUT CARD> $FMOPRP                                                                        
 INPUT CARD>    NAODIR=200                                                                  
 INPUT CARD>    NGRFMO(1)=1, 1, 0, 0, 0,   0, 0, 0, 0, 0                                    
 INPUT CARD>    IPIEDA=1                                                                    
 INPUT CARD>    NPRINT=9                                                                    
 INPUT CARD> $END                                                                           
 INPUT CARD> $FMO                                                                           
 INPUT CARD>      SCFTYP(1)=RHF                                                             
 INPUT CARD>      MODGRD=10                                                                 
 INPUT CARD>      MODMUL=0                                                                  
 INPUT CARD>      MAXCAO=5                                                                  
 INPUT CARD>      MAXBND=10                                                                 
 INPUT CARD>      NLAYER=1                                                                  
 INPUT CARD>      MPLEVL(1)=2                                                               
 INPUT CARD>      NFRAG=8                                                                   
 INPUT CARD>      ICHARG(1)=-1, -1, -1, -1, -1, -1, -1, 0                                   
 INPUT CARD>      FRGNAM(1)=F1, F2, F3, F4, F5, F6, F7, F8                                  
 INPUT CARD>      indat(1)=0                                                                
 INPUT CARD>               1   -36   0                                                      
 INPUT CARD>               37   -67   0                                                     
 INPUT CARD>               68   -97   0                                                     
 INPUT CARD>               98   -131   0                                                    
 INPUT CARD>               132   -164   0                                                   
 INPUT CARD>               165   -195   0                                                   
 INPUT CARD>               196   -229   0                                                   
 INPUT CARD>               230   -257   0                                                   
 INPUT CARD> $END                                                                           
 INPUT CARD>                                                                                
 INPUT CARD> $FMOBND                                                                        
 INPUT CARD>   -37   36       6-31G*    MINI                                                
 INPUT CARD>   -68   67       6-31G*    MINI                                                
 INPUT CARD>   -98   97       6-31G*    MINI                                                
 INPUT CARD>   -132   131       6-31G*    MINI                                              
 INPUT CARD>   -165   164       6-31G*    MINI                                              
 INPUT CARD>   -196   195       6-31G*    MINI                                              
 INPUT CARD>   -230   229       6-31G*    MINI                                              
 INPUT CARD> $END                                                                           
 INPUT CARD> $FMOHYB                                                                        
 INPUT CARD> 6-31G*      15   5                                                             
 INPUT CARD>   1 0  -0.065034   0.288264   0.000000   0.000000   0.604412                   
 INPUT CARD>         0.290129   0.000000   0.000000   0.319045  -0.017106                   


 -------------------------------------------------------------
 GROUP DDI, PROGRAMMED BY: RYAN M. OLSON AND DMITRI G. FEDOROV
        FEDOROV ET AL., J. COMPUT. CHEM., 25 (2004) 872.
 -------------------------------------------------------------

 -------------------------------------------------------
 GDDI: INITIALIZATION COMPLETED FOR GROUP     1 OF     1
 WITH    16 PROCESSES BALTYP=DLB   global rank=        0
 -------------------------------------------------------

   63000000 WORDS OF MEMORY AVAILABLE


     RUN TITLE
     ---------
  FMO calculation                                                                

 THE POINT GROUP OF THE MOLECULE IS C1      
 THE ORDER OF THE PRINCIPAL AXIS IS     0

 ATOM   ATOMIC CHARGE
 H.1-1       1.0
 O.1-1       8.0
 C.1-1       6.0
 N.1-1       7.0
 P.1-1      15.0

     ATOMIC BASIS SET LIBRARY
     ----------------
 THE CONTRACTED PRIMITIVE FUNCTIONS HAVE BEEN UNNORMALIZED
 THE CONTRACTED BASIS FUNCTIONS ARE NOW NORMALIZED TO UNITY

  SHELL TYPE  PRIMITIVE        EXPONENT          CONTRACTION COEFFICIENT(S)

 H.1-1     

      1   S       1            18.7311370    0.033494604338
      1   S       2             2.8253944    0.234726953484
      1   S       3             0.6401217    0.813757326146

      2   S       4             0.1612778    1.000000000000

 O.1-1     

      3   S       5          5484.6716600    0.001831074430
      3   S       6           825.2349460    0.013950172200
      3   S       7           188.0469580    0.068445078098
      3   S       8            52.9645000    0.232714335992
      3   S       9            16.8975704    0.470192897984
      3   S      10             5.7996353    0.358520852987

      4   L      11            15.5396162   -0.110777549525    0.070874268231
      4   L      12             3.5999336   -0.148026262701    0.339752839147
      4   L      13             1.0137618    1.130767015354    0.727158577316

      5   L      14             0.2700058    1.000000000000    1.000000000000

      6   D      15             0.8000000    1.000000000000

 C.1-1     

      7   S      16          3047.5248800    0.001834737132
      7   S      17           457.3695180    0.014037322813
      7   S      18           103.9486850    0.068842622264
      7   S      19            29.2101553    0.232184443216
      7   S      20             9.2866630    0.467941348435
      7   S      21             3.1639270    0.362311985337

      8   L      22             7.8682723   -0.119332419775    0.068999066591
      8   L      23             1.8812885   -0.160854151696    0.316423960957
      8   L      24             0.5442493    1.143456437840    0.744308290898

      9   L      25             0.1687145    1.000000000000    1.000000000000

     10   D      26             0.8000000    1.000000000000

 N.1-1     

     11   S      27          4173.5114600    0.001834772160
     11   S      28           627.4579110    0.013994627002
     11   S      29           142.9020930    0.068586551812
     11   S      30            40.2343293    0.232240873040
     11   S      31            12.8202129    0.469069948082
     11   S      32             4.3904370    0.360455199063

     12   L      33            11.6263619   -0.114961181702    0.067579743878
     12   L      34             2.7162798   -0.169117478561    0.323907295893
     12   L      35             0.7722184    1.145851947027    0.740895139755

     13   L      36             0.2120315    1.000000000000    1.000000000000

     14   D      37             0.8000000    1.000000000000

 P.1-1     

     15   S      38         19413.3000000    0.001851598923
     15   S      39          2909.4200000    0.014206191735
     15   S      40           661.3640000    0.069999459277
     15   S      41           185.7590000    0.240078860331
     15   S      42            59.1943000    0.484761717984
     15   S      43            20.0310000    0.335199804993

     16   L      44           339.4780000   -0.002782170105    0.004564616191
     16   L      45            81.0101000   -0.036049901354    0.033693571881
     16   L      46            25.8780000   -0.116631004382    0.139754883368
     16   L      47             9.4522100    0.096832803638    0.339361716786
     16   L      48             3.6656600    0.614418023082    0.450920623685
     16   L      49             1.4674600    0.403798015170    0.238585800889

     17   L      50             2.1562300   -0.252924113863   -0.017765312733
     17   L      51             0.7489970    0.032851844678    0.274058196433
     17   L      52             0.2831450    1.081254761783    0.785421562957

     18   L      53             0.0998317    1.000000000000    1.000000000000

     19   D      54             0.5500000    1.000000000000

 TOTAL NUMBER OF BASIS SET SHELLS             =   19
 NUMBER OF CARTESIAN GAUSSIAN BASIS FUNCTIONS =   66

     $CONTRL OPTIONS
     ---------------
 SCFTYP=RHF          RUNTYP=ENERGY       EXETYP=RUN     
 MPLEVL=       0     CITYP =NONE         CCTYP =NONE         VBTYP =NONE    
 DFTTYP=NONE         TDDFT =NONE    
 MULT  =       1     ICHARG=       0     NZVAR =       0     COORD =UNIQUE  
 PP    =NONE         RELWFN=NONE         LOCAL =NONE         NUMGRD=       F
 ISPHER=       1     NOSYM =       0     MAXIT =     200     UNITS =ANGS    
 PLTORB=       F     MOLPLT=       F     AIMPAC=       F     FRIEND=        
 NPRINT=      -5     IREST =       0     GEOM  =INPUT   
 NORMF =       0     NORMP =       0     ITOL  =      24     ICUT  =      12
 INTTYP=BEST         GRDTYP=BEST         QMTTOL= 1.0E-06

     $SYSTEM OPTIONS
     ---------------
  REPLICATED MEMORY=    63000000 WORDS (ON EVERY NODE).
 DISTRIBUTED MEMDDI=          63 MILLION WORDS IN AGGREGATE,
 MEMDDI DISTRIBUTED OVER  16 PROCESSORS IS     3937500 WORDS/PROCESSOR.
 TOTAL MEMORY REQUESTED ON EACH PROCESSOR=    66937500 WORDS.
 TIMLIM=      525600.00 MINUTES, OR     365.0 DAYS.
 PARALL= T  BALTYP=  DLB     KDIAG=    0  COREFL= F
 MXSEQ2=     300 MXSEQ3=     150  mem10=         0

 ** LOOKING UP INTERNALLY STORED DATA FOR SOLVENT=WATER    **
 OPTICAL AND PHYSICAL CONSTANTS:
 EPS= 78.390; EPSINF=  1.776; RSOLV=  1.385 A; VMOL=  18.070 ML/MOL;
 TCE= .25700E-03 1/K; STEN= 71.810 DYN/CM;  DSTEN=  0.6500; CMF=  1.2770


     -----------------------------------
     INPUT FOR PCM SOLVATION CALCULATION 
     -----------------------------------
     IEF   =     -10
     ICOMP =       2     IFIELD=       0     ICAV  =       1
     IDISP =       1     IREP  =       0     IDP   =       0

     SOLVNT=WATER        EPS   = 78.3900     EPSINF=  1.7760
     VMOL  = 18.0700     TCE   =  0.00025700 STEN  = 71.8100
     DSTEN =  0.6500     CMF   =  1.2770     RSOLV =  1.3850

     NESFP =       0
     OMEGA = 40.0000     RET   =100.0000     FRO   =  0.7000

     TABS  =298.0000     IPRINT=       0

     --------------------------------
     INPUT FOR ITERATIVE C-PCM METHOD 
     --------------------------------
     IPCMIT  =         1     MXDIIS  =        50
     MXITR1  =       200     MXITR2  =       200
     THRES   = 0.100E-09     IMUL    =         3
     RCUT(1) =   20.0000     RCUT(2) =   50.0000

     IDIRCT  =         1
     IMGABI  =         0     RABI    =    4.0000
     IMGASC  =         0     RASC    =   20.0000
     THRSLS  = 0.500E-03     DENSLS  =    0.0100
     IEFPOL  =         1     REFPOL  =    0.0000

     INPUT FOR ISOTROPIC DIELECTRICS
     -------------------------------
     EPS=    78.39

          ----------------
          PROPERTIES INPUT
          ----------------

     MOMENTS            FIELD           POTENTIAL          DENSITY
 IEMOM =       1   IEFLD =       0   IEPOT =       0   IEDEN =       0
 WHERE =COMASS     WHERE =NUCLEI     WHERE =NUCLEI     WHERE =NUCLEI  
 OUTPUT=BOTH       OUTPUT=BOTH       OUTPUT=NONE       OUTPUT=BOTH    
 IEMINT=       0   IEFINT=       0                     IEDINT=       0
                                                       MORB  =       0
          EXTRAPOLATION IN EFFECT
          SOSCF IN EFFECT
 ORBITAL PRINTING OPTION: NPREO=     1 32767     2     1

     -------------------------------
     INTEGRAL TRANSFORMATION OPTIONS
     -------------------------------
     NWORD  =            0
     CUTOFF = 1.0E-10     MPTRAN =       0
     DIRTRF =       T     AOINTS =DUP     

          ----------------------
          INTEGRAL INPUT OPTIONS
          ----------------------
 NOPK  =       1 NORDER=       0 SCHWRZ=       T

 ..... DONE SETTING UP THE RUN .....
 CPU     0: STEP CPU TIME=     0.03 TOTAL CPU TIME=          0.0 (      0.0 MIN)
 TOTAL WALL CLOCK TIME=          0.1 SECONDS, CPU UTILIZATION IS    42.86%
 CPU     0: STEP CPU TIME=     0.00 TOTAL CPU TIME=          0.0 (      0.0 MIN)
 TOTAL WALL CLOCK TIME=          0.1 SECONDS, CPU UTILIZATION IS    42.86%

                    ----------------------
                    AO INTEGRAL TECHNOLOGY
                    ----------------------
     S,P,L SHELL ROTATED AXIS INTEGRALS, REPROGRAMMED BY
        KAZUYA ISHIMURA (IMS) AND JOSE SIERRA (SYNSTAR).
     S,P,D,L SHELL ROTATED AXIS INTEGRALS PROGRAMMED BY
        KAZUYA ISHIMURA (INSTITUTE FOR MOLECULAR SCIENCE).
     S,P,D,F,G SHELL TO TOTAL QUARTET ANGULAR MOMENTUM SUM 5,
        ERIC PROGRAM BY GRAHAM FLETCHER (ELORET AND NASA ADVANCED
        SUPERCOMPUTING DIVISION, AMES RESEARCH CENTER).
     S,P,D,F,G,L SHELL GENERAL RYS QUADRATURE PROGRAMMED BY
        MICHEL DUPUIS (PACIFIC NORTHWEST NATIONAL LABORATORY).
 Setting modorb=1 flag...
 Setting modorb=1 flag...

          -----------------------
          MP2 CONTROL INFORMATION
          -----------------------
          NACORE =        8  NBCORE =        8
          LMOMP2 =        F  AOINTS = DUP     
          METHOD =        2  NWORD  =               0
          MP2PRP =        F  OSPT   = NONE    
          CUTOFF = 1.00E-12  CPHFBS = BASISAO 
          CODE   = IMS     

          NUMBER OF CORE -A-  ORBITALS =     8
          NUMBER OF CORE -B-  ORBITALS =     8
          NUMBER OF OCC. -A-  ORBITALS =    18
          NUMBER OF OCC. -B-  ORBITALS =    18
          NUMBER OF MOLECULAR ORBITALS =    66
          NUMBER OF   BASIS  FUNCTIONS =    66

 CPU     0: STEP CPU TIME=     0.02 TOTAL CPU TIME=          0.1 (      0.0 MIN)
 TOTAL WALL CLOCK TIME=          0.1 SECONDS, CPU UTILIZATION IS    50.00%
 CPU     0: STEP CPU TIME=     0.00 TOTAL CPU TIME=          0.1 (      0.0 MIN)
 TOTAL WALL CLOCK TIME=          0.1 SECONDS, CPU UTILIZATION IS    50.00%

     INPUT FOR CAVITY DEFINITION 
     ---------------------------
   ATOM               COORDINATES                RADIUS       EPS
      1    -15.3720     -3.5350      0.3610      0.0100     78.3900
      2    -14.6620     -4.0420      0.8060      1.5900     78.3900
      3    -14.5910     -5.3190      0.1550      1.7700     78.3900
      4    -14.4280     -5.1630     -0.9350      0.0100     78.3900
      5    -15.5600     -5.8530      0.2790      0.0100     78.3900
      6    -13.4640     -6.2090      0.6900      1.7700     78.3900
      7    -13.4730     -7.2060      0.1980      0.0100     78.3900
      8    -12.1760     -5.5920      0.4010      1.5900     78.3900
      9    -11.2990     -5.8090      1.4920      1.7700     78.3900
     10    -10.3870     -6.2990      1.0780      0.0100     78.3900
     11    -10.9080     -4.5450      2.1290      1.6800     78.3900
     12     -9.8320     -4.3670      2.9570      1.7700     78.3900
     13     -7.0640     -5.6410      4.5990      1.6800     78.3900
     14     -7.0840     -6.6070      4.3550      0.0100     78.3900
     15     -6.3360     -5.3040      5.2020      0.0100     78.3900
     16     -8.9690     -5.3230      3.3430      1.6800     78.3900
     17     -7.9980     -4.8440      4.1170      1.7700     78.3900
     18     -7.8930     -3.5210      4.4570      1.6800     78.3900
     19     -7.1260     -3.2420      5.0480      0.0100     78.3900
     20     -8.7680     -2.5120      4.0750      1.7700     78.3900
     21     -8.5970     -1.3440      4.4380      1.5900     78.3900
     22     -9.8230     -3.0210      3.2680      1.7700     78.3900
     23    -10.8940     -2.3670      2.6690      1.6800     78.3900
     24    -11.5160     -3.3130      2.0020      1.7700     78.3900
     25    -12.4130     -3.1790      1.3910      0.0100     78.3900
     26    -11.9890     -6.7520      2.4490      1.7700     78.3900
     27    -11.6990     -6.5780      3.5050      0.0100     78.3900
     28    -11.7060     -8.0900      2.0870      1.5900     78.3900
     29    -12.2220     -8.6410      2.6850      0.0100     78.3900
     30    -13.4560     -6.4160      2.2100      1.7700     78.3900
     31    -13.7100     -5.4330      2.6680      0.0100     78.3900
     32    -14.3930     -7.4580      2.5620      1.5900     78.3900
     33    -14.9780     -7.5110      4.0250      2.1000     78.3900
     34    -15.4640     -6.1610      4.3820      1.5900     78.3900
     35    -15.9640     -8.6120      4.0730      1.5900     78.3900
     36    -13.7350     -7.8780      4.9080      1.5900     78.3900
     37    -13.1260     -9.1880      4.8620      1.7700     78.3900
     38    -12.8350     -9.4830      3.8330      0.0100     78.3900
     39    -13.8360     -9.9640      5.2240      0.0100     78.3900
     40    -11.8780     -9.2370      5.7540      1.7700     78.3900
     41    -11.4020    -10.2370      5.7120      0.0100     78.3900
     42    -10.8890     -8.2670      5.3150      1.5900     78.3900
     43    -10.2220     -7.7330      6.4530      1.7700     78.3900
     44     -9.1470     -7.9860      6.3070      0.0100     78.3900
     45    -10.3600     -6.2550      6.5620      1.6800     78.3900
     46    -11.4490     -5.6250      6.0050      1.7700     78.3900
     47    -12.1700     -6.2700      5.5000      0.0100     78.3900
     48    -11.5880     -4.2950      6.0580      1.7700     78.3900
     49    -12.4220     -3.7780      5.5880      0.0100     78.3900
     50     -9.4220     -5.5070      7.2710      1.7700     78.3900
     51     -8.4790     -6.0870      7.8300      1.5900     78.3900
     52     -9.5440     -4.1620      7.3330      1.6800     78.3900
     53    -10.5880     -3.5520      6.7460      1.7700     78.3900
     54    -10.6600     -2.2230      6.7830      1.6800     78.3900
     55     -9.9830     -1.6980      7.3030      0.0100     78.3900
     56    -11.4510     -1.7360      6.4150      0.0100     78.3900
     57    -10.7420     -8.4690      7.6780      1.7700     78.3900
     58    -10.7900     -7.8160      8.5680      0.0100     78.3900
     59     -9.9320     -9.5950      7.9540      1.5900     78.3900
     60    -10.4000    -10.1510      8.6000      0.0100     78.3900
     61    -12.1360     -8.8770      7.2180      1.7700     78.3900
     62    -12.8070     -7.9890      7.2060      0.0100     78.3900
     63    -12.7060    -10.0110      7.8990      1.5900     78.3900
     64    -13.5870     -9.8610      9.1850      2.1000     78.3900
     65    -14.5680    -10.9670      9.1870      1.5900     78.3900
     66    -12.6750     -9.7780     10.3490      1.5900     78.3900
     67    -14.3520     -8.4980      9.0010      1.5900     78.3900
     68    -15.5380     -8.2240      9.7880      1.7700     78.3900
     69    -15.5180     -8.7350     10.7820      0.0100     78.3900
     70    -16.4310     -8.5990      9.2440      0.0100     78.3900
     71    -15.7540     -6.7230     10.0600      1.7700     78.3900
     72    -16.6540     -6.6120     10.6970      0.0100     78.3900
     73    -14.6460     -6.1840     10.8140      1.5900     78.3900
     74    -13.9560     -5.2170     10.0370      1.7700     78.3900
     75    -14.3360     -4.2260     10.3780      0.0100     78.3900
     76    -12.4980     -5.3320     10.2390      1.6800     78.3900
     77    -11.9330     -6.5460     10.5580      1.7700     78.3900
     78    -12.6270     -7.3880     10.6140      0.0100     78.3900
     79    -11.7410     -4.1870     10.1750      1.7700     78.3900
     80    -12.2080     -3.0820      9.9230      1.5900     78.3900
     81    -10.4140     -4.3730     10.4370      1.6800     78.3900
     82     -9.8910     -3.5250     10.5610      0.0100     78.3900
     83     -9.7860     -5.5370     10.8220      1.7700     78.3900
     84     -8.5980     -5.5260     11.1290      1.5900     78.3900
     85    -10.6320     -6.6840     10.8450      1.7700     78.3900
     86    -10.2060     -7.6380     11.1480      0.0100     78.3900
     87    -14.3770     -5.4310      8.6000      1.7700     78.3900
     88    -13.8120     -6.2690      8.1410      0.0100     78.3900
     89    -14.2580     -4.2690      7.8030      1.5900     78.3900
     90    -14.9270     -3.6430      8.1200      0.0100     78.3900
     91    -15.8400     -5.8200      8.7980      1.7700     78.3900
     92    -16.1600     -6.4480      7.9330      0.0100     78.3900
     93    -16.7220     -4.6740      8.9360      1.5900     78.3900
     94    -18.2500     -4.8300      9.2790      2.1000     78.3900
     95    -19.0340     -3.9410      8.3950      1.5900     78.3900
     96    -18.6540     -6.2550      9.2590      1.5900     78.3900
     97    -18.3380     -4.2960     10.7550      1.5900     78.3900
     98    -18.7060     -2.9320     11.0640      1.7700     78.3900
     99    -19.8000     -2.8940     11.2710      0.0100     78.3900
    100    -18.5100     -2.2290     10.2200      0.0100     78.3900
    101    -17.9840     -2.3770     12.3080      1.7700     78.3900
    102    -18.4100     -1.3840     12.5720      0.0100     78.3900
    103    -18.1250     -3.2660     13.4550      1.5900     78.3900
    104    -16.8630     -3.8500     13.7550      1.7700     78.3900
    105    -16.4860     -3.3090     14.6530      0.0100     78.3900
    106    -16.9940     -5.2830     14.0490      1.6800     78.3900
    107    -16.3180     -5.9780     15.0180      1.7700     78.3900
    108    -13.9160     -6.0880     17.5020      1.6800     78.3900
    109    -13.5910     -6.7210     18.2070      0.0100     78.3900
    110    -13.6280     -5.1280     17.5400      0.0100     78.3900
    111    -15.4000     -5.4700     15.8590      1.6800     78.3900
    112    -14.8800     -6.4000     16.6560      1.7700     78.3900
    113    -15.3110     -7.7030     16.6790      1.6800     78.3900
    114    -14.9040     -8.3200     17.3660      0.0100     78.3900
    115    -16.2860     -8.2460     15.8480      1.7700     78.3900
    116    -16.6250     -9.4350     15.9240      1.5900     78.3900
    117    -16.7940     -7.2740     14.9430      1.7700     78.3900
    118    -17.7340     -7.3990     13.9260      1.6800     78.3900
    119    -17.8180     -6.1890     13.4210      1.7700     78.3900
    120    -18.4670     -5.8880     12.5970      0.0100     78.3900
    121    -15.9400     -3.5720     12.5960      1.7700     78.3900
    122    -16.0650     -4.3390     11.8030      0.0100     78.3900
    123    -14.5900     -3.4780     12.9940      1.5900     78.3900
    124    -14.5070     -2.6640     13.5120      0.0100     78.3900
    125    -16.4650     -2.2290     12.1050      1.7700     78.3900
    126    -16.2810     -2.1880     11.0040      0.0100     78.3900
    127    -15.9210     -1.0840     12.8250      1.5900     78.3900
    128    -15.4680      0.1860     12.0020      2.1000     78.3900
    129    -14.9650     -0.2560     10.6850      1.5900     78.3900
    130    -16.5770      1.1670     11.9950      1.5900     78.3900
    131    -14.2710      0.7820     12.8440      1.5900     78.3900
    132    -13.1490      1.3740     12.1300      1.7700     78.3900
    133    -13.4660      2.2850     11.5680      0.0100     78.3900
    134    -12.7280      0.6540     11.3870      0.0100     78.3900
    135    -12.0030      1.7480     13.0890      1.7700     78.3900
    136    -12.3260      2.5280     13.8110      0.0100     78.3900
    137    -11.6220      0.5740     13.8650      1.5900     78.3900
    138    -10.2280      0.5880     14.1100      1.7700     78.3900
    139    -10.1020      0.5980     15.2180      0.0100     78.3900
    140     -9.5920     -0.6080     13.5570      1.6800     78.3900
    141     -8.2160     -2.2850     13.2130      1.7700     78.3900
    142     -9.2410     -2.4270     12.2860      1.6800     78.3900
    143    -10.0420     -1.4200     12.5420      1.7700     78.3900
    144    -10.9890     -1.2200     12.0310      0.0100     78.3900
    145     -6.2710     -2.6460     14.5140      1.6800     78.3900
    146     -6.5390     -1.4760     15.1040      1.7700     78.3900
    147     -5.8250     -1.1590     15.8720      0.0100     78.3900
    148     -7.6060     -0.6840     14.9480      1.6800     78.3900
    149     -8.4080     -1.1500     13.9800      1.7700     78.3900
    150     -7.1000     -3.0880     13.5370      1.7700     78.3900
    151     -6.8490     -4.2820     12.9740      1.6800     78.3900
    152     -7.4150     -4.6310     12.2200      0.0100     78.3900
    153     -5.9670     -4.7230     13.1540      0.0100     78.3900
    154     -9.6580      1.8620     13.5190      1.7700     78.3900
    155     -8.6470      1.7180     13.0760      0.0100     78.3900
    156     -9.6070      2.8790     14.4980      1.5900     78.3900
    157     -9.4860      3.7100     14.0210      0.0100     78.3900
    158    -10.6800      2.1930     12.4380      1.7700     78.3900
    159    -10.5330      1.5130     11.5670      0.0100     78.3900
    160    -10.7270      3.6000     12.0890      1.5900     78.3900
    161    -10.0130      4.0660     10.7580      2.1000     78.3900
    162    -10.2840      3.0480      9.7280      1.5900     78.3900
    163    -10.4610      5.4440     10.4570      1.5900     78.3900
    164     -8.4730      4.0910     11.1130      1.5900     78.3900
    165     -7.5440      4.8650     10.3120      1.7700     78.3900
    166     -8.0440      5.6910      9.7480      0.0100     78.3900
    167     -7.0680      4.1970      9.5570      0.0100     78.3900
    168     -6.4150      5.5210     11.1390      1.7700     78.3900
    169     -5.7410      6.0770     10.4510      0.0100     78.3900
    170     -6.9460      6.4550     12.1190      1.5900     78.3900
    171     -6.6910      5.9720     13.4400      1.7700     78.3900
    172     -5.7950      6.5340     13.7860      0.0100     78.3900
    173     -7.8270      6.2200     14.3860      1.6800     78.3900
    174     -8.9960      6.7830     13.9160      1.7700     78.3900
    175     -9.0570      6.9540     12.8370      0.0100     78.3900
    176    -10.0110      7.0820     14.7360      1.7700     78.3900
    177    -10.9350      7.5300     14.3780      0.0100     78.3900
    178     -7.6830      6.0040     15.7610      1.7700     78.3900
    179     -6.5980      5.6080     16.2060      1.5900     78.3900
    180     -8.7170      6.2500     16.5980      1.6800     78.3900
    181     -9.8450      6.8030     16.1240      1.7700     78.3900
    182    -10.8210      7.0880     16.9840      1.6800     78.3900
    183    -10.6990      6.8160     17.9410      0.0100     78.3900
    184    -11.6930      7.4830     16.6970      0.0100     78.3900
    185     -6.3200      4.5040     13.2880      1.7700     78.3900
    186     -7.2310      3.8740     13.2100      0.0100     78.3900
    187     -5.4680      4.0160     14.3010      1.5900     78.3900
    188     -4.6340      4.5020     14.2180      0.0100     78.3900
    189     -5.5720      4.5430     11.9690      1.7700     78.3900
    190     -5.6410      3.5450     11.4850      0.0100     78.3900
    191     -4.2060      5.0020     12.1280      1.5900     78.3900
    192     -3.0480      4.3930     11.2660      2.1000     78.3900
    193     -3.3730      4.6270      9.8430      1.5900     78.3900
    194     -1.7620      4.9370     11.7660      1.5900     78.3900
    195     -3.1240      2.8410     11.5430      1.5900     78.3900
    196     -2.3330      2.2490     12.5960      1.7700     78.3900
    197     -2.6540      2.6330     13.5900      0.0100     78.3900
    198     -1.2500      2.4830     12.4620      0.0100     78.3900
    199     -2.4480      0.7190     12.6040      1.7700     78.3900
    200     -1.7620      0.2810     13.3630      0.0100     78.3900
    201     -3.7980      0.3150     12.9690      1.5900     78.3900
    202     -4.1730     -0.8090     12.1860      1.7700     78.3900
    203     -4.5050     -1.6000     12.8920      0.0100     78.3900
    204     -5.2810     -0.4780     11.2780      1.6800     78.3900
    205     -6.0110     -1.3510     10.5210      1.7700     78.3900
    206     -6.6030     -4.5650      9.3990      1.6800     78.3900
    207     -5.9490     -5.0950      9.9360      0.0100     78.3900
    208     -7.3080     -5.0570      8.8850      0.0100     78.3900
    209     -5.8270     -2.6780     10.4550      1.6800     78.3900
    210     -6.6870     -3.2710      9.6380      1.7700     78.3900
    211     -7.6890     -2.6030      8.9890      1.6800     78.3900
    212     -8.3010     -3.1320      8.3870      0.0100     78.3900
    213     -7.9090     -1.2320      9.0410      1.7700     78.3900
    214     -8.8320     -0.7220      8.4030      1.5900     78.3900
    215     -6.9530     -0.5810      9.8670      1.7700     78.3900
    216     -6.7930      0.7630     10.1780      1.6800     78.3900
    217     -5.7920      0.7740     11.0270      1.7700     78.3900
    218     -5.3620      1.6520     11.5090      0.0100     78.3900
    219     -2.9400     -1.2780     11.4450      1.7700     78.3900
    220     -3.1820     -1.7570     10.4740      0.0100     78.3900
    221     -2.2050     -2.1830     12.2470      1.5900     78.3900
    222     -1.3980     -2.3890     11.7620      0.0100     78.3900
    223     -2.1880      0.0320     11.2550      1.7700     78.3900
    224     -2.6930      0.6520     10.4770      0.0100     78.3900
    225     -0.7650     -0.1090     11.0440      1.5900     78.3900
    226     -0.1760      0.0050      9.5900      2.1000     78.3900
    227     -0.8720      1.0840      8.8630      1.5900     78.3900
    228      1.3020      0.0820      9.6440      1.5900     78.3900
    229     -0.5950     -1.3620      8.9310      1.5900     78.3900
    230     -0.0410     -2.6080      9.4100      1.7700     78.3900
    231     -0.2150     -2.7370     10.5020      0.0100     78.3900
    232      1.0630     -2.6380      9.2420      0.0100     78.3900
    233     -0.6710     -3.8060      8.6870      1.7700     78.3900
    234     -0.1910     -4.7570      9.0100      0.0100     78.3900
    235     -2.0820     -3.8960      9.0290      1.5900     78.3900
    236     -2.8210     -4.2920      7.8790      1.7700     78.3900
    237     -3.3760     -5.2120      8.1750      0.0100     78.3900
    238     -3.8000     -3.2570      7.4420      1.6800     78.3900
    239     -3.6500     -1.9500      7.8420      1.7700     78.3900
    240     -2.8050     -1.7430      8.4960      0.0100     78.3900
    241     -4.5120     -0.9980      7.4670      1.7700     78.3900
    242     -4.4170      0.0340      7.8000      0.0100     78.3900
    243     -4.8490     -3.6000      6.5970      1.7700     78.3900
    244     -4.9570     -4.7730      6.2110      1.5900     78.3900
    245     -5.7340     -2.6540      6.2080      1.6800     78.3900
    246     -5.5920     -1.3840      6.6240      1.7700     78.3900
    247     -6.4920     -0.4800      6.2450      1.6800     78.3900
    248     -7.2620     -0.7610      5.6660      0.0100     78.3900
    249     -6.4360      0.4740      6.5360      0.0100     78.3900
    250     -1.8210     -4.6420      6.7870      1.7700     78.3900
    251     -2.2060     -4.4040      5.7720      0.0100     78.3900
    252     -1.4760     -6.0160      6.8690      1.5900     78.3900
    253     -0.7010     -6.1710      6.3030      0.0100     78.3900
    254     -0.6520     -3.7350      7.1550      1.7700     78.3900
    255     -0.8690     -2.6890      6.8480      0.0100     78.3900
    256      0.6200     -4.1650      6.6370      1.5900     78.3900
    257      0.6580     -4.0050      5.6760      0.0100     78.3900

     ----------------------------
     INPUT FOR TESSERA DEFINITION
     ----------------------------
     NTSALL  =        60     MTHALL  =         4
     MTHAUT  =         0     AUTFRE  =    2.0000
     NTSFRZ  =        60     KEEPSM  =         0
     AREAKP  =   10.0000     BONDRY  =    1.0000
     AREATL  =    0.0100

     SPHERE     INITS       METHOD
          1        60       FIXPVA
          2        60       FIXPVA
          3        60       FIXPVA
          4        60       FIXPVA
          5        60       FIXPVA
          6        60       FIXPVA
          7        60       FIXPVA
          8        60       FIXPVA
          9        60       FIXPVA
         10        60       FIXPVA
         11        60       FIXPVA
         12        60       FIXPVA
         13        60       FIXPVA
         14        60       FIXPVA
         15        60       FIXPVA
         16        60       FIXPVA
         17        60       FIXPVA
         18        60       FIXPVA
         19        60       FIXPVA
         20        60       FIXPVA
         21        60       FIXPVA
         22        60       FIXPVA
         23        60       FIXPVA
         24        60       FIXPVA
         25        60       FIXPVA
         26        60       FIXPVA
         27        60       FIXPVA
         28        60       FIXPVA
         29        60       FIXPVA
         30        60       FIXPVA
         31        60       FIXPVA
         32        60       FIXPVA
         33        60       FIXPVA
         34        60       FIXPVA
         35        60       FIXPVA
         36        60       FIXPVA
         37        60       FIXPVA
         38        60       FIXPVA
         39        60       FIXPVA
         40        60       FIXPVA
         41        60       FIXPVA
         42        60       FIXPVA
         43        60       FIXPVA
         44        60       FIXPVA
         45        60       FIXPVA
         46        60       FIXPVA
         47        60       FIXPVA
         48        60       FIXPVA
         49        60       FIXPVA
         50        60       FIXPVA
         51        60       FIXPVA
         52        60       FIXPVA
         53        60       FIXPVA
         54        60       FIXPVA
         55        60       FIXPVA
         56        60       FIXPVA
         57        60       FIXPVA
         58        60       FIXPVA
         59        60       FIXPVA
         60        60       FIXPVA
         61        60       FIXPVA
         62        60       FIXPVA
         63        60       FIXPVA
         64        60       FIXPVA
         65        60       FIXPVA
         66        60       FIXPVA
         67        60       FIXPVA
         68        60       FIXPVA
         69        60       FIXPVA
         70        60       FIXPVA
         71        60       FIXPVA
         72        60       FIXPVA
         73        60       FIXPVA
         74        60       FIXPVA
         75        60       FIXPVA
         76        60       FIXPVA
         77        60       FIXPVA
         78        60       FIXPVA
         79        60       FIXPVA
         80        60       FIXPVA
         81        60       FIXPVA
         82        60       FIXPVA
         83        60       FIXPVA
         84        60       FIXPVA
         85        60       FIXPVA
         86        60       FIXPVA
         87        60       FIXPVA
         88        60       FIXPVA
         89        60       FIXPVA
         90        60       FIXPVA
         91        60       FIXPVA
         92        60       FIXPVA
         93        60       FIXPVA
         94        60       FIXPVA
         95        60       FIXPVA
         96        60       FIXPVA
         97        60       FIXPVA
         98        60       FIXPVA
         99        60       FIXPVA
        100        60       FIXPVA
        101        60       FIXPVA
        102        60       FIXPVA
        103        60       FIXPVA
        104        60       FIXPVA
        105        60       FIXPVA
        106        60       FIXPVA
        107        60       FIXPVA
        108        60       FIXPVA
        109        60       FIXPVA
        110        60       FIXPVA
        111        60       FIXPVA
        112        60       FIXPVA
        113        60       FIXPVA
        114        60       FIXPVA
        115        60       FIXPVA
        116        60       FIXPVA
        117        60       FIXPVA
        118        60       FIXPVA
        119        60       FIXPVA
        120        60       FIXPVA
        121        60       FIXPVA
        122        60       FIXPVA
        123        60       FIXPVA
        124        60       FIXPVA
        125        60       FIXPVA
        126        60       FIXPVA
        127        60       FIXPVA
        128        60       FIXPVA
        129        60       FIXPVA
        130        60       FIXPVA
        131        60       FIXPVA
        132        60       FIXPVA
        133        60       FIXPVA
        134        60       FIXPVA
        135        60       FIXPVA
        136        60       FIXPVA
        137        60       FIXPVA
        138        60       FIXPVA
        139        60       FIXPVA
        140        60       FIXPVA
        141        60       FIXPVA
        142        60       FIXPVA
        143        60       FIXPVA
        144        60       FIXPVA
        145        60       FIXPVA
        146        60       FIXPVA
        147        60       FIXPVA
        148        60       FIXPVA
        149        60       FIXPVA
        150        60       FIXPVA
        151        60       FIXPVA
        152        60       FIXPVA
        153        60       FIXPVA
        154        60       FIXPVA
        155        60       FIXPVA
        156        60       FIXPVA
        157        60       FIXPVA
        158        60       FIXPVA
        159        60       FIXPVA
        160        60       FIXPVA
        161        60       FIXPVA
        162        60       FIXPVA
        163        60       FIXPVA
        164        60       FIXPVA
        165        60       FIXPVA
        166        60       FIXPVA
        167        60       FIXPVA
        168        60       FIXPVA
        169        60       FIXPVA
        170        60       FIXPVA
        171        60       FIXPVA
        172        60       FIXPVA
        173        60       FIXPVA
        174        60       FIXPVA
        175        60       FIXPVA
        176        60       FIXPVA
        177        60       FIXPVA
        178        60       FIXPVA
        179        60       FIXPVA
        180        60       FIXPVA
        181        60       FIXPVA
        182        60       FIXPVA
        183        60       FIXPVA
        184        60       FIXPVA
        185        60       FIXPVA
        186        60       FIXPVA
        187        60       FIXPVA
        188        60       FIXPVA
        189        60       FIXPVA
        190        60       FIXPVA
        191        60       FIXPVA
        192        60       FIXPVA
        193        60       FIXPVA
        194        60       FIXPVA
        195        60       FIXPVA
        196        60       FIXPVA
        197        60       FIXPVA
        198        60       FIXPVA
        199        60       FIXPVA
        200        60       FIXPVA
        201        60       FIXPVA
        202        60       FIXPVA
        203        60       FIXPVA
        204        60       FIXPVA
        205        60       FIXPVA
        206        60       FIXPVA
        207        60       FIXPVA
        208        60       FIXPVA
        209        60       FIXPVA
        210        60       FIXPVA
        211        60       FIXPVA
        212        60       FIXPVA
        213        60       FIXPVA
        214        60       FIXPVA
        215        60       FIXPVA
        216        60       FIXPVA
        217        60       FIXPVA
        218        60       FIXPVA
        219        60       FIXPVA
        220        60       FIXPVA
        221        60       FIXPVA
        222        60       FIXPVA
        223        60       FIXPVA
        224        60       FIXPVA
        225        60       FIXPVA
        226        60       FIXPVA
        227        60       FIXPVA
        228        60       FIXPVA
        229        60       FIXPVA
        230        60       FIXPVA
        231        60       FIXPVA
        232        60       FIXPVA
        233        60       FIXPVA
        234        60       FIXPVA
        235        60       FIXPVA
        236        60       FIXPVA
        237        60       FIXPVA
        238        60       FIXPVA
        239        60       FIXPVA
        240        60       FIXPVA
        241        60       FIXPVA
        242        60       FIXPVA
        243        60       FIXPVA
        244        60       FIXPVA
        245        60       FIXPVA
        246        60       FIXPVA
        247        60       FIXPVA
        248        60       FIXPVA
        249        60       FIXPVA
        250        60       FIXPVA
        251        60       FIXPVA
        252        60       FIXPVA
        253        60       FIXPVA
        254        60       FIXPVA
        255        60       FIXPVA
        256        60       FIXPVA
        257        60       FIXPVA

     ------------------------------
      FIXPVA TESSELLATION FOR PCM
         PEIFENG SU AND HUI LI
     UNIVERSITY OF NEBRASKA-LINCOLN
     ------------------------------


 PCM DIMENSIONS: MXSP=   257, MXTS=     10280, MEMORY=        105630

     INPUT FOR CAVITY DEFINITION 
     ---------------------------
   ATOM               COORDINATES                RADIUS       EPS
      1    -15.3720     -3.5350      0.3610      0.0100     78.3900
      2    -14.6620     -4.0420      0.8060      1.5900     78.3900
      3    -14.5910     -5.3190      0.1550      1.7700     78.3900
      4    -14.4280     -5.1630     -0.9350      0.0100     78.3900
      5    -15.5600     -5.8530      0.2790      0.0100     78.3900
      6    -13.4640     -6.2090      0.6900      1.7700     78.3900
      7    -13.4730     -7.2060      0.1980      0.0100     78.3900
      8    -12.1760     -5.5920      0.4010      1.5900     78.3900
      9    -11.2990     -5.8090      1.4920      1.7700     78.3900
     10    -10.3870     -6.2990      1.0780      0.0100     78.3900
     11    -10.9080     -4.5450      2.1290      1.6800     78.3900
     12     -9.8320     -4.3670      2.9570      1.7700     78.3900
     13     -7.0640     -5.6410      4.5990      1.6800     78.3900
     14     -7.0840     -6.6070      4.3550      0.0100     78.3900
     15     -6.3360     -5.3040      5.2020      0.0100     78.3900
     16     -8.9690     -5.3230      3.3430      1.6800     78.3900
     17     -7.9980     -4.8440      4.1170      1.7700     78.3900
     18     -7.8930     -3.5210      4.4570      1.6800     78.3900
     19     -7.1260     -3.2420      5.0480      0.0100     78.3900
     20     -8.7680     -2.5120      4.0750      1.7700     78.3900
     21     -8.5970     -1.3440      4.4380      1.5900     78.3900
     22     -9.8230     -3.0210      3.2680      1.7700     78.3900
     23    -10.8940     -2.3670      2.6690      1.6800     78.3900
     24    -11.5160     -3.3130      2.0020      1.7700     78.3900
     25    -12.4130     -3.1790      1.3910      0.0100     78.3900
     26    -11.9890     -6.7520      2.4490      1.7700     78.3900
     27    -11.6990     -6.5780      3.5050      0.0100     78.3900
     28    -11.7060     -8.0900      2.0870      1.5900     78.3900
     29    -12.2220     -8.6410      2.6850      0.0100     78.3900
     30    -13.4560     -6.4160      2.2100      1.7700     78.3900
     31    -13.7100     -5.4330      2.6680      0.0100     78.3900
     32    -14.3930     -7.4580      2.5620      1.5900     78.3900
     33    -14.9780     -7.5110      4.0250      2.1000     78.3900
     34    -15.4640     -6.1610      4.3820      1.5900     78.3900
     35    -15.9640     -8.6120      4.0730      1.5900     78.3900
     36    -13.7350     -7.8780      4.9080      1.5900     78.3900
     37    -13.1260     -9.1880      4.8620      1.7700     78.3900
     38    -12.8350     -9.4830      3.8330      0.0100     78.3900
     39    -13.8360     -9.9640      5.2240      0.0100     78.3900
     40    -11.8780     -9.2370      5.7540      1.7700     78.3900
     41    -11.4020    -10.2370      5.7120      0.0100     78.3900
     42    -10.8890     -8.2670      5.3150      1.5900     78.3900
     43    -10.2220     -7.7330      6.4530      1.7700     78.3900
     44     -9.1470     -7.9860      6.3070      0.0100     78.3900
     45    -10.3600     -6.2550      6.5620      1.6800     78.3900
     46    -11.4490     -5.6250      6.0050      1.7700     78.3900
     47    -12.1700     -6.2700      5.5000      0.0100     78.3900
     48    -11.5880     -4.2950      6.0580      1.7700     78.3900
     49    -12.4220     -3.7780      5.5880      0.0100     78.3900
     50     -9.4220     -5.5070      7.2710      1.7700     78.3900
     51     -8.4790     -6.0870      7.8300      1.5900     78.3900
     52     -9.5440     -4.1620      7.3330      1.6800     78.3900
     53    -10.5880     -3.5520      6.7460      1.7700     78.3900
     54    -10.6600     -2.2230      6.7830      1.6800     78.3900
     55     -9.9830     -1.6980      7.3030      0.0100     78.3900
     56    -11.4510     -1.7360      6.4150      0.0100     78.3900
     57    -10.7420     -8.4690      7.6780      1.7700     78.3900
     58    -10.7900     -7.8160      8.5680      0.0100     78.3900
     59     -9.9320     -9.5950      7.9540      1.5900     78.3900
     60    -10.4000    -10.1510      8.6000      0.0100     78.3900
     61    -12.1360     -8.8770      7.2180      1.7700     78.3900
     62    -12.8070     -7.9890      7.2060      0.0100     78.3900
     63    -12.7060    -10.0110      7.8990      1.5900     78.3900
     64    -13.5870     -9.8610      9.1850      2.1000     78.3900
     65    -14.5680    -10.9670      9.1870      1.5900     78.3900
     66    -12.6750     -9.7780     10.3490      1.5900     78.3900
     67    -14.3520     -8.4980      9.0010      1.5900     78.3900
     68    -15.5380     -8.2240      9.7880      1.7700     78.3900
     69    -15.5180     -8.7350     10.7820      0.0100     78.3900
     70    -16.4310     -8.5990      9.2440      0.0100     78.3900
     71    -15.7540     -6.7230     10.0600      1.7700     78.3900
     72    -16.6540     -6.6120     10.6970      0.0100     78.3900
     73    -14.6460     -6.1840     10.8140      1.5900     78.3900
     74    -13.9560     -5.2170     10.0370      1.7700     78.3900
     75    -14.3360     -4.2260     10.3780      0.0100     78.3900
     76    -12.4980     -5.3320     10.2390      1.6800     78.3900
     77    -11.9330     -6.5460     10.5580      1.7700     78.3900
     78    -12.6270     -7.3880     10.6140      0.0100     78.3900
     79    -11.7410     -4.1870     10.1750      1.7700     78.3900
     80    -12.2080     -3.0820      9.9230      1.5900     78.3900
     81    -10.4140     -4.3730     10.4370      1.6800     78.3900
     82     -9.8910     -3.5250     10.5610      0.0100     78.3900
     83     -9.7860     -5.5370     10.8220      1.7700     78.3900
     84     -8.5980     -5.5260     11.1290      1.5900     78.3900
     85    -10.6320     -6.6840     10.8450      1.7700     78.3900
     86    -10.2060     -7.6380     11.1480      0.0100     78.3900
     87    -14.3770     -5.4310      8.6000      1.7700     78.3900
     88    -13.8120     -6.2690      8.1410      0.0100     78.3900
     89    -14.2580     -4.2690      7.8030      1.5900     78.3900
     90    -14.9270     -3.6430      8.1200      0.0100     78.3900
     91    -15.8400     -5.8200      8.7980      1.7700     78.3900
     92    -16.1600     -6.4480      7.9330      0.0100     78.3900
     93    -16.7220     -4.6740      8.9360      1.5900     78.3900
     94    -18.2500     -4.8300      9.2790      2.1000     78.3900
     95    -19.0340     -3.9410      8.3950      1.5900     78.3900
     96    -18.6540     -6.2550      9.2590      1.5900     78.3900
     97    -18.3380     -4.2960     10.7550      1.5900     78.3900
     98    -18.7060     -2.9320     11.0640      1.7700     78.3900
     99    -19.8000     -2.8940     11.2710      0.0100     78.3900
    100    -18.5100     -2.2290     10.2200      0.0100     78.3900
    101    -17.9840     -2.3770     12.3080      1.7700     78.3900
    102    -18.4100     -1.3840     12.5720      0.0100     78.3900
    103    -18.1250     -3.2660     13.4550      1.5900     78.3900
    104    -16.8630     -3.8500     13.7550      1.7700     78.3900
    105    -16.4860     -3.3090     14.6530      0.0100     78.3900
    106    -16.9940     -5.2830     14.0490      1.6800     78.3900
    107    -16.3180     -5.9780     15.0180      1.7700     78.3900
    108    -13.9160     -6.0880     17.5020      1.6800     78.3900
    109    -13.5910     -6.7210     18.2070      0.0100     78.3900
    110    -13.6280     -5.1280     17.5400      0.0100     78.3900
    111    -15.4000     -5.4700     15.8590      1.6800     78.3900
    112    -14.8800     -6.4000     16.6560      1.7700     78.3900
    113    -15.3110     -7.7030     16.6790      1.6800     78.3900
    114    -14.9040     -8.3200     17.3660      0.0100     78.3900
    115    -16.2860     -8.2460     15.8480      1.7700     78.3900
    116    -16.6250     -9.4350     15.9240      1.5900     78.3900
    117    -16.7940     -7.2740     14.9430      1.7700     78.3900
    118    -17.7340     -7.3990     13.9260      1.6800     78.3900
    119    -17.8180     -6.1890     13.4210      1.7700     78.3900
    120    -18.4670     -5.8880     12.5970      0.0100     78.3900
    121    -15.9400     -3.5720     12.5960      1.7700     78.3900
    122    -16.0650     -4.3390     11.8030      0.0100     78.3900
    123    -14.5900     -3.4780     12.9940      1.5900     78.3900
    124    -14.5070     -2.6640     13.5120      0.0100     78.3900
    125    -16.4650     -2.2290     12.1050      1.7700     78.3900
    126    -16.2810     -2.1880     11.0040      0.0100     78.3900
    127    -15.9210     -1.0840     12.8250      1.5900     78.3900
    128    -15.4680      0.1860     12.0020      2.1000     78.3900
    129    -14.9650     -0.2560     10.6850      1.5900     78.3900
    130    -16.5770      1.1670     11.9950      1.5900     78.3900
    131    -14.2710      0.7820     12.8440      1.5900     78.3900
    132    -13.1490      1.3740     12.1300      1.7700     78.3900
    133    -13.4660      2.2850     11.5680      0.0100     78.3900
    134    -12.7280      0.6540     11.3870      0.0100     78.3900
    135    -12.0030      1.7480     13.0890      1.7700     78.3900
    136    -12.3260      2.5280     13.8110      0.0100     78.3900
    137    -11.6220      0.5740     13.8650      1.5900     78.3900
    138    -10.2280      0.5880     14.1100      1.7700     78.3900
    139    -10.1020      0.5980     15.2180      0.0100     78.3900
    140     -9.5920     -0.6080     13.5570      1.6800     78.3900
    141     -8.2160     -2.2850     13.2130      1.7700     78.3900
    142     -9.2410     -2.4270     12.2860      1.6800     78.3900
    143    -10.0420     -1.4200     12.5420      1.7700     78.3900
    144    -10.9890     -1.2200     12.0310      0.0100     78.3900
    145     -6.2710     -2.6460     14.5140      1.6800     78.3900
    146     -6.5390     -1.4760     15.1040      1.7700     78.3900
    147     -5.8250     -1.1590     15.8720      0.0100     78.3900
    148     -7.6060     -0.6840     14.9480      1.6800     78.3900
    149     -8.4080     -1.1500     13.9800      1.7700     78.3900
    150     -7.1000     -3.0880     13.5370      1.7700     78.3900
    151     -6.8490     -4.2820     12.9740      1.6800     78.3900
    152     -7.4150     -4.6310     12.2200      0.0100     78.3900
    153     -5.9670     -4.7230     13.1540      0.0100     78.3900
    154     -9.6580      1.8620     13.5190      1.7700     78.3900
    155     -8.6470      1.7180     13.0760      0.0100     78.3900
    156     -9.6070      2.8790     14.4980      1.5900     78.3900
    157     -9.4860      3.7100     14.0210      0.0100     78.3900
    158    -10.6800      2.1930     12.4380      1.7700     78.3900
    159    -10.5330      1.5130     11.5670      0.0100     78.3900
    160    -10.7270      3.6000     12.0890      1.5900     78.3900
    161    -10.0130      4.0660     10.7580      2.1000     78.3900
    162    -10.2840      3.0480      9.7280      1.5900     78.3900
    163    -10.4610      5.4440     10.4570      1.5900     78.3900
    164     -8.4730      4.0910     11.1130      1.5900     78.3900
    165     -7.5440      4.8650     10.3120      1.7700     78.3900
    166     -8.0440      5.6910      9.7480      0.0100     78.3900
    167     -7.0680      4.1970      9.5570      0.0100     78.3900
    168     -6.4150      5.5210     11.1390      1.7700     78.3900
    169     -5.7410      6.0770     10.4510      0.0100     78.3900
    170     -6.9460      6.4550     12.1190      1.5900     78.3900
    171     -6.6910      5.9720     13.4400      1.7700     78.3900
    172     -5.7950      6.5340     13.7860      0.0100     78.3900
    173     -7.8270      6.2200     14.3860      1.6800     78.3900
    174     -8.9960      6.7830     13.9160      1.7700     78.3900
    175     -9.0570      6.9540     12.8370      0.0100     78.3900
    176    -10.0110      7.0820     14.7360      1.7700     78.3900
    177    -10.9350      7.5300     14.3780      0.0100     78.3900
    178     -7.6830      6.0040     15.7610      1.7700     78.3900
    179     -6.5980      5.6080     16.2060      1.5900     78.3900
    180     -8.7170      6.2500     16.5980      1.6800     78.3900
    181     -9.8450      6.8030     16.1240      1.7700     78.3900
    182    -10.8210      7.0880     16.9840      1.6800     78.3900
    183    -10.6990      6.8160     17.9410      0.0100     78.3900
    184    -11.6930      7.4830     16.6970      0.0100     78.3900
    185     -6.3200      4.5040     13.2880      1.7700     78.3900
    186     -7.2310      3.8740     13.2100      0.0100     78.3900
    187     -5.4680      4.0160     14.3010      1.5900     78.3900
    188     -4.6340      4.5020     14.2180      0.0100     78.3900
    189     -5.5720      4.5430     11.9690      1.7700     78.3900
    190     -5.6410      3.5450     11.4850      0.0100     78.3900
    191     -4.2060      5.0020     12.1280      1.5900     78.3900
    192     -3.0480      4.3930     11.2660      2.1000     78.3900
    193     -3.3730      4.6270      9.8430      1.5900     78.3900
    194     -1.7620      4.9370     11.7660      1.5900     78.3900
    195     -3.1240      2.8410     11.5430      1.5900     78.3900
    196     -2.3330      2.2490     12.5960      1.7700     78.3900
    197     -2.6540      2.6330     13.5900      0.0100     78.3900
    198     -1.2500      2.4830     12.4620      0.0100     78.3900
    199     -2.4480      0.7190     12.6040      1.7700     78.3900
    200     -1.7620      0.2810     13.3630      0.0100     78.3900
    201     -3.7980      0.3150     12.9690      1.5900     78.3900
    202     -4.1730     -0.8090     12.1860      1.7700     78.3900
    203     -4.5050     -1.6000     12.8920      0.0100     78.3900
    204     -5.2810     -0.4780     11.2780      1.6800     78.3900
    205     -6.0110     -1.3510     10.5210      1.7700     78.3900
    206     -6.6030     -4.5650      9.3990      1.6800     78.3900
    207     -5.9490     -5.0950      9.9360      0.0100     78.3900
    208     -7.3080     -5.0570      8.8850      0.0100     78.3900
    209     -5.8270     -2.6780     10.4550      1.6800     78.3900
    210     -6.6870     -3.2710      9.6380      1.7700     78.3900
    211     -7.6890     -2.6030      8.9890      1.6800     78.3900
    212     -8.3010     -3.1320      8.3870      0.0100     78.3900
    213     -7.9090     -1.2320      9.0410      1.7700     78.3900
    214     -8.8320     -0.7220      8.4030      1.5900     78.3900
    215     -6.9530     -0.5810      9.8670      1.7700     78.3900
    216     -6.7930      0.7630     10.1780      1.6800     78.3900
    217     -5.7920      0.7740     11.0270      1.7700     78.3900
    218     -5.3620      1.6520     11.5090      0.0100     78.3900
    219     -2.9400     -1.2780     11.4450      1.7700     78.3900
    220     -3.1820     -1.7570     10.4740      0.0100     78.3900
    221     -2.2050     -2.1830     12.2470      1.5900     78.3900
    222     -1.3980     -2.3890     11.7620      0.0100     78.3900
    223     -2.1880      0.0320     11.2550      1.7700     78.3900
    224     -2.6930      0.6520     10.4770      0.0100     78.3900
    225     -0.7650     -0.1090     11.0440      1.5900     78.3900
    226     -0.1760      0.0050      9.5900      2.1000     78.3900
    227     -0.8720      1.0840      8.8630      1.5900     78.3900
    228      1.3020      0.0820      9.6440      1.5900     78.3900
    229     -0.5950     -1.3620      8.9310      1.5900     78.3900
    230     -0.0410     -2.6080      9.4100      1.7700     78.3900
    231     -0.2150     -2.7370     10.5020      0.0100     78.3900
    232      1.0630     -2.6380      9.2420      0.0100     78.3900
    233     -0.6710     -3.8060      8.6870      1.7700     78.3900
    234     -0.1910     -4.7570      9.0100      0.0100     78.3900
    235     -2.0820     -3.8960      9.0290      1.5900     78.3900
    236     -2.8210     -4.2920      7.8790      1.7700     78.3900
    237     -3.3760     -5.2120      8.1750      0.0100     78.3900
    238     -3.8000     -3.2570      7.4420      1.6800     78.3900
    239     -3.6500     -1.9500      7.8420      1.7700     78.3900
    240     -2.8050     -1.7430      8.4960      0.0100     78.3900
    241     -4.5120     -0.9980      7.4670      1.7700     78.3900
    242     -4.4170      0.0340      7.8000      0.0100     78.3900
    243     -4.8490     -3.6000      6.5970      1.7700     78.3900
    244     -4.9570     -4.7730      6.2110      1.5900     78.3900
    245     -5.7340     -2.6540      6.2080      1.6800     78.3900
    246     -5.5920     -1.3840      6.6240      1.7700     78.3900
    247     -6.4920     -0.4800      6.2450      1.6800     78.3900
    248     -7.2620     -0.7610      5.6660      0.0100     78.3900
    249     -6.4360      0.4740      6.5360      0.0100     78.3900
    250     -1.8210     -4.6420      6.7870      1.7700     78.3900
    251     -2.2060     -4.4040      5.7720      0.0100     78.3900
    252     -1.4760     -6.0160      6.8690      1.5900     78.3900
    253     -0.7010     -6.1710      6.3030      0.0100     78.3900
    254     -0.6520     -3.7350      7.1550      1.7700     78.3900
    255     -0.8690     -2.6890      6.8480      0.0100     78.3900
    256      0.6200     -4.1650      6.6370      1.5900     78.3900
    257      0.6580     -4.0050      5.6760      0.0100     78.3900

 CREATION OF A NEW CAVITY WITH THE ORIGINAL SPHERE
 SIZES FOR THE COMPUTATION OF THE CAVITATION ENERGY.

     INPUT FOR CAVITY DEFINITION 
     ---------------------------
   ATOM               COORDINATES                RADIUS       EPS
      1    -15.3720     -3.5350      0.3610      0.0100     78.3900
      2    -14.6620     -4.0420      0.8060      1.5900     78.3900
      3    -14.5910     -5.3190      0.1550      1.7700     78.3900
      4    -14.4280     -5.1630     -0.9350      0.0100     78.3900
      5    -15.5600     -5.8530      0.2790      0.0100     78.3900
      6    -13.4640     -6.2090      0.6900      1.7700     78.3900
      7    -13.4730     -7.2060      0.1980      0.0100     78.3900
      8    -12.1760     -5.5920      0.4010      1.5900     78.3900
      9    -11.2990     -5.8090      1.4920      1.7700     78.3900
     10    -10.3870     -6.2990      1.0780      0.0100     78.3900
     11    -10.9080     -4.5450      2.1290      1.6800     78.3900
     12     -9.8320     -4.3670      2.9570      1.7700     78.3900
     13     -7.0640     -5.6410      4.5990      1.6800     78.3900
     14     -7.0840     -6.6070      4.3550      0.0100     78.3900
     15     -6.3360     -5.3040      5.2020      0.0100     78.3900
     16     -8.9690     -5.3230      3.3430      1.6800     78.3900
     17     -7.9980     -4.8440      4.1170      1.7700     78.3900
     18     -7.8930     -3.5210      4.4570      1.6800     78.3900
     19     -7.1260     -3.2420      5.0480      0.0100     78.3900
     20     -8.7680     -2.5120      4.0750      1.7700     78.3900
     21     -8.5970     -1.3440      4.4380      1.5900     78.3900
     22     -9.8230     -3.0210      3.2680      1.7700     78.3900
     23    -10.8940     -2.3670      2.6690      1.6800     78.3900
     24    -11.5160     -3.3130      2.0020      1.7700     78.3900
     25    -12.4130     -3.1790      1.3910      0.0100     78.3900
     26    -11.9890     -6.7520      2.4490      1.7700     78.3900
     27    -11.6990     -6.5780      3.5050      0.0100     78.3900
     28    -11.7060     -8.0900      2.0870      1.5900     78.3900
     29    -12.2220     -8.6410      2.6850      0.0100     78.3900
     30    -13.4560     -6.4160      2.2100      1.7700     78.3900
     31    -13.7100     -5.4330      2.6680      0.0100     78.3900
     32    -14.3930     -7.4580      2.5620      1.5900     78.3900
     33    -14.9780     -7.5110      4.0250      2.1000     78.3900
     34    -15.4640     -6.1610      4.3820      1.5900     78.3900
     35    -15.9640     -8.6120      4.0730      1.5900     78.3900
     36    -13.7350     -7.8780      4.9080      1.5900     78.3900
     37    -13.1260     -9.1880      4.8620      1.7700     78.3900
     38    -12.8350     -9.4830      3.8330      0.0100     78.3900
     39    -13.8360     -9.9640      5.2240      0.0100     78.3900
     40    -11.8780     -9.2370      5.7540      1.7700     78.3900
     41    -11.4020    -10.2370      5.7120      0.0100     78.3900
     42    -10.8890     -8.2670      5.3150      1.5900     78.3900
     43    -10.2220     -7.7330      6.4530      1.7700     78.3900
     44     -9.1470     -7.9860      6.3070      0.0100     78.3900
     45    -10.3600     -6.2550      6.5620      1.6800     78.3900
     46    -11.4490     -5.6250      6.0050      1.7700     78.3900
     47    -12.1700     -6.2700      5.5000      0.0100     78.3900
     48    -11.5880     -4.2950      6.0580      1.7700     78.3900
     49    -12.4220     -3.7780      5.5880      0.0100     78.3900
     50     -9.4220     -5.5070      7.2710      1.7700     78.3900
     51     -8.4790     -6.0870      7.8300      1.5900     78.3900
     52     -9.5440     -4.1620      7.3330      1.6800     78.3900
     53    -10.5880     -3.5520      6.7460      1.7700     78.3900
     54    -10.6600     -2.2230      6.7830      1.6800     78.3900
     55     -9.9830     -1.6980      7.3030      0.0100     78.3900
     56    -11.4510     -1.7360      6.4150      0.0100     78.3900
     57    -10.7420     -8.4690      7.6780      1.7700     78.3900
     58    -10.7900     -7.8160      8.5680      0.0100     78.3900
     59     -9.9320     -9.5950      7.9540      1.5900     78.3900
     60    -10.4000    -10.1510      8.6000      0.0100     78.3900
     61    -12.1360     -8.8770      7.2180      1.7700     78.3900
     62    -12.8070     -7.9890      7.2060      0.0100     78.3900
     63    -12.7060    -10.0110      7.8990      1.5900     78.3900
     64    -13.5870     -9.8610      9.1850      2.1000     78.3900
     65    -14.5680    -10.9670      9.1870      1.5900     78.3900
     66    -12.6750     -9.7780     10.3490      1.5900     78.3900
     67    -14.3520     -8.4980      9.0010      1.5900     78.3900
     68    -15.5380     -8.2240      9.7880      1.7700     78.3900
     69    -15.5180     -8.7350     10.7820      0.0100     78.3900
     70    -16.4310     -8.5990      9.2440      0.0100     78.3900
     71    -15.7540     -6.7230     10.0600      1.7700     78.3900
     72    -16.6540     -6.6120     10.6970      0.0100     78.3900
     73    -14.6460     -6.1840     10.8140      1.5900     78.3900
     74    -13.9560     -5.2170     10.0370      1.7700     78.3900
     75    -14.3360     -4.2260     10.3780      0.0100     78.3900
     76    -12.4980     -5.3320     10.2390      1.6800     78.3900
     77    -11.9330     -6.5460     10.5580      1.7700     78.3900
     78    -12.6270     -7.3880     10.6140      0.0100     78.3900
     79    -11.7410     -4.1870     10.1750      1.7700     78.3900
     80    -12.2080     -3.0820      9.9230      1.5900     78.3900
     81    -10.4140     -4.3730     10.4370      1.6800     78.3900
     82     -9.8910     -3.5250     10.5610      0.0100     78.3900
     83     -9.7860     -5.5370     10.8220      1.7700     78.3900
     84     -8.5980     -5.5260     11.1290      1.5900     78.3900
     85    -10.6320     -6.6840     10.8450      1.7700     78.3900
     86    -10.2060     -7.6380     11.1480      0.0100     78.3900
     87    -14.3770     -5.4310      8.6000      1.7700     78.3900
     88    -13.8120     -6.2690      8.1410      0.0100     78.3900
     89    -14.2580     -4.2690      7.8030      1.5900     78.3900
     90    -14.9270     -3.6430      8.1200      0.0100     78.3900
     91    -15.8400     -5.8200      8.7980      1.7700     78.3900
     92    -16.1600     -6.4480      7.9330      0.0100     78.3900
     93    -16.7220     -4.6740      8.9360      1.5900     78.3900
     94    -18.2500     -4.8300      9.2790      2.1000     78.3900
     95    -19.0340     -3.9410      8.3950      1.5900     78.3900
     96    -18.6540     -6.2550      9.2590      1.5900     78.3900
     97    -18.3380     -4.2960     10.7550      1.5900     78.3900
     98    -18.7060     -2.9320     11.0640      1.7700     78.3900
     99    -19.8000     -2.8940     11.2710      0.0100     78.3900
    100    -18.5100     -2.2290     10.2200      0.0100     78.3900
    101    -17.9840     -2.3770     12.3080      1.7700     78.3900
    102    -18.4100     -1.3840     12.5720      0.0100     78.3900
    103    -18.1250     -3.2660     13.4550      1.5900     78.3900
    104    -16.8630     -3.8500     13.7550      1.7700     78.3900
    105    -16.4860     -3.3090     14.6530      0.0100     78.3900
    106    -16.9940     -5.2830     14.0490      1.6800     78.3900
    107    -16.3180     -5.9780     15.0180      1.7700     78.3900
    108    -13.9160     -6.0880     17.5020      1.6800     78.3900
    109    -13.5910     -6.7210     18.2070      0.0100     78.3900
    110    -13.6280     -5.1280     17.5400      0.0100     78.3900
    111    -15.4000     -5.4700     15.8590      1.6800     78.3900
    112    -14.8800     -6.4000     16.6560      1.7700     78.3900
    113    -15.3110     -7.7030     16.6790      1.6800     78.3900
    114    -14.9040     -8.3200     17.3660      0.0100     78.3900
    115    -16.2860     -8.2460     15.8480      1.7700     78.3900
    116    -16.6250     -9.4350     15.9240      1.5900     78.3900
    117    -16.7940     -7.2740     14.9430      1.7700     78.3900
    118    -17.7340     -7.3990     13.9260      1.6800     78.3900
    119    -17.8180     -6.1890     13.4210      1.7700     78.3900
    120    -18.4670     -5.8880     12.5970      0.0100     78.3900
    121    -15.9400     -3.5720     12.5960      1.7700     78.3900
    122    -16.0650     -4.3390     11.8030      0.0100     78.3900
    123    -14.5900     -3.4780     12.9940      1.5900     78.3900
    124    -14.5070     -2.6640     13.5120      0.0100     78.3900
    125    -16.4650     -2.2290     12.1050      1.7700     78.3900
    126    -16.2810     -2.1880     11.0040      0.0100     78.3900
    127    -15.9210     -1.0840     12.8250      1.5900     78.3900
    128    -15.4680      0.1860     12.0020      2.1000     78.3900
    129    -14.9650     -0.2560     10.6850      1.5900     78.3900
    130    -16.5770      1.1670     11.9950      1.5900     78.3900
    131    -14.2710      0.7820     12.8440      1.5900     78.3900
    132    -13.1490      1.3740     12.1300      1.7700     78.3900
    133    -13.4660      2.2850     11.5680      0.0100     78.3900
    134    -12.7280      0.6540     11.3870      0.0100     78.3900
    135    -12.0030      1.7480     13.0890      1.7700     78.3900
    136    -12.3260      2.5280     13.8110      0.0100     78.3900
    137    -11.6220      0.5740     13.8650      1.5900     78.3900
    138    -10.2280      0.5880     14.1100      1.7700     78.3900
    139    -10.1020      0.5980     15.2180      0.0100     78.3900
    140     -9.5920     -0.6080     13.5570      1.6800     78.3900
    141     -8.2160     -2.2850     13.2130      1.7700     78.3900
    142     -9.2410     -2.4270     12.2860      1.6800     78.3900
    143    -10.0420     -1.4200     12.5420      1.7700     78.3900
    144    -10.9890     -1.2200     12.0310      0.0100     78.3900
    145     -6.2710     -2.6460     14.5140      1.6800     78.3900
    146     -6.5390     -1.4760     15.1040      1.7700     78.3900
    147     -5.8250     -1.1590     15.8720      0.0100     78.3900
    148     -7.6060     -0.6840     14.9480      1.6800     78.3900
    149     -8.4080     -1.1500     13.9800      1.7700     78.3900
    150     -7.1000     -3.0880     13.5370      1.7700     78.3900
    151     -6.8490     -4.2820     12.9740      1.6800     78.3900
    152     -7.4150     -4.6310     12.2200      0.0100     78.3900
    153     -5.9670     -4.7230     13.1540      0.0100     78.3900
    154     -9.6580      1.8620     13.5190      1.7700     78.3900
    155     -8.6470      1.7180     13.0760      0.0100     78.3900
    156     -9.6070      2.8790     14.4980      1.5900     78.3900
    157     -9.4860      3.7100     14.0210      0.0100     78.3900
    158    -10.6800      2.1930     12.4380      1.7700     78.3900
    159    -10.5330      1.5130     11.5670      0.0100     78.3900
    160    -10.7270      3.6000     12.0890      1.5900     78.3900
    161    -10.0130      4.0660     10.7580      2.1000     78.3900
    162    -10.2840      3.0480      9.7280      1.5900     78.3900
    163    -10.4610      5.4440     10.4570      1.5900     78.3900
    164     -8.4730      4.0910     11.1130      1.5900     78.3900
    165     -7.5440      4.8650     10.3120      1.7700     78.3900
    166     -8.0440      5.6910      9.7480      0.0100     78.3900
    167     -7.0680      4.1970      9.5570      0.0100     78.3900
    168     -6.4150      5.5210     11.1390      1.7700     78.3900
    169     -5.7410      6.0770     10.4510      0.0100     78.3900
    170     -6.9460      6.4550     12.1190      1.5900     78.3900
    171     -6.6910      5.9720     13.4400      1.7700     78.3900
    172     -5.7950      6.5340     13.7860      0.0100     78.3900
    173     -7.8270      6.2200     14.3860      1.6800     78.3900
    174     -8.9960      6.7830     13.9160      1.7700     78.3900
    175     -9.0570      6.9540     12.8370      0.0100     78.3900
    176    -10.0110      7.0820     14.7360      1.7700     78.3900
    177    -10.9350      7.5300     14.3780      0.0100     78.3900
    178     -7.6830      6.0040     15.7610      1.7700     78.3900
    179     -6.5980      5.6080     16.2060      1.5900     78.3900
    180     -8.7170      6.2500     16.5980      1.6800     78.3900
    181     -9.8450      6.8030     16.1240      1.7700     78.3900
    182    -10.8210      7.0880     16.9840      1.6800     78.3900
    183    -10.6990      6.8160     17.9410      0.0100     78.3900
    184    -11.6930      7.4830     16.6970      0.0100     78.3900
    185     -6.3200      4.5040     13.2880      1.7700     78.3900
    186     -7.2310      3.8740     13.2100      0.0100     78.3900
    187     -5.4680      4.0160     14.3010      1.5900     78.3900
    188     -4.6340      4.5020     14.2180      0.0100     78.3900
    189     -5.5720      4.5430     11.9690      1.7700     78.3900
    190     -5.6410      3.5450     11.4850      0.0100     78.3900
    191     -4.2060      5.0020     12.1280      1.5900     78.3900
    192     -3.0480      4.3930     11.2660      2.1000     78.3900
    193     -3.3730      4.6270      9.8430      1.5900     78.3900
    194     -1.7620      4.9370     11.7660      1.5900     78.3900
    195     -3.1240      2.8410     11.5430      1.5900     78.3900
    196     -2.3330      2.2490     12.5960      1.7700     78.3900
    197     -2.6540      2.6330     13.5900      0.0100     78.3900
    198     -1.2500      2.4830     12.4620      0.0100     78.3900
    199     -2.4480      0.7190     12.6040      1.7700     78.3900
    200     -1.7620      0.2810     13.3630      0.0100     78.3900
    201     -3.7980      0.3150     12.9690      1.5900     78.3900
    202     -4.1730     -0.8090     12.1860      1.7700     78.3900
    203     -4.5050     -1.6000     12.8920      0.0100     78.3900
    204     -5.2810     -0.4780     11.2780      1.6800     78.3900
    205     -6.0110     -1.3510     10.5210      1.7700     78.3900
    206     -6.6030     -4.5650      9.3990      1.6800     78.3900
    207     -5.9490     -5.0950      9.9360      0.0100     78.3900
[...]
  12 11  0    -1341.1479238130    -0.0000000193   0.000000594   0.000000114      342814462   12917063
  13 12  0    -1341.1479238070     0.0000000061   0.000000217   0.000000064      310292624   13189004
  14 13  0    -1341.1479238073    -0.0000000003   0.000000118   0.000000032      284251487   13411394

          -----------------
          DENSITY CONVERGED
          -----------------
     TIME TO FORM FOCK OPERATORS=      22.0 SECONDS (       1.6 SEC/ITER)
     FOCK TIME ON FIRST ITERATION=       1.8, LAST ITERATION=       1.0
     TIME TO SOLVE SCF EQUATIONS=       0.4 SECONDS (       0.0 SEC/ITER)

 FINAL RHF ENERGY IS    -1341.1479238073 AFTER  14 ITERATIONS
 ...... END OF RHF CALCULATION ......
 CPU     0: STEP CPU TIME=    45.80 TOTAL CPU TIME=        800.2 (     13.3 MIN)
 TOTAL WALL CLOCK TIME=       1638.5 SECONDS, CPU UTILIZATION IS    48.84%
 DONE PCM POT.
 CPU     0: STEP CPU TIME=     0.33 TOTAL CPU TIME=        800.5 (     13.3 MIN)
 TOTAL WALL CLOCK TIME=       1639.2 SECONDS, CPU UTILIZATION IS    48.84%

 Iter=  2 iFrag=      3 EFMO= -1380.510421521, DD= 0.105133487, DE=-0.415859409


 RHF      monomer      8 corr= NONE       , L1=   264, L0=   248 ID=      8


 AO spaces for     8     0     0 n-mer: L1=   264, L0=   248

 DIRECT SCF CALCULATION, SCHWRZ=T   FDIFF=T,  DIRTHR=  0.00E+00 NITDIR=10

                                                                                   NONZERO     BLOCKS
 ITER EX DEM     TOTAL ENERGY        E CHANGE  DENSITY CHANGE     ORB. GRAD      INTEGRALS    SKIPPED
   1  0  0     -766.3842638647  -766.3842638647   0.031169627   0.000000000      330178810    3960584
          ---------------START SECOND ORDER SCF---------------
   2  1  0     -766.3938794709    -0.0096156062   0.010026737   0.002985395      318657405    4309349
   3  2  0     -766.3946347111    -0.0007552402   0.005232175   0.003901912      309666700    4470543
   4  3  0     -766.3945728640     0.0000618470   0.001597673   0.000646281      300714536    4601272
   5  4  0     -766.3944824755     0.0000903885   0.000598548   0.000280985      290494095    4740988
   6  5  0     -766.3944965313    -0.0000140558   0.000313988   0.000092999      278292741    4893627
   7  6  0     -766.3945155008    -0.0000189695   0.000068298   0.000032388      269718490    4999666
   8  7  0     -766.3945162058    -0.0000007051   0.000025014   0.000017597      253823710    5189709
   9  8  0     -766.3945157957     0.0000004102   0.000009563   0.000004845      243348554    5312332
  10  9  0     -766.3945156634     0.0000001323   0.000003677   0.000001740      226776603    5501698
  11 10  0     -766.3945157091    -0.0000000457   0.000001394   0.000000681      211841463    5681105
  12 11  0     -766.3945157069     0.0000000022   0.000000357   0.000000213      197629621    5831004
  13 12  0     -766.3945156942     0.0000000127   0.000000161   0.000000060      178628646    6043780

          -----------------
          DENSITY CONVERGED
          -----------------
     TIME TO FORM FOCK OPERATORS=      11.5 SECONDS (       0.9 SEC/ITER)
     FOCK TIME ON FIRST ITERATION=       1.1, LAST ITERATION=       0.6
     TIME TO SOLVE SCF EQUATIONS=       0.1 SECONDS (       0.0 SEC/ITER)

 FINAL RHF ENERGY IS     -766.3945156942 AFTER  13 ITERATIONS
 ...... END OF RHF CALCULATION ......
 CPU     0: STEP CPU TIME=    26.75 TOTAL CPU TIME=        827.3 (     13.8 MIN)
 TOTAL WALL CLOCK TIME=       1691.5 SECONDS, CPU UTILIZATION IS    48.91%
 DONE PCM POT.
 CPU     0: STEP CPU TIME=     0.18 TOTAL CPU TIME=        827.5 (     13.8 MIN)
 TOTAL WALL CLOCK TIME=       1692.1 SECONDS, CPU UTILIZATION IS    48.90%

 Iter=  2 iFrag=      8 EFMO=  -795.834194235, DD= 0.045294738, DE=-0.006333233

 CPU     0: STEP CPU TIME=     0.00 TOTAL CPU TIME=        827.5 (     13.8 MIN)
 TOTAL WALL CLOCK TIME=       1692.1 SECONDS, CPU UTILIZATION IS    48.90%

  Monomer SCF synchronisation on iteration   2.1 took     0.0 s.
 CPU     0: STEP CPU TIME=     0.00 TOTAL CPU TIME=        827.5 (     13.8 MIN)
 TOTAL WALL CLOCK TIME=       1692.1 SECONDS, CPU UTILIZATION IS    48.90%
 dmexch needs              3065480  words of memory.
 CPU     0: STEP CPU TIME=     0.01 TOTAL CPU TIME=        827.5 (     13.8 MIN)
 TOTAL WALL CLOCK TIME=       1692.1 SECONDS, CPU UTILIZATION IS    48.90%

 Data exchange of   1015485 words took     0.0 s.

 Calculating apparent surface charges...
     Using       42614 words of memory.
 ASC ITERATION=   1 CONVERGED TO  0.814458E-02
 ASC ITERATION=   2 CONVERGED TO  0.880941E-01
 ASC ITERATION=   3 CONVERGED TO  0.104034E+00
 ASC ITERATION=   4 CONVERGED TO  0.113985E-01
 ASC ITERATION=   5 CONVERGED TO  0.432065E-02
 ASC ITERATION=   6 CONVERGED TO  0.299247E-02
 ASC ITERATION=   7 CONVERGED TO  0.120712E-02
 ASC ITERATION=   8 CONVERGED TO  0.847069E-03
 ASC ITERATION=   9 CONVERGED TO  0.408562E-03
 ASC ITERATION=  10 CONVERGED TO  0.193113E-03
 ASC ITERATION=  11 CONVERGED TO  0.845717E-04
 ASC ITERATION=  12 CONVERGED TO  0.453548E-04
 ASC ITERATION=  13 CONVERGED TO  0.315169E-04
 ASC ITERATION=  14 CONVERGED TO  0.154371E-04
 ASC ITERATION=  15 CONVERGED TO  0.950999E-05
 ASC ITERATION=  16 CONVERGED TO  0.512823E-05
 ASC ITERATION=  17 CONVERGED TO  0.262247E-05
 ASC ITERATION=  18 CONVERGED TO  0.152591E-05
 ASC ITERATION=  19 CONVERGED TO  0.705035E-06
 ASC ITERATION=  20 CONVERGED TO  0.478557E-06
 ASC ITERATION=  21 CONVERGED TO  0.356774E-06
 ASC ITERATION=  22 CONVERGED TO  0.172412E-06
 ASC ITERATION=  23 CONVERGED TO  0.877145E-07
 ASC ITERATION=  24 CONVERGED TO  0.505835E-07
 ASC ITERATION=  25 CONVERGED TO  0.236827E-07
 ASC ITERATION=  26 CONVERGED TO  0.158457E-07
 ASC ITERATION=  27 CONVERGED TO  0.693973E-08
 ASC ITERATION=  28 CONVERGED TO  0.345633E-08
 ASC ITERATION=  29 CONVERGED TO  0.187023E-08
 ASC ITERATION=  30 CONVERGED TO  0.116075E-08
 ASC ITERATION=  31 CONVERGED TO  0.549218E-09
 ASC ITERATION=  32 CONVERGED TO  0.290095E-09
 ASC ITERATION=  33 CONVERGED TO  0.155521E-09
 ASC ITERATION=  34 CONVERGED TO  0.758447E-10

 THE ASC EQUATIONS FOR PHASE=1 CONVERGED IN  34 ITERATIONS.

 PCM ASC=      6.8578830555 normalised to=      6.9107028958
 Nuclear factor=   1.0031749890, electronic factor=   1.0031991452

 CPU     0: STEP CPU TIME=     0.15 TOTAL CPU TIME=        827.6 (     13.8 MIN)
 TOTAL WALL CLOCK TIME=       1692.4 SECONDS, CPU UTILIZATION IS    48.90%


 ------------------------------------------------------------------------------
 FMO iter  2.1,      0 fragment(s) converged, maxD 0.105133487 maxE 0.463243906
 ------------------------------------------------------------------------------

 RHF      monomer      1 corr= NONE       , L1=   403, L0=   378 ID=      1


 AO spaces for     1     0     0 n-mer: L1=   403, L0=   378

 DIRECT SCF CALCULATION, SCHWRZ=T   FDIFF=T,  DIRTHR=  0.00E+00 NITDIR=10

                                                                                   NONZERO     BLOCKS
 ITER EX DEM     TOTAL ENERGY        E CHANGE  DENSITY CHANGE     ORB. GRAD      INTEGRALS    SKIPPED
   1  0  0    -1549.3602394873 -1549.3602394873   0.009834522   0.000000000     1053818616   21813100
          ---------------START SECOND ORDER SCF---------------
   2  1  0    -1549.3589151990     0.0013242883   0.003043478   0.000589222      954341694   23473100
   3  2  0    -1549.3590477456    -0.0001325466   0.001169453   0.000375064      906253320   23964745
   4  3  0    -1549.3589054635     0.0001422821   0.000329330   0.000049171      838197118   24558468
   5  4  0    -1549.3588502878     0.0000551757   0.000110826   0.000042948      796789092   24915743
   6  5  0    -1549.3588435891     0.0000066987   0.000030556   0.000015134      752369593   25304332
   7  6  0    -1549.3588478014    -0.0000042123   0.000017512   0.000004177      690263262   25822653
   8  7  0    -1549.3588479264    -0.0000001250   0.000008259   0.000002363      644823711   26199670
   9  8  0    -1549.3588475256     0.0000004008   0.000002981   0.000000647      597996901   26608863
  10  9  0    -1549.3588474335     0.0000000921   0.000000744   0.000000272      546216916   27016110
  11 10  0    -1549.3588474776    -0.0000000441   0.000000342   0.000000109      502576826   27345121
  12 11  0    -1549.3588474850    -0.0000000074   0.000000090   0.000000040      454012359   27759716
  13 12  0    -1549.3588474895    -0.0000000045   0.000000035   0.000000019      400917291   28156166

          -----------------
          DENSITY CONVERGED
          -----------------
     TIME TO FORM FOCK OPERATORS=      28.8 SECONDS (       2.2 SEC/ITER)
     FOCK TIME ON FIRST ITERATION=       3.5, LAST ITERATION=       1.3
     TIME TO SOLVE SCF EQUATIONS=       0.6 SECONDS (       0.0 SEC/ITER)

 FINAL RHF ENERGY IS    -1549.3588474895 AFTER  13 ITERATIONS
 ...... END OF RHF CALCULATION ......
 CPU     0: STEP CPU TIME=    50.32 TOTAL CPU TIME=        878.0 (     14.6 MIN)
 TOTAL WALL CLOCK TIME=       1796.2 SECONDS, CPU UTILIZATION IS    48.88%
 DONE PCM POT.
 CPU     0: STEP CPU TIME=     0.35 TOTAL CPU TIME=        878.3 (     14.6 MIN)
 TOTAL WALL CLOCK TIME=       1797.2 SECONDS, CPU UTILIZATION IS    48.87%

 Iter=  3 iFrag=      1 EFMO= -1597.640519846, DD= 0.013788915, DE=-0.034245015


 RHF      monomer      7 corr= NONE       , L1=   386, L0=   362 ID=      2


 AO spaces for     7     0     0 n-mer: L1=   386, L0=   362

 DIRECT SCF CALCULATION, SCHWRZ=T   FDIFF=T,  DIRTHR=  0.00E+00 NITDIR=10

                                                                                   NONZERO     BLOCKS
 ITER EX DEM     TOTAL ENERGY        E CHANGE  DENSITY CHANGE     ORB. GRAD      INTEGRALS    SKIPPED
   1  0  0    -1467.0893121359 -1467.0893121359   0.029625330   0.000000000      919495955   17565835
          ---------------START SECOND ORDER SCF---------------
   2  1  0    -1467.0904742806    -0.0011621447   0.007718781   0.002498649      833791057   19001487
   3  2  0    -1467.0907914113    -0.0003171307   0.001445201   0.000520363      800307462   19357692
   4  3  0    -1467.0907462960     0.0000451153   0.000472795   0.000068777      752241297   19804436
   5  4  0    -1467.0907202959     0.0000260001   0.000155838   0.000058482      704337779   20192811
   6  5  0    -1467.0907224201    -0.0000021243   0.000062404   0.000018040      665772965   20530659
   7  6  0    -1467.0907223600     0.0000000601   0.000025776   0.000006893      623023554   20896445
   8  7  0    -1467.0907231740    -0.0000008140   0.000012885   0.000003436      580276752   21251205
   9  8  0    -1467.0907234593    -0.0000002852   0.000003254   0.000001171      553611280   21460442
  10  9  0    -1467.0907236395    -0.0000001802   0.000001335   0.000000370      511913901   21794944
  11 10  0    -1467.0907235613     0.0000000782   0.000000591   0.000000144      458831396   22202825
  12 11  0    -1467.0907235512     0.0000000101   0.000000149   0.000000067      428330707   22453054
  13 12  0    -1467.0907235500     0.0000000012   0.000000094   0.000000030      377854863   22863810

          -----------------
          DENSITY CONVERGED
          -----------------
     TIME TO FORM FOCK OPERATORS=      27.2 SECONDS (       2.1 SEC/ITER)
     FOCK TIME ON FIRST ITERATION=       2.9, LAST ITERATION=       1.3
     TIME TO SOLVE SCF EQUATIONS=       0.5 SECONDS (       0.0 SEC/ITER)

 FINAL RHF ENERGY IS    -1467.0907235500 AFTER  13 ITERATIONS
 ...... END OF RHF CALCULATION ......
 CPU     0: STEP CPU TIME=    56.15 TOTAL CPU TIME=        934.5 (     15.6 MIN)
 TOTAL WALL CLOCK TIME=       1912.1 SECONDS, CPU UTILIZATION IS    48.87%
 DONE PCM POT.
 CPU     0: STEP CPU TIME=     0.33 TOTAL CPU TIME=        934.8 (     15.6 MIN)
 TOTAL WALL CLOCK TIME=       1913.1 SECONDS, CPU UTILIZATION IS    48.86%

 Iter=  3 iFrag=      7 EFMO= -1507.405728397, DD= 0.024589140, DE= 0.010355209


 RHF      monomer      4 corr= NONE       , L1=   386, L0=   362 ID=      3


 AO spaces for     4     0     0 n-mer: L1=   386, L0=   362

 DIRECT SCF CALCULATION, SCHWRZ=T   FDIFF=T,  DIRTHR=  0.00E+00 NITDIR=10

                                                                                   NONZERO     BLOCKS
 ITER EX DEM     TOTAL ENERGY        E CHANGE  DENSITY CHANGE     ORB. GRAD      INTEGRALS    SKIPPED
   1  0  0    -1468.7066470899 -1468.7066470899   0.037012979   0.000000000      844991388   18197178
          ---------------START SECOND ORDER SCF---------------
   2  1  0    -1468.7071311083    -0.0004840184   0.008628895   0.002058447      773197201   19450095
   3  2  0    -1468.7074077018    -0.0002765935   0.001811094   0.000534644      742399147   19757947
   4  3  0    -1468.7072357340     0.0001719677   0.000685421   0.000139869      702359056   20153117
   5  4  0    -1468.7071894595     0.0000462745   0.000167161   0.000093714      658912562   20512820
   6  5  0    -1468.7071710801     0.0000183794   0.000076331   0.000031509      632462086   20756147
   7  6  0    -1468.7071672185     0.0000038617   0.000024786   0.000019924      593651336   21096334
   8  7  0    -1468.7071681366    -0.0000009181   0.000012377   0.000003656      559633377   21370462
   9  8  0    -1468.7071691207    -0.0000009841   0.000004104   0.000001745      533213748   21588834
  10  9  0    -1468.7071691383    -0.0000000176   0.000002061   0.000000430      493551453   21921977
  11 10  0    -1468.7071689858     0.0000001525   0.000000787   0.000000205      447794341   22274993
  12 11  0    -1468.7071689673     0.0000000186   0.000000250   0.000000119      421603250   22487715
  13 12  0    -1468.7071689752    -0.0000000079   0.000000112   0.000000029      367675886   22918951
  14 13  0    -1468.7071689808    -0.0000000055   0.000000046   0.000000013      341908057   23117137

          -----------------
          DENSITY CONVERGED
          -----------------
     TIME TO FORM FOCK OPERATORS=      28.0 SECONDS (       2.0 SEC/ITER)
     FOCK TIME ON FIRST ITERATION=       3.2, LAST ITERATION=       1.2
     TIME TO SOLVE SCF EQUATIONS=       0.5 SECONDS (       0.0 SEC/ITER)

 FINAL RHF ENERGY IS    -1468.7071689808 AFTER  14 ITERATIONS
 ...... END OF RHF CALCULATION ......
 CPU     0: STEP CPU TIME=    45.40 TOTAL CPU TIME=        980.2 (     16.3 MIN)
 TOTAL WALL CLOCK TIME=       1999.5 SECONDS, CPU UTILIZATION IS    49.02%
 DONE PCM POT.
 CPU     0: STEP CPU TIME=     0.32 TOTAL CPU TIME=        980.5 (     16.3 MIN)
 TOTAL WALL CLOCK TIME=       2000.5 SECONDS, CPU UTILIZATION IS    49.01%

 Iter=  3 iFrag=      4 EFMO= -1507.469612994, DD= 0.030681854, DE= 0.005923203


 RHF      monomer      5 corr= NONE       , L1=   371, L0=   348 ID=      4


 AO spaces for     5     0     0 n-mer: L1=   371, L0=   348

 DIRECT SCF CALCULATION, SCHWRZ=T   FDIFF=T,  DIRTHR=  0.00E+00 NITDIR=10

                                                                                   NONZERO     BLOCKS
 ITER EX DEM     TOTAL ENERGY        E CHANGE  DENSITY CHANGE     ORB. GRAD      INTEGRALS    SKIPPED
   1  0  0    -1393.8491230175 -1393.8491230175   0.023814657   0.000000000      800071857   15186647
          ---------------START SECOND ORDER SCF---------------
   2  1  0    -1393.8493642329    -0.0002412154   0.005649413   0.001579768      727695833   16426256
   3  2  0    -1393.8495488571    -0.0001846242   0.001030829   0.000542592      695855974   16755925
   4  3  0    -1393.8494639976     0.0000848596   0.000369055   0.000075568      652118977   17163754
   5  4  0    -1393.8494426252     0.0000213724   0.000121534   0.000049280      611012234   17506073
   6  5  0    -1393.8494354670     0.0000071582   0.000046874   0.000018904      580135820   17782242
   7  6  0    -1393.8494340709     0.0000013961   0.000012942   0.000011192      542413004   18126018
   8  7  0    -1393.8494337224     0.0000003486   0.000007810   0.000005069      510532275   18397849
   9  8  0    -1393.8494340430    -0.0000003206   0.000002996   0.000001182      490775403   18563666
  10  9  0    -1393.8494340398     0.0000000032   0.000000799   0.000000634      454905193   18862041
  11 10  0    -1393.8494339966     0.0000000432   0.000000401   0.000000152      412803053   19208636
  12 11  0    -1393.8494339907     0.0000000059   0.000000125   0.000000058      382107811   19468520
  13 12  0    -1393.8494339909    -0.0000000001   0.000000045   0.000000015      331846444   19885478

          -----------------
          DENSITY CONVERGED
          -----------------
     TIME TO FORM FOCK OPERATORS=      23.2 SECONDS (       1.8 SEC/ITER)
     FOCK TIME ON FIRST ITERATION=       2.8, LAST ITERATION=       1.1
     TIME TO SOLVE SCF EQUATIONS=       0.4 SECONDS (       0.0 SEC/ITER)

 FINAL RHF ENERGY IS    -1393.8494339909 AFTER  13 ITERATIONS
 ...... END OF RHF CALCULATION ......
 CPU     0: STEP CPU TIME=    44.28 TOTAL CPU TIME=       1024.8 (     17.1 MIN)
 TOTAL WALL CLOCK TIME=       2098.4 SECONDS, CPU UTILIZATION IS    48.84%
 DONE PCM POT.
 CPU     0: STEP CPU TIME=     0.30 TOTAL CPU TIME=       1025.1 (     17.1 MIN)
 TOTAL WALL CLOCK TIME=       2099.3 SECONDS, CPU UTILIZATION IS    48.83%

 Iter=  3 iFrag=      5 EFMO= -1432.590756043, DD= 0.019406598, DE= 0.001006896


 RHF      monomer      6 corr= NONE       , L1=   341, L0=   320 ID=      5


 AO spaces for     6     0     0 n-mer: L1=   341, L0=   320

 DIRECT SCF CALCULATION, SCHWRZ=T   FDIFF=T,  DIRTHR=  0.00E+00 NITDIR=10

                                                                                   NONZERO     BLOCKS
 ITER EX DEM     TOTAL ENERGY        E CHANGE  DENSITY CHANGE     ORB. GRAD      INTEGRALS    SKIPPED
   1  0  0    -1330.4450808086 -1330.4450808086   0.027562945   0.000000000      621809791   10958589
          ---------------START SECOND ORDER SCF---------------
   2  1  0    -1330.4452504171    -0.0001696085   0.006764417   0.001227497      572616607   11893586
   3  2  0    -1330.4454586598    -0.0002082427   0.001203903   0.000669335      551252818   12131806
   4  3  0    -1330.4452693128     0.0001893470   0.000530964   0.000123621      523432537   12431192
   5  4  0    -1330.4452172592     0.0000520536   0.000186811   0.000103223      496764294   12665540
   6  5  0    -1330.4451913288     0.0000259304   0.000073459   0.000025577      477636639   12856146
   7  6  0    -1330.4451880162     0.0000033125   0.000033609   0.000012790      443685664   13168713
   8  7  0    -1330.4451892953    -0.0000012791   0.000009292   0.000003352      421007259   13374717
   9  8  0    -1330.4451901426    -0.0000008473   0.000003631   0.000001467      391539257   13636702
  10  9  0    -1330.4451901431    -0.0000000005   0.000000898   0.000000586      365289923   13874717
  11 10  0    -1330.4451900622     0.0000000809   0.000000519   0.000000260      328289196   14184339
  12 11  0    -1330.4451900488     0.0000000133   0.000000196   0.000000098      311695424   14333456
  13 12  0    -1330.4451900540    -0.0000000051   0.000000077   0.000000028      271419330   14690173

          -----------------
          DENSITY CONVERGED
          -----------------
     TIME TO FORM FOCK OPERATORS=      20.6 SECONDS (       1.6 SEC/ITER)
     FOCK TIME ON FIRST ITERATION=       2.3, LAST ITERATION=       0.8
     TIME TO SOLVE SCF EQUATIONS=       0.4 SECONDS (       0.0 SEC/ITER)

 FINAL RHF ENERGY IS    -1330.4451900540 AFTER  13 ITERATIONS
 ...... END OF RHF CALCULATION ......
 CPU     0: STEP CPU TIME=    34.56 TOTAL CPU TIME=       1059.6 (     17.7 MIN)
 TOTAL WALL CLOCK TIME=       2165.3 SECONDS, CPU UTILIZATION IS    48.94%
 DONE PCM POT.
 CPU     0: STEP CPU TIME=     0.27 TOTAL CPU TIME=       1059.9 (     17.7 MIN)
 TOTAL WALL CLOCK TIME=       2166.0 SECONDS, CPU UTILIZATION IS    48.93%

 Iter=  3 iFrag=      6 EFMO= -1360.645351588, DD= 0.022326510, DE= 0.010802369


 RHF      monomer      2 corr= NONE       , L1=   341, L0=   320 ID=      6

