‘4A4U_1_fmo_input.inp’ -> ‘/scratch/hazwong/824207/./4A4U_1_fmo_input.inp’
‘rungms’ -> ‘/scratch/hazwong/824207/./rungms’
‘gms-files.csh’ -> ‘/scratch/hazwong/824207/./gms-files.csh’
----- GAMESS execution script 'rungms' -----
This job is running on host gollum082.lsa.umich.edu
under operating system Linux at Sat Dec 7 00:11:24 EST 2019
Available scratch disk space (Kbyte units) at beginning of the job is
Filesystem     1K-blocks  Used Available Use% Mounted on
/dev/sda4      426933580 33260 426900320   1% /scratch
GAMESS temporary binary files will be written to /scratch/hazwong/824207/4A4U_1/usrc
GAMESS supplementary output files will be written to /scratch/hazwong/824207/4A4U_1/src
Copying input file 4A4U_1_fmo_input.inp to your run's scratch directory...
cp 4A4U_1_fmo_input.inp /scratch/hazwong/824207/4A4U_1/usrc/4A4U_1_fmo_input.F05
unset echo
This is a GDDI run, keeping various output files on local disks
setenv OUTPUT /scratch/hazwong/824207/4A4U_1/usrc/4A4U_1_fmo_input.F06
setenv PUNCH /scratch/hazwong/824207/4A4U_1/usrc/4A4U_1_fmo_input.F07
unset echo
 
Assuming a single but multicore node.
 
/export/apps/CentOS7/gamess/src/build//ddikick.x /export/apps/CentOS7/gamess/src/build//gamess.R3.x 4A4U_1_fmo_input -ddi 1 16 gollum082.lsa.umich.edu:cpus=16 -scr /scratch/hazwong/824207/4A4U_1/usrc

 Distributed Data Interface kickoff program.
 Initiating 16 compute processes on 1 nodes to run the following command:
 /export/apps/CentOS7/gamess/src/build//gamess.R3.x 4A4U_1_fmo_input 

          ******************************************************
          *         GAMESS VERSION = 30 SEP 2018 (R3)         *
          *             FROM IOWA STATE UNIVERSITY             *
          * M.W.SCHMIDT, K.K.BALDRIDGE, J.A.BOATZ, S.T.ELBERT, *
          *   M.S.GORDON, J.H.JENSEN, S.KOSEKI, N.MATSUNAGA,   *
          *          K.A.NGUYEN, S.J.SU, T.L.WINDUS,           *
          *       TOGETHER WITH M.DUPUIS, J.A.MONTGOMERY       *
          *         J.COMPUT.CHEM.  14, 1347-1363(1993)        *
          **************** 64 BIT LINUX VERSION ****************

  SINCE 1993, STUDENTS AND POSTDOCS WORKING AT IOWA STATE UNIVERSITY
  AND ALSO IN THEIR VARIOUS JOBS AFTER LEAVING ISU HAVE MADE IMPORTANT
  CONTRIBUTIONS TO THE CODE:
     IVANA ADAMOVIC, CHRISTINE AIKENS, YURI ALEXEEV, POOJA ARORA,
     ANDREY ASADCHEV, ROB BELL, PRADIPTA BANDYOPADHYAY, JONATHAN BENTZ,
     BRETT BODE, KURT BRORSEN, CALEB CARLIN, GALINA CHABAN, WEI CHEN,
     CHEOL HO CHOI, PAUL DAY, ALBERT DEFUSCO, NUWAN DESILVA, TIM DUDLEY,
     DMITRI FEDOROV, ALEX FINDLATER, GRAHAM FLETCHER, MARK FREITAG,
     KURT GLAESEMANN, ANASTASIA GUNINA,
     DAN KEMP, GRANT MERRILL, NORIYUKI MINEZAWA, JONATHAN MULLIN,
     TAKESHI NAGATA, SEAN NEDD, HEATHER NETZLOFF, BOSILJKA NJEGIC, RYAN OLSON,
     MIKE PAK, BUU PHAM,
     SPENCER PRUITT, LUKE ROSKOP, JIM SHOEMAKER, LYUDMILA SLIPCHENKO,
     TONY SMITH, SAROM SOK LEANG, JIE SONG, TETSUYA TAKETSUGU, SIMON WEBB,
     PENG XU, SOOHAENG YOO, FEDERICO ZAHARIEV

  ADDITIONAL CODE HAS BEEN PROVIDED BY COLLABORATORS IN OTHER GROUPS:
     IOWA STATE UNIVERSITY:
          JOE IVANIC, AARON WEST, LAIMUTIS BYTAUTAS, KLAUS RUEDENBERG
     UNIVERSITY OF TOKYO: KIMIHIKO HIRAO, TAKAHITO NAKAJIMA,
          TAKAO TSUNEDA, MUNEAKI KAMIYA, SUSUMU YANAGISAWA,
          KIYOSHI YAGI, MAHITO CHIBA, SEIKEN TOKURA, NAOAKI KAWAKAMI
     UNIVERSITY OF AARHUS: FRANK JENSEN
     UNIVERSITY OF IOWA: VISVALDAS KAIRYS, HUI LI
     NATIONAL INST. OF STANDARDS AND TECHNOLOGY: WALT STEVENS, DAVID GARMER
     UNIVERSITY OF PISA: BENEDETTA MENNUCCI, JACOPO TOMASI
     UNIVERSITY OF MEMPHIS: HENRY KURTZ, PRAKASHAN KORAMBATH
     UNIVERSITY OF ALBERTA: TOBY ZENG, MARIUSZ KLOBUKOWSKI
     UNIVERSITY OF NEW ENGLAND: MARK SPACKMAN
     MIE UNIVERSITY: HIROAKI UMEDA
     NAT. INST. OF ADVANCED INDUSTRIAL SCIENCE AND TECHNOLOGY: KAZUO KITAURA
     MICHIGAN STATE UNIVERSITY:
          KAROL KOWALSKI, MARTA WLOCH, JEFFREY GOUR, JESSE LUTZ,
          WEI LI, JUN SHEN, J. EMILIANO DEUSTUA, PIOTR PIECUCH
     UNIVERSITY OF MINNESOTA:
          YINAN SHU
     UNIVERSITY OF SILESIA: MONIKA MUSIAL, STANISLAW KUCHARSKI
     FACULTES UNIVERSITAIRES NOTRE-DAME DE LA PAIX:
          OLIVIER QUINET, BENOIT CHAMPAGNE
     UNIVERSITY OF CALIFORNIA - SANTA BARBARA: BERNARD KIRTMAN
     INSTITUTE FOR MOLECULAR SCIENCE:
          KAZUYA ISHIMURA, MICHIO KATOUDA, AND SHIGERU NAGASE
     UNIVERSITY OF NOTRE DAME: ANNA POMOGAEVA, DAN CHIPMAN
     KYUSHU UNIVERSITY:
          HARUYUKI NAKANO,
          FENG LONG GU, JACEK KORCHOWIEC, MARCIN MAKOWSKI, AND YURIKO AOKI,
          HIROTOSHI MORI AND EISAKU MIYOSHI
     PENNSYLVANIA STATE UNIVERSITY:
          TZVETELIN IORDANOV, CHET SWALINA, JONATHAN SKONE,
          SHARON HAMMES-SCHIFFER
     WASEDA UNIVERSITY:
          MASATO KOBAYASHI, TOMOKO AKAMA, TSUGUKI TOUMA,
          TAKESHI YOSHIKAWA, YASUHIRO IKABATA, JUNJI SEINO,
          YUYA NAKAJIMA, HIROMI NAKAI
     NANJING UNIVERSITY: SHUHUA LI
     UNIVERSITY OF NEBRASKA:
          PEIFENG SU, DEJUN SI, NANDUN THELLAMUREGE, YALI WANG, HUI LI
     UNIVERSITY OF ZURICH: ROBERTO PEVERATI, KIM BALDRIDGE
     N. COPERNICUS UNIVERSITY AND JACKSON STATE UNIVERSITY:
          MARIA BARYSZ
     UNIVERSITY OF COPENHAGEN: Jimmy Kromann, CASPER STEINMANN
     TOKYO INSTITUTE OF TECHNOLOGY: HIROYA NAKATA
     NAGOYA UNIVERSITY: YOSHIO NISHIMOTO, STEPHAN IRLE
     MOSCOW STATE UNIVERSITY: VLADIMIR MIRONOV


 PARALLEL VERSION RUNNING ON       16 PROCESSORS IN        1 NODES.

 EXECUTION OF GAMESS BEGUN Sat Dec  7 00:11:24 2019

            ECHO OF THE FIRST FEW INPUT CARDS -
 INPUT CARD>!*** FMO 5.3 (Gamess) INPUT generated by Facio 22.1.1.32 ***                    
 INPUT CARD> $CONTRL RUNTYP=ENERGY NPRINT=-5 ISPHER=1 MAXIT=200 $END                        
 INPUT CARD> $SYSTEM MWORDS=63 MEMDDI=63 $END                                               
 INPUT CARD> $GDDI NGROUP=1 $END                                                            
 INPUT CARD> $SCF DIRSCF=.TRUE. NPUNCH=0 $END                                               
 INPUT CARD>!*** NumCPU : 2  MemPerNode : 512MB                                             
 INPUT CARD> $PCM SOLVNT=WATER IEF=-10 ICOMP=2 ICAV=1 IDISP=1 IFMO=-1 $END                  
 INPUT CARD> $PCMCAV RADII=SUAHF $END                                                       
 INPUT CARD> $TESCAV NTSALL=60 $END                                                         
 INPUT CARD> $FMOPRP                                                                        
 INPUT CARD>    NAODIR=200                                                                  
 INPUT CARD>    NGRFMO(1)=1, 1, 0, 0, 0,   0, 0, 0, 0, 0                                    
 INPUT CARD>    IPIEDA=1                                                                    
 INPUT CARD>    NPRINT=9                                                                    
 INPUT CARD> $END                                                                           
 INPUT CARD> $FMO                                                                           
 INPUT CARD>      SCFTYP(1)=RHF                                                             
 INPUT CARD>      MODGRD=10                                                                 
 INPUT CARD>      MODMUL=0                                                                  
 INPUT CARD>      MAXCAO=5                                                                  
 INPUT CARD>      MAXBND=10                                                                 
 INPUT CARD>      NLAYER=1                                                                  
 INPUT CARD>      MPLEVL(1)=2                                                               
 INPUT CARD>      NFRAG=8                                                                   
 INPUT CARD>      ICHARG(1)=-1, -1, -1, -1, -1, -1, -1, 0                                   
 INPUT CARD>      FRGNAM(1)=F1, F2, F3, F4, F5, F6, F7, F8                                  
 INPUT CARD>      indat(1)=0                                                                
 INPUT CARD>               1   -36   0                                                      
 INPUT CARD>               37   -67   0                                                     
 INPUT CARD>               68   -97   0                                                     
 INPUT CARD>               98   -131   0                                                    
 INPUT CARD>               132   -164   0                                                   
 INPUT CARD>               165   -195   0                                                   
 INPUT CARD>               196   -229   0                                                   
 INPUT CARD>               230   -257   0                                                   
 INPUT CARD> $END                                                                           
 INPUT CARD>                                                                                
 INPUT CARD> $FMOBND                                                                        
 INPUT CARD>   -37   36       6-31G*    MINI                                                
 INPUT CARD>   -68   67       6-31G*    MINI                                                
 INPUT CARD>   -98   97       6-31G*    MINI                                                
 INPUT CARD>   -132   131       6-31G*    MINI                                              
 INPUT CARD>   -165   164       6-31G*    MINI                                              
 INPUT CARD>   -196   195       6-31G*    MINI                                              
 INPUT CARD>   -230   229       6-31G*    MINI                                              
 INPUT CARD> $END                                                                           
 INPUT CARD> $FMOHYB                                                                        
 INPUT CARD> 6-31G*      15   5                                                             
 INPUT CARD>   1 0  -0.065034   0.288264   0.000000   0.000000   0.604412                   
 INPUT CARD>         0.290129   0.000000   0.000000   0.319045  -0.017106                   


 -------------------------------------------------------------
 GROUP DDI, PROGRAMMED BY: RYAN M. OLSON AND DMITRI G. FEDOROV
        FEDOROV ET AL., J. COMPUT. CHEM., 25 (2004) 872.
 -------------------------------------------------------------

 -------------------------------------------------------
 GDDI: INITIALIZATION COMPLETED FOR GROUP     1 OF     1
 WITH    16 PROCESSES BALTYP=DLB   global rank=        0
 -------------------------------------------------------

   63000000 WORDS OF MEMORY AVAILABLE


     RUN TITLE
     ---------
  FMO calculation                                                                

 THE POINT GROUP OF THE MOLECULE IS C1      
 THE ORDER OF THE PRINCIPAL AXIS IS     0

 ATOM   ATOMIC CHARGE
 H.1-1       1.0
 O.1-1       8.0
 C.1-1       6.0
 N.1-1       7.0
 P.1-1      15.0

     ATOMIC BASIS SET LIBRARY
     ----------------
 THE CONTRACTED PRIMITIVE FUNCTIONS HAVE BEEN UNNORMALIZED
 THE CONTRACTED BASIS FUNCTIONS ARE NOW NORMALIZED TO UNITY

  SHELL TYPE  PRIMITIVE        EXPONENT          CONTRACTION COEFFICIENT(S)

 H.1-1     

      1   S       1            18.7311370    0.033494604338
      1   S       2             2.8253944    0.234726953484
      1   S       3             0.6401217    0.813757326146

      2   S       4             0.1612778    1.000000000000

 O.1-1     

      3   S       5          5484.6716600    0.001831074430
      3   S       6           825.2349460    0.013950172200
      3   S       7           188.0469580    0.068445078098
      3   S       8            52.9645000    0.232714335992
      3   S       9            16.8975704    0.470192897984
      3   S      10             5.7996353    0.358520852987

      4   L      11            15.5396162   -0.110777549525    0.070874268231
      4   L      12             3.5999336   -0.148026262701    0.339752839147
      4   L      13             1.0137618    1.130767015354    0.727158577316

      5   L      14             0.2700058    1.000000000000    1.000000000000

      6   D      15             0.8000000    1.000000000000

 C.1-1     

      7   S      16          3047.5248800    0.001834737132
      7   S      17           457.3695180    0.014037322813
      7   S      18           103.9486850    0.068842622264
      7   S      19            29.2101553    0.232184443216
      7   S      20             9.2866630    0.467941348435
      7   S      21             3.1639270    0.362311985337

      8   L      22             7.8682723   -0.119332419775    0.068999066591
      8   L      23             1.8812885   -0.160854151696    0.316423960957
      8   L      24             0.5442493    1.143456437840    0.744308290898

      9   L      25             0.1687145    1.000000000000    1.000000000000

     10   D      26             0.8000000    1.000000000000

 N.1-1     

     11   S      27          4173.5114600    0.001834772160
     11   S      28           627.4579110    0.013994627002
     11   S      29           142.9020930    0.068586551812
     11   S      30            40.2343293    0.232240873040
     11   S      31            12.8202129    0.469069948082
     11   S      32             4.3904370    0.360455199063

     12   L      33            11.6263619   -0.114961181702    0.067579743878
     12   L      34             2.7162798   -0.169117478561    0.323907295893
     12   L      35             0.7722184    1.145851947027    0.740895139755

     13   L      36             0.2120315    1.000000000000    1.000000000000

     14   D      37             0.8000000    1.000000000000

 P.1-1     

     15   S      38         19413.3000000    0.001851598923
     15   S      39          2909.4200000    0.014206191735
     15   S      40           661.3640000    0.069999459277
     15   S      41           185.7590000    0.240078860331
     15   S      42            59.1943000    0.484761717984
     15   S      43            20.0310000    0.335199804993

     16   L      44           339.4780000   -0.002782170105    0.004564616191
     16   L      45            81.0101000   -0.036049901354    0.033693571881
     16   L      46            25.8780000   -0.116631004382    0.139754883368
     16   L      47             9.4522100    0.096832803638    0.339361716786
     16   L      48             3.6656600    0.614418023082    0.450920623685
     16   L      49             1.4674600    0.403798015170    0.238585800889

     17   L      50             2.1562300   -0.252924113863   -0.017765312733
     17   L      51             0.7489970    0.032851844678    0.274058196433
     17   L      52             0.2831450    1.081254761783    0.785421562957

     18   L      53             0.0998317    1.000000000000    1.000000000000

     19   D      54             0.5500000    1.000000000000

 TOTAL NUMBER OF BASIS SET SHELLS             =   19
 NUMBER OF CARTESIAN GAUSSIAN BASIS FUNCTIONS =   66

     $CONTRL OPTIONS
     ---------------
 SCFTYP=RHF          RUNTYP=ENERGY       EXETYP=RUN     
 MPLEVL=       0     CITYP =NONE         CCTYP =NONE         VBTYP =NONE    
 DFTTYP=NONE         TDDFT =NONE    
 MULT  =       1     ICHARG=       0     NZVAR =       0     COORD =UNIQUE  
 PP    =NONE         RELWFN=NONE         LOCAL =NONE         NUMGRD=       F
 ISPHER=       1     NOSYM =       0     MAXIT =     200     UNITS =ANGS    
 PLTORB=       F     MOLPLT=       F     AIMPAC=       F     FRIEND=        
 NPRINT=      -5     IREST =       0     GEOM  =INPUT   
 NORMF =       0     NORMP =       0     ITOL  =      24     ICUT  =      12
 INTTYP=BEST         GRDTYP=BEST         QMTTOL= 1.0E-06

     $SYSTEM OPTIONS
     ---------------
  REPLICATED MEMORY=    63000000 WORDS (ON EVERY NODE).
 DISTRIBUTED MEMDDI=          63 MILLION WORDS IN AGGREGATE,
 MEMDDI DISTRIBUTED OVER  16 PROCESSORS IS     3937500 WORDS/PROCESSOR.
 TOTAL MEMORY REQUESTED ON EACH PROCESSOR=    66937500 WORDS.
 TIMLIM=      525600.00 MINUTES, OR     365.0 DAYS.
 PARALL= T  BALTYP=  DLB     KDIAG=    0  COREFL= F
 MXSEQ2=     300 MXSEQ3=     150  mem10=         0

 ** LOOKING UP INTERNALLY STORED DATA FOR SOLVENT=WATER    **
 OPTICAL AND PHYSICAL CONSTANTS:
 EPS= 78.390; EPSINF=  1.776; RSOLV=  1.385 A; VMOL=  18.070 ML/MOL;
 TCE= .25700E-03 1/K; STEN= 71.810 DYN/CM;  DSTEN=  0.6500; CMF=  1.2770


     -----------------------------------
     INPUT FOR PCM SOLVATION CALCULATION 
     -----------------------------------
     IEF   =     -10
     ICOMP =       2     IFIELD=       0     ICAV  =       1
     IDISP =       1     IREP  =       0     IDP   =       0

     SOLVNT=WATER        EPS   = 78.3900     EPSINF=  1.7760
     VMOL  = 18.0700     TCE   =  0.00025700 STEN  = 71.8100
     DSTEN =  0.6500     CMF   =  1.2770     RSOLV =  1.3850

     NESFP =       0
     OMEGA = 40.0000     RET   =100.0000     FRO   =  0.7000

     TABS  =298.0000     IPRINT=       0

     --------------------------------
     INPUT FOR ITERATIVE C-PCM METHOD 
     --------------------------------
     IPCMIT  =         1     MXDIIS  =        50
     MXITR1  =       200     MXITR2  =       200
     THRES   = 0.100E-09     IMUL    =         3
     RCUT(1) =   20.0000     RCUT(2) =   50.0000

     IDIRCT  =         1
     IMGABI  =         0     RABI    =    4.0000
     IMGASC  =         0     RASC    =   20.0000
     THRSLS  = 0.500E-03     DENSLS  =    0.0100
     IEFPOL  =         1     REFPOL  =    0.0000

     INPUT FOR ISOTROPIC DIELECTRICS
     -------------------------------
     EPS=    78.39

          ----------------
          PROPERTIES INPUT
          ----------------

     MOMENTS            FIELD           POTENTIAL          DENSITY
 IEMOM =       1   IEFLD =       0   IEPOT =       0   IEDEN =       0
 WHERE =COMASS     WHERE =NUCLEI     WHERE =NUCLEI     WHERE =NUCLEI  
 OUTPUT=BOTH       OUTPUT=BOTH       OUTPUT=NONE       OUTPUT=BOTH    
 IEMINT=       0   IEFINT=       0                     IEDINT=       0
                                                       MORB  =       0
          EXTRAPOLATION IN EFFECT
          SOSCF IN EFFECT
 ORBITAL PRINTING OPTION: NPREO=     1 32767     2     1

     -------------------------------
     INTEGRAL TRANSFORMATION OPTIONS
     -------------------------------
     NWORD  =            0
     CUTOFF = 1.0E-10     MPTRAN =       0
     DIRTRF =       T     AOINTS =DUP     

          ----------------------
          INTEGRAL INPUT OPTIONS
          ----------------------
 NOPK  =       1 NORDER=       0 SCHWRZ=       T

 ..... DONE SETTING UP THE RUN .....
 CPU     0: STEP CPU TIME=     0.03 TOTAL CPU TIME=          0.0 (      0.0 MIN)
 TOTAL WALL CLOCK TIME=          0.1 SECONDS, CPU UTILIZATION IS    50.00%
 CPU     0: STEP CPU TIME=     0.00 TOTAL CPU TIME=          0.0 (      0.0 MIN)
 TOTAL WALL CLOCK TIME=          0.1 SECONDS, CPU UTILIZATION IS    50.00%

                    ----------------------
                    AO INTEGRAL TECHNOLOGY
                    ----------------------
     S,P,L SHELL ROTATED AXIS INTEGRALS, REPROGRAMMED BY
        KAZUYA ISHIMURA (IMS) AND JOSE SIERRA (SYNSTAR).
     S,P,D,L SHELL ROTATED AXIS INTEGRALS PROGRAMMED BY
        KAZUYA ISHIMURA (INSTITUTE FOR MOLECULAR SCIENCE).
     S,P,D,F,G SHELL TO TOTAL QUARTET ANGULAR MOMENTUM SUM 5,
        ERIC PROGRAM BY GRAHAM FLETCHER (ELORET AND NASA ADVANCED
        SUPERCOMPUTING DIVISION, AMES RESEARCH CENTER).
     S,P,D,F,G,L SHELL GENERAL RYS QUADRATURE PROGRAMMED BY
        MICHEL DUPUIS (PACIFIC NORTHWEST NATIONAL LABORATORY).
 Setting modorb=1 flag...
 Setting modorb=1 flag...

          -----------------------
          MP2 CONTROL INFORMATION
          -----------------------
          NACORE =        8  NBCORE =        8
          LMOMP2 =        F  AOINTS = DUP     
          METHOD =        2  NWORD  =               0
          MP2PRP =        F  OSPT   = NONE    
          CUTOFF = 1.00E-12  CPHFBS = BASISAO 
          CODE   = IMS     

          NUMBER OF CORE -A-  ORBITALS =     8
          NUMBER OF CORE -B-  ORBITALS =     8
          NUMBER OF OCC. -A-  ORBITALS =    18
          NUMBER OF OCC. -B-  ORBITALS =    18
          NUMBER OF MOLECULAR ORBITALS =    66
          NUMBER OF   BASIS  FUNCTIONS =    66

 CPU     0: STEP CPU TIME=     0.02 TOTAL CPU TIME=          0.0 (      0.0 MIN)
 TOTAL WALL CLOCK TIME=          0.1 SECONDS, CPU UTILIZATION IS    50.00%
 CPU     0: STEP CPU TIME=     0.00 TOTAL CPU TIME=          0.0 (      0.0 MIN)
 TOTAL WALL CLOCK TIME=          0.1 SECONDS, CPU UTILIZATION IS    50.00%

     INPUT FOR CAVITY DEFINITION 
     ---------------------------
   ATOM               COORDINATES                RADIUS       EPS
      1    -10.9880     -5.8650     -2.0220      0.0100     78.3900
      2    -10.6010     -6.2890     -1.2330      1.5900     78.3900
      3    -10.3930     -7.6660     -1.5790      1.7700     78.3900
      4     -9.7350     -7.7220     -2.4770      0.0100     78.3900
      5    -11.3730     -8.1230     -1.8350      0.0100     78.3900
      6     -9.7510     -8.4760     -0.4480      1.7700     78.3900
      7     -9.6200     -9.5360     -0.7470      0.0100     78.3900
      8     -8.4270     -7.9440     -0.1510      1.5900     78.3900
      9     -8.2080     -8.0010      1.2490      1.7700     78.3900
     10     -7.2670     -8.5760      1.4000      0.0100     78.3900
     11     -8.0300     -6.6650      1.8240      1.6800     78.3900
     12     -7.4600     -6.3800      3.0350      1.7700     78.3900
     13     -5.9780     -7.4290      5.9810      1.6800     78.3900
     14     -6.0020     -8.4220      5.9020      0.0100     78.3900
     15     -5.5960     -7.0140      6.8110      0.0100     78.3900
     16     -6.9880     -7.2790      3.9150      1.6800     78.3900
     17     -6.4690     -6.7010      4.9960      1.7700     78.3900
     18     -6.4000     -5.3430      5.1610      1.6800     78.3900
     19     -5.9900     -4.9890      6.0110      0.0100     78.3900
     20     -6.8640     -4.3900      4.2630      1.7700     78.3900
     21     -6.7610     -3.1810      4.4940      1.5900     78.3900
     22     -7.4570     -5.0000      3.1250      1.7700     78.3900
     23     -8.0390     -4.4290      2.0000      1.6800     78.3900
     24     -8.3650     -5.4580      1.2520      1.7700     78.3900
     25     -8.8410     -5.4060      0.2690      0.0100     78.3900
     26     -9.3640     -8.7580      1.8610      1.7700     78.3900
     27     -9.5960     -8.4250      2.8940      0.0100     78.3900
     28     -9.0660    -10.1410      1.8570      1.5900     78.3900
     29     -9.8620    -10.5980      2.1570      0.0100     78.3900
     30    -10.4960     -8.4320      0.8960      1.7700     78.3900
     31    -10.8380     -7.3810      1.0420      0.0100     78.3900
     32    -11.5860     -9.3840      0.8910      1.5900     78.3900
     33    -12.8130     -9.1340      1.8530      2.1000     78.3900
     34    -13.2940     -7.7510      1.6570      1.5900     78.3900
     35    -13.8050    -10.2120      1.6390      1.5900     78.3900
     36    -12.1860     -9.2750      3.2930      1.5900     78.3900
     37    -11.7930    -10.5780      3.7880      1.7700     78.3900
     38    -11.0720    -11.0810      3.1050      0.0100     78.3900
     39    -12.6790    -11.2460      3.8690      0.0100     78.3900
     40    -11.1600    -10.4870      5.1830      1.7700     78.3900
     41    -10.8320    -11.4890      5.5260      0.0100     78.3900
     42     -9.9820     -9.6360      5.1570      1.5900     78.3900
     43     -9.9040     -8.9070      6.3730      1.7700     78.3900
     44     -8.9220     -9.1890      6.8150      0.0100     78.3900
     45     -9.9290     -7.4320      6.1680      1.6800     78.3900
     46    -10.4910     -6.9080      5.0260      1.7700     78.3900
     47    -10.9060     -7.6320      4.3240      0.0100     78.3900
     48    -10.4970     -5.5890      4.7910      1.7700     78.3900
     49    -10.9120     -5.1610      3.8800      0.0100     78.3900
     50     -9.4030     -6.5740      7.1340      1.7700     78.3900
     51     -8.9300     -7.0480      8.1790      1.5900     78.3900
     52     -9.3930     -5.2400      6.9090      1.6800     78.3900
     53     -9.9180     -4.7390      5.7780      1.7700     78.3900
     54     -9.8820     -3.4240      5.5810      1.6800     78.3900
     55     -9.5000     -2.8340      6.2960      0.0100     78.3900
     56    -10.2220     -2.9990      4.7430      0.0100     78.3900
     57    -11.0130     -9.4070      7.2840      1.7700     78.3900
     58    -11.4160     -8.6090      7.9360      0.0100     78.3900
     59    -10.5410    -10.4810      8.0840      1.5900     78.3900
     60    -11.3110    -10.8670      8.5320      0.0100     78.3900
     61    -12.0530     -9.8710      6.2680      1.7700     78.3900
     62    -12.5560     -8.9920      5.8030      0.0100     78.3900
     63    -12.9860    -10.8590      6.7560      1.5900     78.3900
     64    -14.3540    -10.3940      7.3810      2.1000     78.3900
     65    -15.0410     -9.4980      6.4270      1.5900     78.3900
     66    -15.1000    -11.5920      7.8240      1.5900     78.3900
     67    -13.9450     -9.5630      8.6530      1.5900     78.3900
     68    -14.8040     -8.5000      9.1410      1.7700     78.3900
     69    -15.4340     -8.8860      9.9700      0.0100     78.3900
     70    -15.4980     -8.1080      8.3570      0.0100     78.3900
     71    -13.9970     -7.2990      9.6550      1.7700     78.3900
     72    -13.4740     -7.5650     10.6010      0.0100     78.3900
     73    -12.9720     -6.9540      8.6820      1.5900     78.3900
     74    -12.8800     -5.5530      8.5440      1.7700     78.3900
     75    -11.8080     -5.2920      8.7190      0.0100     78.3900
     76    -13.2720     -5.1040      7.1810      1.6800     78.3900
     77    -13.7900     -5.9860      6.2510      1.7700     78.3900
     78    -13.9230     -7.0180      6.5890      0.0100     78.3900
     79    -12.9990     -3.8030      6.8330      1.7700     78.3900
     80    -12.4680     -3.0070      7.6040      1.5900     78.3900
     81    -13.3460     -3.4550      5.5600      1.6800     78.3900
     82    -13.1620     -2.4970      5.3030      0.0100     78.3900
     83    -13.8690     -4.2690      4.5810      1.7700     78.3900
     84    -14.1020     -3.8120      3.4650      1.5900     78.3900
     85    -14.0840     -5.6230      4.9960      1.7700     78.3900
     86    -14.4700     -6.3380      4.2740      0.0100     78.3900
     87    -13.7210     -4.9540      9.6540      1.7700     78.3900
     88    -14.1200     -3.9440      9.4350      0.0100     78.3900
     89    -12.9390     -4.9490     10.8130      1.5900     78.3900
     90    -13.0950     -5.8170     11.1940      0.0100     78.3900
     91    -14.8080     -6.0040      9.8370      1.7700     78.3900
     92    -15.5320     -5.9650      8.9900      0.0100     78.3900
     93    -15.4440     -6.0040     11.1490      1.5900     78.3900
     94    -16.6980     -5.0530     11.3460      2.1000     78.3900
     95    -17.4690     -5.0280     10.0850      1.5900     78.3900
     96    -17.4270     -5.5300     12.5400      1.5900     78.3900
     97    -16.1410     -3.6130     11.6670      1.5900     78.3900
     98    -17.0620     -2.5680     12.0910      1.7700     78.3900
     99    -18.0840     -2.9510     12.3380      0.0100     78.3900
    100    -17.1820     -1.8370     11.2630      0.0100     78.3900
    101    -16.5650     -1.8030     13.3280      1.7700     78.3900
    102    -17.2970     -1.0210     13.6270      0.0100     78.3900
    103    -16.4540     -2.7260     14.4480      1.5900     78.3900
    104    -15.2940     -2.4220     15.2070      1.7700     78.3900
    105    -15.6280     -2.2500     16.2550      0.0100     78.3900
    106    -14.3470     -3.5460     15.2280      1.6800     78.3900
    107    -13.2550     -3.6760     16.0490      1.7700     78.3900
    108    -11.1620     -2.4060     18.5000      1.6800     78.3900
    109    -10.3470     -2.6880     19.0060      0.0100     78.3900
    110    -11.6010     -1.5380     18.7240      0.0100     78.3900
    111    -12.8360     -2.7770     16.9580      1.6800     78.3900
    112    -11.7340     -3.1790     17.5950      1.7700     78.3900
    113    -11.1330     -4.3940     17.3700      1.6800     78.3900
    114    -10.3190     -4.6310     17.9140      0.0100     78.3900
    115    -11.5720     -5.3570     16.4660      1.7700     78.3900
    116    -10.9960     -6.4420     16.3300      1.5900     78.3900
    117    -12.7160     -4.9140     15.7500      1.7700     78.3900
    118    -13.4450     -5.5450     14.7500      1.6800     78.3900
    119    -14.4010     -4.6920     14.4650      1.7700     78.3900
    120    -15.1790     -4.8370     13.7170      0.0100     78.3900
    121    -14.6940     -1.1480     14.6580      1.7700     78.3900
    122    -13.5850     -1.1590     14.7030      0.0100     78.3900
    123    -15.1910     -0.0270     15.3670      1.5900     78.3900
    124    -14.9360      0.7330     14.8290      0.0100     78.3900
    125    -15.1810     -1.1400     13.2120      1.7700     78.3900
    126    -14.5490     -1.8170     12.5880      0.0100     78.3900
    127    -15.3120      0.1910     12.6700      1.5900     78.3900
    128    -14.5560      0.7310     11.4110      2.1000     78.3900
    129    -14.4610     -0.3360     10.3990      1.5900     78.3900
    130    -15.2020      1.9880     10.9830      1.5900     78.3900
    131    -13.1260      1.0670     11.9600      1.5900     78.3900
    132    -12.9020      2.0920     12.9510      1.7700     78.3900
    133    -13.7440      2.1740     13.6740      0.0100     78.3900
    134    -12.8020      3.0760     12.4380      0.0100     78.3900
    135    -11.6340      1.7990     13.7680      1.7700     78.3900
    136    -11.4480      2.5930     14.5210      0.0100     78.3900
    137    -11.8170      0.5550     14.4990      1.5900     78.3900
    138    -10.6190     -0.1930     14.4890      1.7700     78.3900
    139    -10.3590     -0.3940     15.5530      0.0100     78.3900
    140    -10.8050     -1.4660     13.7880      1.6800     78.3900
    141    -10.6930     -3.5500     13.1140      1.7700     78.3900
    142    -11.6540     -2.9340     12.3440      1.6800     78.3900
    143    -11.6900     -1.7160     12.7770      1.7700     78.3900
    144    -12.3870     -0.9640     12.4290      0.0100     78.3900
    145     -9.2170     -5.1480     14.0320      1.6800     78.3900
    146     -8.7760     -4.1690     14.8230      1.7700     78.3900
    147     -7.9810     -4.4600     15.5220      0.0100     78.3900
    148     -9.2100     -2.9070     14.9310      1.6800     78.3900
    149    -10.1590     -2.6560     14.0170      1.7700     78.3900
    150    -10.2020     -4.8690     13.1470      1.7700     78.3900
    151    -10.6360     -5.8270     12.3070      1.6800     78.3900
    152    -11.3190     -5.5540     11.6230      0.0100     78.3900
    153    -10.3410     -6.7800     12.4130      0.0100     78.3900
    154     -9.5430      0.6740     13.8590      1.7700     78.3900
    155     -8.8430      0.0730     13.2520      0.0100     78.3900
    156     -8.8250      1.3940     14.8450      1.5900     78.3900
    157     -8.1520      1.9110     14.3760      0.0100     78.3900
    158    -10.3470      1.6000     12.9510      1.7700     78.3900
    159    -10.6180      1.0270     12.0320      0.0100     78.3900
    160     -9.6990      2.8790     12.6850      1.5900     78.3900
    161     -9.8680      3.5220     11.2580      2.1000     78.3900
    162     -9.9140      2.4680     10.2300      1.5900     78.3900
    163    -10.9960      4.4790     11.2880      1.5900     78.3900
    164     -8.5300      4.3240     11.0720      1.5900     78.3900
    165     -8.3600      5.6550     11.5970      1.7700     78.3900
    166     -9.0530      5.8750     12.4440      0.0100     78.3900
    167     -8.5730      6.3990     10.7950      0.0100     78.3900
    168     -6.9160      5.8430     12.0540      1.7700     78.3900
    169     -6.2340      5.8400     11.1770      0.0100     78.3900
    170     -6.7860      7.0970     12.7740      1.5900     78.3900
    171     -6.7380      6.8550     14.1830      1.7700     78.3900
    172     -5.6870      7.0730     14.4780      0.0100     78.3900
    173     -7.6730      7.7420     14.9630      1.6800     78.3900
    174     -8.4590      8.6580     14.2870      1.7700     78.3900
    175     -8.3800      8.6640     13.1990      0.0100     78.3900
    176     -9.2820      9.4950     14.9310      1.7700     78.3900
    177     -9.8930     10.2290     14.4070      0.0100     78.3900
    178     -7.7000      7.7380     16.3650      1.7700     78.3900
    179     -6.9410      6.9910     16.9990      1.5900     78.3900
    180     -8.5470      8.5590     17.0280      1.6800     78.3900
    181     -9.3230      9.4200     16.3500      1.7700     78.3900
    182    -10.1280     10.2280     17.0390      1.6800     78.3900
    183    -10.1300     10.1620     18.0350      0.0100     78.3900
    184    -10.6910     10.9270     16.5970      0.0100     78.3900
    185     -7.0040      5.3620     14.3770      1.7700     78.3900
    186     -8.0950      5.1720     14.4720      0.0100     78.3900
    187     -6.3050      4.8000     15.4680      1.5900     78.3900
    188     -5.3600      4.8810     15.2660      0.0100     78.3900
    189     -6.4830      4.7740     13.0670      1.7700     78.3900
    190     -7.0310      3.8210     12.8800      0.0100     78.3900
    191     -5.0550      4.5650     13.0540      1.5900     78.3900
    192     -4.4200      3.4850     12.1030      2.1000     78.3900
    193     -4.9040      3.7040     10.7240      1.5900     78.3900
    194     -2.9540      3.5580     12.2890      1.5900     78.3900
    195     -4.9640      2.1060     12.6330      1.5900     78.3900
    196     -4.6640      1.6920     13.9900      1.7700     78.3900
    197     -5.2660      2.2840     14.7220      0.0100     78.3900
    198     -3.5820      1.8290     14.2250      0.0100     78.3900
    199     -4.9970      0.2110     14.2130      1.7700     78.3900
    200     -4.8420     -0.0830     15.2730      0.0100     78.3900
    201     -6.3900     -0.0220     13.8950      1.5900     78.3900
    202     -6.5260     -1.2690     13.2350      1.7700     78.3900
    203     -7.2780     -1.8500     13.8060      0.0100     78.3900
    204     -7.0050     -1.0950     11.8540      1.6800     78.3900
    205     -7.4310     -2.0860     11.0090      1.7700     78.3900
    206     -8.0180     -5.4350     10.3340      1.6800     78.3900
    207     -7.7570     -5.8810     11.1870      0.0100     78.3900
    208     -8.3610     -5.9910      9.5720      0.0100     78.3900
    209     -7.4730     -3.4000     11.2880      1.6800     78.3900
    210     -7.9520     -4.1190     10.2710      1.7700     78.3900
    211     -8.3640     -3.5610      9.0890      1.6800     78.3900
    212     -8.7250     -4.1750      8.3750      0.0100     78.3900
    213     -8.3310     -2.2100      8.7730      1.7700     78.3900
    214     -8.7160     -1.7890      7.6770      1.5900     78.3900
    215     -7.8010     -1.4420      9.8430      1.7700     78.3900
    216     -7.6140     -0.0720      9.9520      1.6800     78.3900
    217     -7.1510      0.0940     11.1660      1.7700     78.3900
    218     -6.9130      1.0560     11.6280      0.0100     78.3900
    219     -5.1930     -1.9700     13.3020      1.7700     78.3900
    220     -5.0130     -2.6330     12.4300      0.0100     78.3900
    221     -5.1140     -2.7270     14.4950      1.5900     78.3900
    222     -4.2090     -3.0560     14.5740      0.0100     78.3900
    223     -4.2420     -0.7820     13.3190      1.7700     78.3900
    224     -4.2070     -0.3110     12.3080      0.0100     78.3900
    225     -2.9390     -1.0570     13.8740      1.5900     78.3900
    226     -1.7160     -1.2310     12.8960      2.1000     78.3900
    227     -1.7950     -0.2420     11.8020      1.5900     78.3900
    228     -0.4810     -1.2290     13.7130      1.5900     78.3900
    229     -1.9410     -2.6680     12.2910      1.5900     78.3900
    230     -1.8320     -3.8320     13.1400      1.7700     78.3900
    231     -2.5320     -3.7690     14.0030      0.0100     78.3900
    232     -0.7950     -3.9240     13.5410      0.0100     78.3900
    233     -2.1550     -5.1190     12.3700      1.7700     78.3900
    234     -1.9850     -6.0140     13.0090      0.0100     78.3900
    235     -3.5600     -5.1220     11.9920      1.5900     78.3900
    236     -3.6910     -5.6800     10.6900      1.7700     78.3900
    237     -4.4150     -6.5210     10.7970      0.0100     78.3900
    238     -4.2230     -4.7010      9.7000      1.6800     78.3900
    239     -4.1440     -3.3470      9.9430      1.7700     78.3900
    240     -3.7040     -3.0600     10.8970      0.0100     78.3900
    241     -4.6120     -2.4490      9.0680      1.7700     78.3900
    242     -4.5750     -1.3750      9.2520      0.0100     78.3900
    243     -4.7800     -5.1520      8.5080      1.7700     78.3900
    244     -4.8230     -6.3710      8.2860      1.5900     78.3900
    245     -5.2600     -4.2610      7.6120      1.6800     78.3900
    246     -5.1810     -2.9420      7.8600      1.7700     78.3900
    247     -5.6620     -2.0910      6.9590      1.6800     78.3900
    248     -6.1150     -2.4450      6.1370      0.0100     78.3900
    249     -5.6740     -1.1040      7.1140      0.0100     78.3900
    250     -2.3350     -6.2440     10.2910      1.7700     78.3900
    251     -2.1610     -6.1740      9.1950      0.0100     78.3900
    252     -2.2220     -7.5950     10.7160      1.5900     78.3900
    253     -1.2960     -7.8800     10.6120      0.0100     78.3900
    254     -1.3950     -5.3130     11.0500      1.7700     78.3900
    255     -1.3340     -4.3300     10.5400      0.0100     78.3900
    256     -0.0790     -5.8440     11.2890      1.5900     78.3900
    257      0.3970     -5.9270     10.4450      0.0100     78.3900

     ----------------------------
     INPUT FOR TESSERA DEFINITION
     ----------------------------
     NTSALL  =        60     MTHALL  =         4
     MTHAUT  =         0     AUTFRE  =    2.0000
     NTSFRZ  =        60     KEEPSM  =         0
     AREAKP  =   10.0000     BONDRY  =    1.0000
     AREATL  =    0.0100

     SPHERE     INITS       METHOD
          1        60       FIXPVA
          2        60       FIXPVA
          3        60       FIXPVA
          4        60       FIXPVA
          5        60       FIXPVA
          6        60       FIXPVA
          7        60       FIXPVA
          8        60       FIXPVA
          9        60       FIXPVA
         10        60       FIXPVA
         11        60       FIXPVA
         12        60       FIXPVA
         13        60       FIXPVA
         14        60       FIXPVA
         15        60       FIXPVA
         16        60       FIXPVA
         17        60       FIXPVA
         18        60       FIXPVA
         19        60       FIXPVA
         20        60       FIXPVA
         21        60       FIXPVA
         22        60       FIXPVA
         23        60       FIXPVA
         24        60       FIXPVA
         25        60       FIXPVA
         26        60       FIXPVA
         27        60       FIXPVA
         28        60       FIXPVA
         29        60       FIXPVA
         30        60       FIXPVA
         31        60       FIXPVA
         32        60       FIXPVA
         33        60       FIXPVA
         34        60       FIXPVA
         35        60       FIXPVA
         36        60       FIXPVA
         37        60       FIXPVA
         38        60       FIXPVA
         39        60       FIXPVA
         40        60       FIXPVA
         41        60       FIXPVA
         42        60       FIXPVA
         43        60       FIXPVA
         44        60       FIXPVA
         45        60       FIXPVA
         46        60       FIXPVA
         47        60       FIXPVA
         48        60       FIXPVA
         49        60       FIXPVA
         50        60       FIXPVA
         51        60       FIXPVA
         52        60       FIXPVA
         53        60       FIXPVA
         54        60       FIXPVA
         55        60       FIXPVA
         56        60       FIXPVA
         57        60       FIXPVA
         58        60       FIXPVA
         59        60       FIXPVA
         60        60       FIXPVA
         61        60       FIXPVA
         62        60       FIXPVA
         63        60       FIXPVA
         64        60       FIXPVA
         65        60       FIXPVA
         66        60       FIXPVA
         67        60       FIXPVA
         68        60       FIXPVA
         69        60       FIXPVA
         70        60       FIXPVA
         71        60       FIXPVA
         72        60       FIXPVA
         73        60       FIXPVA
         74        60       FIXPVA
         75        60       FIXPVA
         76        60       FIXPVA
         77        60       FIXPVA
         78        60       FIXPVA
         79        60       FIXPVA
         80        60       FIXPVA
         81        60       FIXPVA
         82        60       FIXPVA
         83        60       FIXPVA
         84        60       FIXPVA
         85        60       FIXPVA
         86        60       FIXPVA
         87        60       FIXPVA
         88        60       FIXPVA
         89        60       FIXPVA
         90        60       FIXPVA
         91        60       FIXPVA
         92        60       FIXPVA
         93        60       FIXPVA
         94        60       FIXPVA
         95        60       FIXPVA
         96        60       FIXPVA
         97        60       FIXPVA
         98        60       FIXPVA
         99        60       FIXPVA
        100        60       FIXPVA
        101        60       FIXPVA
        102        60       FIXPVA
        103        60       FIXPVA
        104        60       FIXPVA
        105        60       FIXPVA
        106        60       FIXPVA
        107        60       FIXPVA
        108        60       FIXPVA
        109        60       FIXPVA
        110        60       FIXPVA
        111        60       FIXPVA
        112        60       FIXPVA
        113        60       FIXPVA
        114        60       FIXPVA
        115        60       FIXPVA
        116        60       FIXPVA
        117        60       FIXPVA
        118        60       FIXPVA
        119        60       FIXPVA
        120        60       FIXPVA
        121        60       FIXPVA
        122        60       FIXPVA
        123        60       FIXPVA
        124        60       FIXPVA
        125        60       FIXPVA
        126        60       FIXPVA
        127        60       FIXPVA
        128        60       FIXPVA
        129        60       FIXPVA
        130        60       FIXPVA
        131        60       FIXPVA
        132        60       FIXPVA
        133        60       FIXPVA
        134        60       FIXPVA
        135        60       FIXPVA
        136        60       FIXPVA
        137        60       FIXPVA
        138        60       FIXPVA
        139        60       FIXPVA
        140        60       FIXPVA
        141        60       FIXPVA
        142        60       FIXPVA
        143        60       FIXPVA
        144        60       FIXPVA
        145        60       FIXPVA
        146        60       FIXPVA
        147        60       FIXPVA
        148        60       FIXPVA
        149        60       FIXPVA
        150        60       FIXPVA
        151        60       FIXPVA
        152        60       FIXPVA
        153        60       FIXPVA
        154        60       FIXPVA
        155        60       FIXPVA
        156        60       FIXPVA
        157        60       FIXPVA
        158        60       FIXPVA
        159        60       FIXPVA
        160        60       FIXPVA
        161        60       FIXPVA
        162        60       FIXPVA
        163        60       FIXPVA
        164        60       FIXPVA
        165        60       FIXPVA
        166        60       FIXPVA
        167        60       FIXPVA
        168        60       FIXPVA
        169        60       FIXPVA
        170        60       FIXPVA
        171        60       FIXPVA
        172        60       FIXPVA
        173        60       FIXPVA
        174        60       FIXPVA
        175        60       FIXPVA
        176        60       FIXPVA
        177        60       FIXPVA
        178        60       FIXPVA
        179        60       FIXPVA
        180        60       FIXPVA
        181        60       FIXPVA
        182        60       FIXPVA
        183        60       FIXPVA
        184        60       FIXPVA
        185        60       FIXPVA
        186        60       FIXPVA
        187        60       FIXPVA
        188        60       FIXPVA
        189        60       FIXPVA
        190        60       FIXPVA
        191        60       FIXPVA
        192        60       FIXPVA
        193        60       FIXPVA
        194        60       FIXPVA
        195        60       FIXPVA
        196        60       FIXPVA
        197        60       FIXPVA
        198        60       FIXPVA
        199        60       FIXPVA
        200        60       FIXPVA
        201        60       FIXPVA
        202        60       FIXPVA
        203        60       FIXPVA
        204        60       FIXPVA
        205        60       FIXPVA
        206        60       FIXPVA
        207        60       FIXPVA
        208        60       FIXPVA
        209        60       FIXPVA
        210        60       FIXPVA
        211        60       FIXPVA
        212        60       FIXPVA
        213        60       FIXPVA
        214        60       FIXPVA
        215        60       FIXPVA
        216        60       FIXPVA
        217        60       FIXPVA
        218        60       FIXPVA
        219        60       FIXPVA
        220        60       FIXPVA
        221        60       FIXPVA
        222        60       FIXPVA
        223        60       FIXPVA
        224        60       FIXPVA
        225        60       FIXPVA
        226        60       FIXPVA
        227        60       FIXPVA
        228        60       FIXPVA
        229        60       FIXPVA
        230        60       FIXPVA
        231        60       FIXPVA
        232        60       FIXPVA
        233        60       FIXPVA
        234        60       FIXPVA
        235        60       FIXPVA
        236        60       FIXPVA
        237        60       FIXPVA
        238        60       FIXPVA
        239        60       FIXPVA
        240        60       FIXPVA
        241        60       FIXPVA
        242        60       FIXPVA
        243        60       FIXPVA
        244        60       FIXPVA
        245        60       FIXPVA
        246        60       FIXPVA
        247        60       FIXPVA
        248        60       FIXPVA
        249        60       FIXPVA
        250        60       FIXPVA
        251        60       FIXPVA
        252        60       FIXPVA
        253        60       FIXPVA
        254        60       FIXPVA
        255        60       FIXPVA
        256        60       FIXPVA
        257        60       FIXPVA

     ------------------------------
      FIXPVA TESSELLATION FOR PCM
         PEIFENG SU AND HUI LI
     UNIVERSITY OF NEBRASKA-LINCOLN
     ------------------------------


 PCM DIMENSIONS: MXSP=   257, MXTS=     10280, MEMORY=        105630

     INPUT FOR CAVITY DEFINITION 
     ---------------------------
   ATOM               COORDINATES                RADIUS       EPS
      1    -10.9880     -5.8650     -2.0220      0.0100     78.3900
      2    -10.6010     -6.2890     -1.2330      1.5900     78.3900
      3    -10.3930     -7.6660     -1.5790      1.7700     78.3900
      4     -9.7350     -7.7220     -2.4770      0.0100     78.3900
      5    -11.3730     -8.1230     -1.8350      0.0100     78.3900
      6     -9.7510     -8.4760     -0.4480      1.7700     78.3900
      7     -9.6200     -9.5360     -0.7470      0.0100     78.3900
      8     -8.4270     -7.9440     -0.1510      1.5900     78.3900
      9     -8.2080     -8.0010      1.2490      1.7700     78.3900
     10     -7.2670     -8.5760      1.4000      0.0100     78.3900
     11     -8.0300     -6.6650      1.8240      1.6800     78.3900
     12     -7.4600     -6.3800      3.0350      1.7700     78.3900
     13     -5.9780     -7.4290      5.9810      1.6800     78.3900
     14     -6.0020     -8.4220      5.9020      0.0100     78.3900
     15     -5.5960     -7.0140      6.8110      0.0100     78.3900
     16     -6.9880     -7.2790      3.9150      1.6800     78.3900
     17     -6.4690     -6.7010      4.9960      1.7700     78.3900
     18     -6.4000     -5.3430      5.1610      1.6800     78.3900
     19     -5.9900     -4.9890      6.0110      0.0100     78.3900
     20     -6.8640     -4.3900      4.2630      1.7700     78.3900
     21     -6.7610     -3.1810      4.4940      1.5900     78.3900
     22     -7.4570     -5.0000      3.1250      1.7700     78.3900
     23     -8.0390     -4.4290      2.0000      1.6800     78.3900
     24     -8.3650     -5.4580      1.2520      1.7700     78.3900
     25     -8.8410     -5.4060      0.2690      0.0100     78.3900
     26     -9.3640     -8.7580      1.8610      1.7700     78.3900
     27     -9.5960     -8.4250      2.8940      0.0100     78.3900
     28     -9.0660    -10.1410      1.8570      1.5900     78.3900
     29     -9.8620    -10.5980      2.1570      0.0100     78.3900
     30    -10.4960     -8.4320      0.8960      1.7700     78.3900
     31    -10.8380     -7.3810      1.0420      0.0100     78.3900
     32    -11.5860     -9.3840      0.8910      1.5900     78.3900
     33    -12.8130     -9.1340      1.8530      2.1000     78.3900
     34    -13.2940     -7.7510      1.6570      1.5900     78.3900
     35    -13.8050    -10.2120      1.6390      1.5900     78.3900
     36    -12.1860     -9.2750      3.2930      1.5900     78.3900
     37    -11.7930    -10.5780      3.7880      1.7700     78.3900
     38    -11.0720    -11.0810      3.1050      0.0100     78.3900
     39    -12.6790    -11.2460      3.8690      0.0100     78.3900
     40    -11.1600    -10.4870      5.1830      1.7700     78.3900
     41    -10.8320    -11.4890      5.5260      0.0100     78.3900
     42     -9.9820     -9.6360      5.1570      1.5900     78.3900
     43     -9.9040     -8.9070      6.3730      1.7700     78.3900
     44     -8.9220     -9.1890      6.8150      0.0100     78.3900
     45     -9.9290     -7.4320      6.1680      1.6800     78.3900
     46    -10.4910     -6.9080      5.0260      1.7700     78.3900
     47    -10.9060     -7.6320      4.3240      0.0100     78.3900
     48    -10.4970     -5.5890      4.7910      1.7700     78.3900
     49    -10.9120     -5.1610      3.8800      0.0100     78.3900
     50     -9.4030     -6.5740      7.1340      1.7700     78.3900
     51     -8.9300     -7.0480      8.1790      1.5900     78.3900
     52     -9.3930     -5.2400      6.9090      1.6800     78.3900
     53     -9.9180     -4.7390      5.7780      1.7700     78.3900
     54     -9.8820     -3.4240      5.5810      1.6800     78.3900
     55     -9.5000     -2.8340      6.2960      0.0100     78.3900
     56    -10.2220     -2.9990      4.7430      0.0100     78.3900
     57    -11.0130     -9.4070      7.2840      1.7700     78.3900
     58    -11.4160     -8.6090      7.9360      0.0100     78.3900
     59    -10.5410    -10.4810      8.0840      1.5900     78.3900
     60    -11.3110    -10.8670      8.5320      0.0100     78.3900
     61    -12.0530     -9.8710      6.2680      1.7700     78.3900
     62    -12.5560     -8.9920      5.8030      0.0100     78.3900
     63    -12.9860    -10.8590      6.7560      1.5900     78.3900
     64    -14.3540    -10.3940      7.3810      2.1000     78.3900
     65    -15.0410     -9.4980      6.4270      1.5900     78.3900
     66    -15.1000    -11.5920      7.8240      1.5900     78.3900
     67    -13.9450     -9.5630      8.6530      1.5900     78.3900
     68    -14.8040     -8.5000      9.1410      1.7700     78.3900
     69    -15.4340     -8.8860      9.9700      0.0100     78.3900
     70    -15.4980     -8.1080      8.3570      0.0100     78.3900
     71    -13.9970     -7.2990      9.6550      1.7700     78.3900
     72    -13.4740     -7.5650     10.6010      0.0100     78.3900
     73    -12.9720     -6.9540      8.6820      1.5900     78.3900
     74    -12.8800     -5.5530      8.5440      1.7700     78.3900
     75    -11.8080     -5.2920      8.7190      0.0100     78.3900
     76    -13.2720     -5.1040      7.1810      1.6800     78.3900
     77    -13.7900     -5.9860      6.2510      1.7700     78.3900
     78    -13.9230     -7.0180      6.5890      0.0100     78.3900
     79    -12.9990     -3.8030      6.8330      1.7700     78.3900
     80    -12.4680     -3.0070      7.6040      1.5900     78.3900
     81    -13.3460     -3.4550      5.5600      1.6800     78.3900
     82    -13.1620     -2.4970      5.3030      0.0100     78.3900
     83    -13.8690     -4.2690      4.5810      1.7700     78.3900
     84    -14.1020     -3.8120      3.4650      1.5900     78.3900
     85    -14.0840     -5.6230      4.9960      1.7700     78.3900
     86    -14.4700     -6.3380      4.2740      0.0100     78.3900
     87    -13.7210     -4.9540      9.6540      1.7700     78.3900
     88    -14.1200     -3.9440      9.4350      0.0100     78.3900
     89    -12.9390     -4.9490     10.8130      1.5900     78.3900
     90    -13.0950     -5.8170     11.1940      0.0100     78.3900
     91    -14.8080     -6.0040      9.8370      1.7700     78.3900
     92    -15.5320     -5.9650      8.9900      0.0100     78.3900
     93    -15.4440     -6.0040     11.1490      1.5900     78.3900
     94    -16.6980     -5.0530     11.3460      2.1000     78.3900
     95    -17.4690     -5.0280     10.0850      1.5900     78.3900
     96    -17.4270     -5.5300     12.5400      1.5900     78.3900
     97    -16.1410     -3.6130     11.6670      1.5900     78.3900
     98    -17.0620     -2.5680     12.0910      1.7700     78.3900
     99    -18.0840     -2.9510     12.3380      0.0100     78.3900
    100    -17.1820     -1.8370     11.2630      0.0100     78.3900
    101    -16.5650     -1.8030     13.3280      1.7700     78.3900
    102    -17.2970     -1.0210     13.6270      0.0100     78.3900
    103    -16.4540     -2.7260     14.4480      1.5900     78.3900
    104    -15.2940     -2.4220     15.2070      1.7700     78.3900
    105    -15.6280     -2.2500     16.2550      0.0100     78.3900
    106    -14.3470     -3.5460     15.2280      1.6800     78.3900
    107    -13.2550     -3.6760     16.0490      1.7700     78.3900
    108    -11.1620     -2.4060     18.5000      1.6800     78.3900
    109    -10.3470     -2.6880     19.0060      0.0100     78.3900
    110    -11.6010     -1.5380     18.7240      0.0100     78.3900
    111    -12.8360     -2.7770     16.9580      1.6800     78.3900
    112    -11.7340     -3.1790     17.5950      1.7700     78.3900
    113    -11.1330     -4.3940     17.3700      1.6800     78.3900
    114    -10.3190     -4.6310     17.9140      0.0100     78.3900
    115    -11.5720     -5.3570     16.4660      1.7700     78.3900
    116    -10.9960     -6.4420     16.3300      1.5900     78.3900
    117    -12.7160     -4.9140     15.7500      1.7700     78.3900
    118    -13.4450     -5.5450     14.7500      1.6800     78.3900
    119    -14.4010     -4.6920     14.4650      1.7700     78.3900
    120    -15.1790     -4.8370     13.7170      0.0100     78.3900
    121    -14.6940     -1.1480     14.6580      1.7700     78.3900
    122    -13.5850     -1.1590     14.7030      0.0100     78.3900
    123    -15.1910     -0.0270     15.3670      1.5900     78.3900
    124    -14.9360      0.7330     14.8290      0.0100     78.3900
    125    -15.1810     -1.1400     13.2120      1.7700     78.3900
    126    -14.5490     -1.8170     12.5880      0.0100     78.3900
    127    -15.3120      0.1910     12.6700      1.5900     78.3900
    128    -14.5560      0.7310     11.4110      2.1000     78.3900
    129    -14.4610     -0.3360     10.3990      1.5900     78.3900
    130    -15.2020      1.9880     10.9830      1.5900     78.3900
    131    -13.1260      1.0670     11.9600      1.5900     78.3900
    132    -12.9020      2.0920     12.9510      1.7700     78.3900
    133    -13.7440      2.1740     13.6740      0.0100     78.3900
    134    -12.8020      3.0760     12.4380      0.0100     78.3900
    135    -11.6340      1.7990     13.7680      1.7700     78.3900
    136    -11.4480      2.5930     14.5210      0.0100     78.3900
    137    -11.8170      0.5550     14.4990      1.5900     78.3900
    138    -10.6190     -0.1930     14.4890      1.7700     78.3900
    139    -10.3590     -0.3940     15.5530      0.0100     78.3900
    140    -10.8050     -1.4660     13.7880      1.6800     78.3900
    141    -10.6930     -3.5500     13.1140      1.7700     78.3900
    142    -11.6540     -2.9340     12.3440      1.6800     78.3900
    143    -11.6900     -1.7160     12.7770      1.7700     78.3900
    144    -12.3870     -0.9640     12.4290      0.0100     78.3900
    145     -9.2170     -5.1480     14.0320      1.6800     78.3900
    146     -8.7760     -4.1690     14.8230      1.7700     78.3900
    147     -7.9810     -4.4600     15.5220      0.0100     78.3900
    148     -9.2100     -2.9070     14.9310      1.6800     78.3900
    149    -10.1590     -2.6560     14.0170      1.7700     78.3900
    150    -10.2020     -4.8690     13.1470      1.7700     78.3900
    151    -10.6360     -5.8270     12.3070      1.6800     78.3900
    152    -11.3190     -5.5540     11.6230      0.0100     78.3900
    153    -10.3410     -6.7800     12.4130      0.0100     78.3900
    154     -9.5430      0.6740     13.8590      1.7700     78.3900
    155     -8.8430      0.0730     13.2520      0.0100     78.3900
    156     -8.8250      1.3940     14.8450      1.5900     78.3900
    157     -8.1520      1.9110     14.3760      0.0100     78.3900
    158    -10.3470      1.6000     12.9510      1.7700     78.3900
    159    -10.6180      1.0270     12.0320      0.0100     78.3900
    160     -9.6990      2.8790     12.6850      1.5900     78.3900
    161     -9.8680      3.5220     11.2580      2.1000     78.3900
    162     -9.9140      2.4680     10.2300      1.5900     78.3900
    163    -10.9960      4.4790     11.2880      1.5900     78.3900
    164     -8.5300      4.3240     11.0720      1.5900     78.3900
    165     -8.3600      5.6550     11.5970      1.7700     78.3900
    166     -9.0530      5.8750     12.4440      0.0100     78.3900
    167     -8.5730      6.3990     10.7950      0.0100     78.3900
    168     -6.9160      5.8430     12.0540      1.7700     78.3900
    169     -6.2340      5.8400     11.1770      0.0100     78.3900
    170     -6.7860      7.0970     12.7740      1.5900     78.3900
    171     -6.7380      6.8550     14.1830      1.7700     78.3900
    172     -5.6870      7.0730     14.4780      0.0100     78.3900
    173     -7.6730      7.7420     14.9630      1.6800     78.3900
    174     -8.4590      8.6580     14.2870      1.7700     78.3900
    175     -8.3800      8.6640     13.1990      0.0100     78.3900
    176     -9.2820      9.4950     14.9310      1.7700     78.3900
    177     -9.8930     10.2290     14.4070      0.0100     78.3900
    178     -7.7000      7.7380     16.3650      1.7700     78.3900
    179     -6.9410      6.9910     16.9990      1.5900     78.3900
    180     -8.5470      8.5590     17.0280      1.6800     78.3900
    181     -9.3230      9.4200     16.3500      1.7700     78.3900
    182    -10.1280     10.2280     17.0390      1.6800     78.3900
    183    -10.1300     10.1620     18.0350      0.0100     78.3900
    184    -10.6910     10.9270     16.5970      0.0100     78.3900
    185     -7.0040      5.3620     14.3770      1.7700     78.3900
    186     -8.0950      5.1720     14.4720      0.0100     78.3900
    187     -6.3050      4.8000     15.4680      1.5900     78.3900
    188     -5.3600      4.8810     15.2660      0.0100     78.3900
    189     -6.4830      4.7740     13.0670      1.7700     78.3900
    190     -7.0310      3.8210     12.8800      0.0100     78.3900
    191     -5.0550      4.5650     13.0540      1.5900     78.3900
    192     -4.4200      3.4850     12.1030      2.1000     78.3900
    193     -4.9040      3.7040     10.7240      1.5900     78.3900
    194     -2.9540      3.5580     12.2890      1.5900     78.3900
    195     -4.9640      2.1060     12.6330      1.5900     78.3900
    196     -4.6640      1.6920     13.9900      1.7700     78.3900
    197     -5.2660      2.2840     14.7220      0.0100     78.3900
    198     -3.5820      1.8290     14.2250      0.0100     78.3900
    199     -4.9970      0.2110     14.2130      1.7700     78.3900
    200     -4.8420     -0.0830     15.2730      0.0100     78.3900
    201     -6.3900     -0.0220     13.8950      1.5900     78.3900
    202     -6.5260     -1.2690     13.2350      1.7700     78.3900
    203     -7.2780     -1.8500     13.8060      0.0100     78.3900
    204     -7.0050     -1.0950     11.8540      1.6800     78.3900
    205     -7.4310     -2.0860     11.0090      1.7700     78.3900
    206     -8.0180     -5.4350     10.3340      1.6800     78.3900
    207     -7.7570     -5.8810     11.1870      0.0100     78.3900
    208     -8.3610     -5.9910      9.5720      0.0100     78.3900
    209     -7.4730     -3.4000     11.2880      1.6800     78.3900
    210     -7.9520     -4.1190     10.2710      1.7700     78.3900
    211     -8.3640     -3.5610      9.0890      1.6800     78.3900
    212     -8.7250     -4.1750      8.3750      0.0100     78.3900
    213     -8.3310     -2.2100      8.7730      1.7700     78.3900
    214     -8.7160     -1.7890      7.6770      1.5900     78.3900
    215     -7.8010     -1.4420      9.8430      1.7700     78.3900
    216     -7.6140     -0.0720      9.9520      1.6800     78.3900
    217     -7.1510      0.0940     11.1660      1.7700     78.3900
    218     -6.9130      1.0560     11.6280      0.0100     78.3900
    219     -5.1930     -1.9700     13.3020      1.7700     78.3900
    220     -5.0130     -2.6330     12.4300      0.0100     78.3900
    221     -5.1140     -2.7270     14.4950      1.5900     78.3900
    222     -4.2090     -3.0560     14.5740      0.0100     78.3900
    223     -4.2420     -0.7820     13.3190      1.7700     78.3900
    224     -4.2070     -0.3110     12.3080      0.0100     78.3900
    225     -2.9390     -1.0570     13.8740      1.5900     78.3900
    226     -1.7160     -1.2310     12.8960      2.1000     78.3900
    227     -1.7950     -0.2420     11.8020      1.5900     78.3900
    228     -0.4810     -1.2290     13.7130      1.5900     78.3900
    229     -1.9410     -2.6680     12.2910      1.5900     78.3900
    230     -1.8320     -3.8320     13.1400      1.7700     78.3900
    231     -2.5320     -3.7690     14.0030      0.0100     78.3900
    232     -0.7950     -3.9240     13.5410      0.0100     78.3900
    233     -2.1550     -5.1190     12.3700      1.7700     78.3900
    234     -1.9850     -6.0140     13.0090      0.0100     78.3900
    235     -3.5600     -5.1220     11.9920      1.5900     78.3900
    236     -3.6910     -5.6800     10.6900      1.7700     78.3900
    237     -4.4150     -6.5210     10.7970      0.0100     78.3900
    238     -4.2230     -4.7010      9.7000      1.6800     78.3900
    239     -4.1440     -3.3470      9.9430      1.7700     78.3900
    240     -3.7040     -3.0600     10.8970      0.0100     78.3900
    241     -4.6120     -2.4490      9.0680      1.7700     78.3900
    242     -4.5750     -1.3750      9.2520      0.0100     78.3900
    243     -4.7800     -5.1520      8.5080      1.7700     78.3900
    244     -4.8230     -6.3710      8.2860      1.5900     78.3900
    245     -5.2600     -4.2610      7.6120      1.6800     78.3900
    246     -5.1810     -2.9420      7.8600      1.7700     78.3900
    247     -5.6620     -2.0910      6.9590      1.6800     78.3900
    248     -6.1150     -2.4450      6.1370      0.0100     78.3900
    249     -5.6740     -1.1040      7.1140      0.0100     78.3900
    250     -2.3350     -6.2440     10.2910      1.7700     78.3900
    251     -2.1610     -6.1740      9.1950      0.0100     78.3900
    252     -2.2220     -7.5950     10.7160      1.5900     78.3900
    253     -1.2960     -7.8800     10.6120      0.0100     78.3900
    254     -1.3950     -5.3130     11.0500      1.7700     78.3900
    255     -1.3340     -4.3300     10.5400      0.0100     78.3900
    256     -0.0790     -5.8440     11.2890      1.5900     78.3900
    257      0.3970     -5.9270     10.4450      0.0100     78.3900

 CREATION OF A NEW CAVITY WITH THE ORIGINAL SPHERE
 SIZES FOR THE COMPUTATION OF THE CAVITATION ENERGY.

     INPUT FOR CAVITY DEFINITION 
     ---------------------------
   ATOM               COORDINATES                RADIUS       EPS
      1    -10.9880     -5.8650     -2.0220      0.0100     78.3900
      2    -10.6010     -6.2890     -1.2330      1.5900     78.3900
      3    -10.3930     -7.6660     -1.5790      1.7700     78.3900
      4     -9.7350     -7.7220     -2.4770      0.0100     78.3900
      5    -11.3730     -8.1230     -1.8350      0.0100     78.3900
      6     -9.7510     -8.4760     -0.4480      1.7700     78.3900
      7     -9.6200     -9.5360     -0.7470      0.0100     78.3900
      8     -8.4270     -7.9440     -0.1510      1.5900     78.3900
      9     -8.2080     -8.0010      1.2490      1.7700     78.3900
     10     -7.2670     -8.5760      1.4000      0.0100     78.3900
     11     -8.0300     -6.6650      1.8240      1.6800     78.3900
     12     -7.4600     -6.3800      3.0350      1.7700     78.3900
     13     -5.9780     -7.4290      5.9810      1.6800     78.3900
     14     -6.0020     -8.4220      5.9020      0.0100     78.3900
     15     -5.5960     -7.0140      6.8110      0.0100     78.3900
     16     -6.9880     -7.2790      3.9150      1.6800     78.3900
     17     -6.4690     -6.7010      4.9960      1.7700     78.3900
     18     -6.4000     -5.3430      5.1610      1.6800     78.3900
     19     -5.9900     -4.9890      6.0110      0.0100     78.3900
     20     -6.8640     -4.3900      4.2630      1.7700     78.3900
     21     -6.7610     -3.1810      4.4940      1.5900     78.3900
     22     -7.4570     -5.0000      3.1250      1.7700     78.3900
     23     -8.0390     -4.4290      2.0000      1.6800     78.3900
     24     -8.3650     -5.4580      1.2520      1.7700     78.3900
     25     -8.8410     -5.4060      0.2690      0.0100     78.3900
     26     -9.3640     -8.7580      1.8610      1.7700     78.3900
     27     -9.5960     -8.4250      2.8940      0.0100     78.3900
     28     -9.0660    -10.1410      1.8570      1.5900     78.3900
     29     -9.8620    -10.5980      2.1570      0.0100     78.3900
     30    -10.4960     -8.4320      0.8960      1.7700     78.3900
     31    -10.8380     -7.3810      1.0420      0.0100     78.3900
     32    -11.5860     -9.3840      0.8910      1.5900     78.3900
     33    -12.8130     -9.1340      1.8530      2.1000     78.3900
     34    -13.2940     -7.7510      1.6570      1.5900     78.3900
     35    -13.8050    -10.2120      1.6390      1.5900     78.3900
     36    -12.1860     -9.2750      3.2930      1.5900     78.3900
     37    -11.7930    -10.5780      3.7880      1.7700     78.3900
     38    -11.0720    -11.0810      3.1050      0.0100     78.3900
     39    -12.6790    -11.2460      3.8690      0.0100     78.3900
     40    -11.1600    -10.4870      5.1830      1.7700     78.3900
     41    -10.8320    -11.4890      5.5260      0.0100     78.3900
     42     -9.9820     -9.6360      5.1570      1.5900     78.3900
     43     -9.9040     -8.9070      6.3730      1.7700     78.3900
     44     -8.9220     -9.1890      6.8150      0.0100     78.3900
     45     -9.9290     -7.4320      6.1680      1.6800     78.3900
     46    -10.4910     -6.9080      5.0260      1.7700     78.3900
     47    -10.9060     -7.6320      4.3240      0.0100     78.3900
     48    -10.4970     -5.5890      4.7910      1.7700     78.3900
     49    -10.9120     -5.1610      3.8800      0.0100     78.3900
     50     -9.4030     -6.5740      7.1340      1.7700     78.3900
     51     -8.9300     -7.0480      8.1790      1.5900     78.3900
     52     -9.3930     -5.2400      6.9090      1.6800     78.3900
     53     -9.9180     -4.7390      5.7780      1.7700     78.3900
     54     -9.8820     -3.4240      5.5810      1.6800     78.3900
     55     -9.5000     -2.8340      6.2960      0.0100     78.3900
     56    -10.2220     -2.9990      4.7430      0.0100     78.3900
     57    -11.0130     -9.4070      7.2840      1.7700     78.3900
     58    -11.4160     -8.6090      7.9360      0.0100     78.3900
     59    -10.5410    -10.4810      8.0840      1.5900     78.3900
     60    -11.3110    -10.8670      8.5320      0.0100     78.3900
     61    -12.0530     -9.8710      6.2680      1.7700     78.3900
     62    -12.5560     -8.9920      5.8030      0.0100     78.3900
     63    -12.9860    -10.8590      6.7560      1.5900     78.3900
     64    -14.3540    -10.3940      7.3810      2.1000     78.3900
     65    -15.0410     -9.4980      6.4270      1.5900     78.3900
     66    -15.1000    -11.5920      7.8240      1.5900     78.3900
     67    -13.9450     -9.5630      8.6530      1.5900     78.3900
     68    -14.8040     -8.5000      9.1410      1.7700     78.3900
     69    -15.4340     -8.8860      9.9700      0.0100     78.3900
     70    -15.4980     -8.1080      8.3570      0.0100     78.3900
     71    -13.9970     -7.2990      9.6550      1.7700     78.3900
     72    -13.4740     -7.5650     10.6010      0.0100     78.3900
     73    -12.9720     -6.9540      8.6820      1.5900     78.3900
     74    -12.8800     -5.5530      8.5440      1.7700     78.3900
     75    -11.8080     -5.2920      8.7190      0.0100     78.3900
     76    -13.2720     -5.1040      7.1810      1.6800     78.3900
     77    -13.7900     -5.9860      6.2510      1.7700     78.3900
     78    -13.9230     -7.0180      6.5890      0.0100     78.3900
     79    -12.9990     -3.8030      6.8330      1.7700     78.3900
     80    -12.4680     -3.0070      7.6040      1.5900     78.3900
     81    -13.3460     -3.4550      5.5600      1.6800     78.3900
     82    -13.1620     -2.4970      5.3030      0.0100     78.3900
     83    -13.8690     -4.2690      4.5810      1.7700     78.3900
     84    -14.1020     -3.8120      3.4650      1.5900     78.3900
     85    -14.0840     -5.6230      4.9960      1.7700     78.3900
     86    -14.4700     -6.3380      4.2740      0.0100     78.3900
     87    -13.7210     -4.9540      9.6540      1.7700     78.3900
     88    -14.1200     -3.9440      9.4350      0.0100     78.3900
     89    -12.9390     -4.9490     10.8130      1.5900     78.3900
     90    -13.0950     -5.8170     11.1940      0.0100     78.3900
     91    -14.8080     -6.0040      9.8370      1.7700     78.3900
     92    -15.5320     -5.9650      8.9900      0.0100     78.3900
     93    -15.4440     -6.0040     11.1490      1.5900     78.3900
     94    -16.6980     -5.0530     11.3460      2.1000     78.3900
     95    -17.4690     -5.0280     10.0850      1.5900     78.3900
     96    -17.4270     -5.5300     12.5400      1.5900     78.3900
     97    -16.1410     -3.6130     11.6670      1.5900     78.3900
     98    -17.0620     -2.5680     12.0910      1.7700     78.3900
     99    -18.0840     -2.9510     12.3380      0.0100     78.3900
    100    -17.1820     -1.8370     11.2630      0.0100     78.3900
    101    -16.5650     -1.8030     13.3280      1.7700     78.3900
    102    -17.2970     -1.0210     13.6270      0.0100     78.3900
    103    -16.4540     -2.7260     14.4480      1.5900     78.3900
    104    -15.2940     -2.4220     15.2070      1.7700     78.3900
    105    -15.6280     -2.2500     16.2550      0.0100     78.3900
    106    -14.3470     -3.5460     15.2280      1.6800     78.3900
    107    -13.2550     -3.6760     16.0490      1.7700     78.3900
    108    -11.1620     -2.4060     18.5000      1.6800     78.3900
    109    -10.3470     -2.6880     19.0060      0.0100     78.3900
    110    -11.6010     -1.5380     18.7240      0.0100     78.3900
    111    -12.8360     -2.7770     16.9580      1.6800     78.3900
    112    -11.7340     -3.1790     17.5950      1.7700     78.3900
    113    -11.1330     -4.3940     17.3700      1.6800     78.3900
    114    -10.3190     -4.6310     17.9140      0.0100     78.3900
    115    -11.5720     -5.3570     16.4660      1.7700     78.3900
    116    -10.9960     -6.4420     16.3300      1.5900     78.3900
    117    -12.7160     -4.9140     15.7500      1.7700     78.3900
    118    -13.4450     -5.5450     14.7500      1.6800     78.3900
    119    -14.4010     -4.6920     14.4650      1.7700     78.3900
    120    -15.1790     -4.8370     13.7170      0.0100     78.3900
    121    -14.6940     -1.1480     14.6580      1.7700     78.3900
    122    -13.5850     -1.1590     14.7030      0.0100     78.3900
    123    -15.1910     -0.0270     15.3670      1.5900     78.3900
    124    -14.9360      0.7330     14.8290      0.0100     78.3900
    125    -15.1810     -1.1400     13.2120      1.7700     78.3900
    126    -14.5490     -1.8170     12.5880      0.0100     78.3900
    127    -15.3120      0.1910     12.6700      1.5900     78.3900
    128    -14.5560      0.7310     11.4110      2.1000     78.3900
    129    -14.4610     -0.3360     10.3990      1.5900     78.3900
    130    -15.2020      1.9880     10.9830      1.5900     78.3900
    131    -13.1260      1.0670     11.9600      1.5900     78.3900
    132    -12.9020      2.0920     12.9510      1.7700     78.3900
    133    -13.7440      2.1740     13.6740      0.0100     78.3900
    134    -12.8020      3.0760     12.4380      0.0100     78.3900
    135    -11.6340      1.7990     13.7680      1.7700     78.3900
    136    -11.4480      2.5930     14.5210      0.0100     78.3900
    137    -11.8170      0.5550     14.4990      1.5900     78.3900
    138    -10.6190     -0.1930     14.4890      1.7700     78.3900
    139    -10.3590     -0.3940     15.5530      0.0100     78.3900
    140    -10.8050     -1.4660     13.7880      1.6800     78.3900
    141    -10.6930     -3.5500     13.1140      1.7700     78.3900
    142    -11.6540     -2.9340     12.3440      1.6800     78.3900
    143    -11.6900     -1.7160     12.7770      1.7700     78.3900
    144    -12.3870     -0.9640     12.4290      0.0100     78.3900
    145     -9.2170     -5.1480     14.0320      1.6800     78.3900
    146     -8.7760     -4.1690     14.8230      1.7700     78.3900
    147     -7.9810     -4.4600     15.5220      0.0100     78.3900
    148     -9.2100     -2.9070     14.9310      1.6800     78.3900
    149    -10.1590     -2.6560     14.0170      1.7700     78.3900
    150    -10.2020     -4.8690     13.1470      1.7700     78.3900
    151    -10.6360     -5.8270     12.3070      1.6800     78.3900
    152    -11.3190     -5.5540     11.6230      0.0100     78.3900
    153    -10.3410     -6.7800     12.4130      0.0100     78.3900
    154     -9.5430      0.6740     13.8590      1.7700     78.3900
    155     -8.8430      0.0730     13.2520      0.0100     78.3900
    156     -8.8250      1.3940     14.8450      1.5900     78.3900
    157     -8.1520      1.9110     14.3760      0.0100     78.3900
    158    -10.3470      1.6000     12.9510      1.7700     78.3900
    159    -10.6180      1.0270     12.0320      0.0100     78.3900
    160     -9.6990      2.8790     12.6850      1.5900     78.3900
    161     -9.8680      3.5220     11.2580      2.1000     78.3900
    162     -9.9140      2.4680     10.2300      1.5900     78.3900
    163    -10.9960      4.4790     11.2880      1.5900     78.3900
    164     -8.5300      4.3240     11.0720      1.5900     78.3900
    165     -8.3600      5.6550     11.5970      1.7700     78.3900
    166     -9.0530      5.8750     12.4440      0.0100     78.3900
    167     -8.5730      6.3990     10.7950      0.0100     78.3900
    168     -6.9160      5.8430     12.0540      1.7700     78.3900
    169     -6.2340      5.8400     11.1770      0.0100     78.3900
    170     -6.7860      7.0970     12.7740      1.5900     78.3900
    171     -6.7380      6.8550     14.1830      1.7700     78.3900
    172     -5.6870      7.0730     14.4780      0.0100     78.3900
    173     -7.6730      7.7420     14.9630      1.6800     78.3900
    174     -8.4590      8.6580     14.2870      1.7700     78.3900
    175     -8.3800      8.6640     13.1990      0.0100     78.3900
    176     -9.2820      9.4950     14.9310      1.7700     78.3900
    177     -9.8930     10.2290     14.4070      0.0100     78.3900
    178     -7.7000      7.7380     16.3650      1.7700     78.3900
    179     -6.9410      6.9910     16.9990      1.5900     78.3900
    180     -8.5470      8.5590     17.0280      1.6800     78.3900
    181     -9.3230      9.4200     16.3500      1.7700     78.3900
    182    -10.1280     10.2280     17.0390      1.6800     78.3900
    183    -10.1300     10.1620     18.0350      0.0100     78.3900
    184    -10.6910     10.9270     16.5970      0.0100     78.3900
    185     -7.0040      5.3620     14.3770      1.7700     78.3900
    186     -8.0950      5.1720     14.4720      0.0100     78.3900
    187     -6.3050      4.8000     15.4680      1.5900     78.3900
    188     -5.3600      4.8810     15.2660      0.0100     78.3900
    189     -6.4830      4.7740     13.0670      1.7700     78.3900
    190     -7.0310      3.8210     12.8800      0.0100     78.3900
    191     -5.0550      4.5650     13.0540      1.5900     78.3900
    192     -4.4200      3.4850     12.1030      2.1000     78.3900
    193     -4.9040      3.7040     10.7240      1.5900     78.3900
    194     -2.9540      3.5580     12.2890      1.5900     78.3900
    195     -4.9640      2.1060     12.6330      1.5900     78.3900
    196     -4.6640      1.6920     13.9900      1.7700     78.3900
    197     -5.2660      2.2840     14.7220      0.0100     78.3900
    198     -3.5820      1.8290     14.2250      0.0100     78.3900
    199     -4.9970      0.2110     14.2130      1.7700     78.3900
    200     -4.8420     -0.0830     15.2730      0.0100     78.3900
    201     -6.3900     -0.0220     13.8950      1.5900     78.3900
    202     -6.5260     -1.2690     13.2350      1.7700     78.3900
    203     -7.2780     -1.8500     13.8060      0.0100     78.3900
    204     -7.0050     -1.0950     11.8540      1.6800     78.3900
    205     -7.4310     -2.0860     11.0090      1.7700     78.3900
    206     -8.0180     -5.4350     10.3340      1.6800     78.3900
    207     -7.7570     -5.8810     11.1870      0.0100     78.3900
[...]
  12 11  0    -1328.9706490784    -0.0000000227   0.000000490   0.000000185      346997432   14030561
  13 12  0    -1328.9706490837    -0.0000000053   0.000000182   0.000000088      309042722   14354684
  14 13  0    -1328.9706490808     0.0000000029   0.000000047   0.000000031      276073098   14628016

          -----------------
          DENSITY CONVERGED
          -----------------
     TIME TO FORM FOCK OPERATORS=      21.1 SECONDS (       1.5 SEC/ITER)
     FOCK TIME ON FIRST ITERATION=       1.7, LAST ITERATION=       0.9
     TIME TO SOLVE SCF EQUATIONS=       0.4 SECONDS (       0.0 SEC/ITER)

 FINAL RHF ENERGY IS    -1328.9706490808 AFTER  14 ITERATIONS
 ...... END OF RHF CALCULATION ......
 CPU     0: STEP CPU TIME=    41.03 TOTAL CPU TIME=        773.1 (     12.9 MIN)
 TOTAL WALL CLOCK TIME=       1602.9 SECONDS, CPU UTILIZATION IS    48.24%
 DONE PCM POT.
 CPU     0: STEP CPU TIME=     0.27 TOTAL CPU TIME=        773.4 (     12.9 MIN)
 TOTAL WALL CLOCK TIME=       1603.7 SECONDS, CPU UTILIZATION IS    48.23%

 Iter=  2 iFrag=      2 EFMO= -1360.676601538, DD= 0.047463289, DE=-0.389570164


 RHF      monomer      3 corr= NONE       , L1=   339, L0=   318 ID=      7


 AO spaces for     3     0     0 n-mer: L1=   339, L0=   318

 DIRECT SCF CALCULATION, SCHWRZ=T   FDIFF=T,  DIRTHR=  0.00E+00 NITDIR=10

                                                                                   NONZERO     BLOCKS
 ITER EX DEM     TOTAL ENERGY        E CHANGE  DENSITY CHANGE     ORB. GRAD      INTEGRALS    SKIPPED
   1  0  0    -1343.6370328333 -1343.6370328333   0.050637075   0.000000000      636718503    9629237
          ---------------START SECOND ORDER SCF---------------
   2  1  0    -1343.6615690774    -0.0245362442   0.026946120   0.004535635      613695901   10233547
   3  2  0    -1343.6639169745    -0.0023478970   0.008398623   0.003124410      595505379   10501371
   4  3  0    -1343.6642542103    -0.0003372359   0.002767046   0.000480908      567143093   10818101
   5  4  0    -1343.6641950858     0.0000591245   0.001237829   0.000301558      549234417   11002830
   6  5  0    -1343.6641806726     0.0000144132   0.000250064   0.000094761      521755210   11278682
   7  6  0    -1343.6641938946    -0.0000132220   0.000117403   0.000035961      495888290   11509140
   8  7  0    -1343.6641946715    -0.0000007770   0.000060259   0.000016886      472157245   11724686
   9  8  0    -1343.6641934782     0.0000011934   0.000016632   0.000004080      441206118   12019023
  10  9  0    -1343.6641929833     0.0000004949   0.000007586   0.000001366      412317344   12261620
  11 10  0    -1343.6641930674    -0.0000000841   0.000002295   0.000000408      371965331   12614065
  12 11  0    -1343.6641931163    -0.0000000489   0.000000501   0.000000284      345184540   12858526
  13 12  0    -1343.6641931185    -0.0000000022   0.000000179   0.000000067      310392614   13153714
  14 13  0    -1343.6641931179     0.0000000006   0.000000081   0.000000038      281822934   13394490

          -----------------
          DENSITY CONVERGED
          -----------------
     TIME TO FORM FOCK OPERATORS=      21.7 SECONDS (       1.6 SEC/ITER)
     FOCK TIME ON FIRST ITERATION=       2.3, LAST ITERATION=       0.9
     TIME TO SOLVE SCF EQUATIONS=       0.4 SECONDS (       0.0 SEC/ITER)

 FINAL RHF ENERGY IS    -1343.6641931179 AFTER  14 ITERATIONS
 ...... END OF RHF CALCULATION ......
 CPU     0: STEP CPU TIME=    42.45 TOTAL CPU TIME=        815.9 (     13.6 MIN)
 TOTAL WALL CLOCK TIME=       1697.5 SECONDS, CPU UTILIZATION IS    48.06%
 DONE PCM POT.
 CPU     0: STEP CPU TIME=     0.25 TOTAL CPU TIME=        816.1 (     13.6 MIN)
 TOTAL WALL CLOCK TIME=       1698.2 SECONDS, CPU UTILIZATION IS    48.06%

 Iter=  2 iFrag=      3 EFMO= -1380.540946879, DD= 0.057589573, DE=-0.423522670


 RHF      monomer      8 corr= NONE       , L1=   264, L0=   248 ID=      8


 AO spaces for     8     0     0 n-mer: L1=   264, L0=   248

 DIRECT SCF CALCULATION, SCHWRZ=T   FDIFF=T,  DIRTHR=  0.00E+00 NITDIR=10

                                                                                   NONZERO     BLOCKS
 ITER EX DEM     TOTAL ENERGY        E CHANGE  DENSITY CHANGE     ORB. GRAD      INTEGRALS    SKIPPED
   1  0  0     -765.5679156608  -765.5679156608   0.028047401   0.000000000      333474261    3966394
          ---------------START SECOND ORDER SCF---------------
   2  1  0     -765.5765745286    -0.0086588678   0.009559579   0.002690701      320058911    4318345
   3  2  0     -765.5773225471    -0.0007480185   0.005083705   0.003577411      309599874    4483162
   4  3  0     -765.5772249533     0.0000975938   0.001684120   0.000513126      300802250    4606202
   5  4  0     -765.5771237488     0.0001012045   0.000662512   0.000280885      289928783    4750561
   6  5  0     -765.5771460400    -0.0000222912   0.000298431   0.000102529      277736875    4899198
   7  6  0     -765.5771662226    -0.0000201827   0.000068263   0.000031596      268931189    5008020
   8  7  0     -765.5771654718     0.0000007509   0.000027221   0.000015429      252458197    5203911
   9  8  0     -765.5771649270     0.0000005448   0.000007445   0.000004662      242743914    5314430
  10  9  0     -765.5771649652    -0.0000000382   0.000003349   0.000001482      224599335    5522938
  11 10  0     -765.5771650126    -0.0000000474   0.000001760   0.000000671      210909283    5687408
  12 11  0     -765.5771650113     0.0000000013   0.000000338   0.000000210      195606232    5849499
  13 12  0     -765.5771649957     0.0000000157   0.000000158   0.000000058      177467772    6050703

          -----------------
          DENSITY CONVERGED
          -----------------
     TIME TO FORM FOCK OPERATORS=      11.8 SECONDS (       0.9 SEC/ITER)
     FOCK TIME ON FIRST ITERATION=       1.2, LAST ITERATION=       0.7
     TIME TO SOLVE SCF EQUATIONS=       0.2 SECONDS (       0.0 SEC/ITER)

 FINAL RHF ENERGY IS     -765.5771649957 AFTER  13 ITERATIONS
 ...... END OF RHF CALCULATION ......
 CPU     0: STEP CPU TIME=    24.67 TOTAL CPU TIME=        840.8 (     14.0 MIN)
 TOTAL WALL CLOCK TIME=       1751.6 SECONDS, CPU UTILIZATION IS    48.00%
 DONE PCM POT.
 CPU     0: STEP CPU TIME=     0.18 TOTAL CPU TIME=        841.0 (     14.0 MIN)
 TOTAL WALL CLOCK TIME=       1752.2 SECONDS, CPU UTILIZATION IS    48.00%

 Iter=  2 iFrag=      8 EFMO=  -795.830526951, DD= 0.036235683, DE=-0.005295837

 CPU     0: STEP CPU TIME=     0.00 TOTAL CPU TIME=        841.0 (     14.0 MIN)
 TOTAL WALL CLOCK TIME=       1752.2 SECONDS, CPU UTILIZATION IS    48.00%

  Monomer SCF synchronisation on iteration   2.1 took     0.0 s.
 CPU     0: STEP CPU TIME=     0.00 TOTAL CPU TIME=        841.0 (     14.0 MIN)
 TOTAL WALL CLOCK TIME=       1752.2 SECONDS, CPU UTILIZATION IS    48.00%
 dmexch needs              3065480  words of memory.
 CPU     0: STEP CPU TIME=     0.01 TOTAL CPU TIME=        841.0 (     14.0 MIN)
 TOTAL WALL CLOCK TIME=       1752.2 SECONDS, CPU UTILIZATION IS    48.00%

 Data exchange of   1015485 words took     0.0 s.

 Calculating apparent surface charges...
     Using       42484 words of memory.
 ASC ITERATION=   1 CONVERGED TO  0.901631E-02
 ASC ITERATION=   2 CONVERGED TO  0.940218E-01
 ASC ITERATION=   3 CONVERGED TO  0.117128E+00
 ASC ITERATION=   4 CONVERGED TO  0.104079E-01
 ASC ITERATION=   5 CONVERGED TO  0.581361E-02
 ASC ITERATION=   6 CONVERGED TO  0.302510E-02
 ASC ITERATION=   7 CONVERGED TO  0.137588E-02
 ASC ITERATION=   8 CONVERGED TO  0.790541E-03
 ASC ITERATION=   9 CONVERGED TO  0.452971E-03
 ASC ITERATION=  10 CONVERGED TO  0.303122E-03
 ASC ITERATION=  11 CONVERGED TO  0.919788E-04
 ASC ITERATION=  12 CONVERGED TO  0.662411E-04
 ASC ITERATION=  13 CONVERGED TO  0.291712E-04
 ASC ITERATION=  14 CONVERGED TO  0.135459E-04
 ASC ITERATION=  15 CONVERGED TO  0.885668E-05
 ASC ITERATION=  16 CONVERGED TO  0.507655E-05
 ASC ITERATION=  17 CONVERGED TO  0.302600E-05
 ASC ITERATION=  18 CONVERGED TO  0.126860E-05
 ASC ITERATION=  19 CONVERGED TO  0.867753E-06
 ASC ITERATION=  20 CONVERGED TO  0.414394E-06
 ASC ITERATION=  21 CONVERGED TO  0.216606E-06
 ASC ITERATION=  22 CONVERGED TO  0.974395E-07
 ASC ITERATION=  23 CONVERGED TO  0.654647E-07
 ASC ITERATION=  24 CONVERGED TO  0.390218E-07
 ASC ITERATION=  25 CONVERGED TO  0.206833E-07
 ASC ITERATION=  26 CONVERGED TO  0.993328E-08
 ASC ITERATION=  27 CONVERGED TO  0.661413E-08
 ASC ITERATION=  28 CONVERGED TO  0.380873E-08
 ASC ITERATION=  29 CONVERGED TO  0.187262E-08
 ASC ITERATION=  30 CONVERGED TO  0.947527E-09
 ASC ITERATION=  31 CONVERGED TO  0.411217E-09
 ASC ITERATION=  32 CONVERGED TO  0.214148E-09
 ASC ITERATION=  33 CONVERGED TO  0.156939E-09
 ASC ITERATION=  34 CONVERGED TO  0.773060E-10

 THE ASC EQUATIONS FOR PHASE=1 CONVERGED IN  34 ITERATIONS.

 PCM ASC=      6.8600082674 normalised to=      6.9107028958
 Nuclear factor=   1.0030493031, electronic factor=   1.0030724683

 CPU     0: STEP CPU TIME=     0.15 TOTAL CPU TIME=        841.1 (     14.0 MIN)
 TOTAL WALL CLOCK TIME=       1752.5 SECONDS, CPU UTILIZATION IS    47.99%


 ------------------------------------------------------------------------------
 FMO iter  2.1,      0 fragment(s) converged, maxD 0.111043586 maxE 0.476144528
 ------------------------------------------------------------------------------

 RHF      monomer      1 corr= NONE       , L1=   403, L0=   378 ID=      1


 AO spaces for     1     0     0 n-mer: L1=   403, L0=   378

 DIRECT SCF CALCULATION, SCHWRZ=T   FDIFF=T,  DIRTHR=  0.00E+00 NITDIR=10

                                                                                   NONZERO     BLOCKS
 ITER EX DEM     TOTAL ENERGY        E CHANGE  DENSITY CHANGE     ORB. GRAD      INTEGRALS    SKIPPED
   1  0  0    -1551.3532224345 -1551.3532224345   0.009192317   0.000000000     1051250090   21799951
          ---------------START SECOND ORDER SCF---------------
   2  1  0    -1551.3520793326     0.0011431019   0.003086518   0.000569348      952336492   23488921
   3  2  0    -1551.3521851302    -0.0001057976   0.001160924   0.000371528      904438232   23981462
   4  3  0    -1551.3520607979     0.0001243323   0.000351229   0.000050897      838927424   24562661
   5  4  0    -1551.3520114106     0.0000493873   0.000118673   0.000044656      796246448   24927735
   6  5  0    -1551.3520035996     0.0000078110   0.000031339   0.000016290      753175836   25305232
   7  6  0    -1551.3520071580    -0.0000035585   0.000018115   0.000005935      690217959   25831811
   8  7  0    -1551.3520073589    -0.0000002008   0.000008461   0.000002950      646548758   26196654
   9  8  0    -1551.3520070100     0.0000003488   0.000003406   0.000000860      600597872   26602443
  10  9  0    -1551.3520068919     0.0000001181   0.000000666   0.000000326      549078236   27009296
  11 10  0    -1551.3520069271    -0.0000000352   0.000000276   0.000000093      502208911   27354792
  12 11  0    -1551.3520069312    -0.0000000041   0.000000083   0.000000026      453881990   27767104
  13 12  0    -1551.3520069347    -0.0000000035   0.000000028   0.000000013      398064453   28186460

          -----------------
          DENSITY CONVERGED
          -----------------
     TIME TO FORM FOCK OPERATORS=      30.5 SECONDS (       2.3 SEC/ITER)
     FOCK TIME ON FIRST ITERATION=       3.6, LAST ITERATION=       1.3
     TIME TO SOLVE SCF EQUATIONS=       0.6 SECONDS (       0.0 SEC/ITER)

 FINAL RHF ENERGY IS    -1551.3520069347 AFTER  13 ITERATIONS
 ...... END OF RHF CALCULATION ......
 CPU     0: STEP CPU TIME=    49.83 TOTAL CPU TIME=        891.0 (     14.8 MIN)
 TOTAL WALL CLOCK TIME=       1857.1 SECONDS, CPU UTILIZATION IS    47.97%
 DONE PCM POT.
 CPU     0: STEP CPU TIME=     0.35 TOTAL CPU TIME=        891.3 (     14.9 MIN)
 TOTAL WALL CLOCK TIME=       1858.2 SECONDS, CPU UTILIZATION IS    47.97%

 Iter=  3 iFrag=      1 EFMO= -1597.626878766, DD= 0.012854642, DE=-0.030140862


 RHF      monomer      7 corr= NONE       , L1=   386, L0=   362 ID=      2


 AO spaces for     7     0     0 n-mer: L1=   386, L0=   362

 DIRECT SCF CALCULATION, SCHWRZ=T   FDIFF=T,  DIRTHR=  0.00E+00 NITDIR=10

                                                                                   NONZERO     BLOCKS
 ITER EX DEM     TOTAL ENERGY        E CHANGE  DENSITY CHANGE     ORB. GRAD      INTEGRALS    SKIPPED
   1  0  0    -1462.9449686828 -1462.9449686828   0.037480096   0.000000000      913592466   17583945
          ---------------START SECOND ORDER SCF---------------
   2  1  0    -1462.9457621459    -0.0007934631   0.009479213   0.002613413      836669206   18975423
   3  2  0    -1462.9462190095    -0.0004568636   0.001754476   0.000503689      804259860   19328957
   4  3  0    -1462.9460798452     0.0001391643   0.000569073   0.000124203      759092506   19756148
   5  4  0    -1462.9460693425     0.0000105027   0.000194582   0.000083992      711586377   20158749
   6  5  0    -1462.9460598296     0.0000095129   0.000077059   0.000018364      675374871   20471037
   7  6  0    -1462.9460598781    -0.0000000485   0.000032205   0.000010522      634084638   20825364
   8  7  0    -1462.9460593129     0.0000005651   0.000016505   0.000003026      588473975   21202735
   9  8  0    -1462.9460596775    -0.0000003645   0.000004713   0.000000717      562203380   21414064
  10  9  0    -1462.9460597930    -0.0000001155   0.000001375   0.000000382      519181806   21758698
  11 10  0    -1462.9460597458     0.0000000472   0.000000623   0.000000134      462686083   22188872
  12 11  0    -1462.9460597208     0.0000000250   0.000000129   0.000000080      430662837   22446411
  13 12  0    -1462.9460597194     0.0000000014   0.000000077   0.000000023      377963013   22878645

          -----------------
          DENSITY CONVERGED
          -----------------
     TIME TO FORM FOCK OPERATORS=      24.3 SECONDS (       1.9 SEC/ITER)
     FOCK TIME ON FIRST ITERATION=       1.7, LAST ITERATION=       1.2
     TIME TO SOLVE SCF EQUATIONS=       0.5 SECONDS (       0.0 SEC/ITER)

 FINAL RHF ENERGY IS    -1462.9460597194 AFTER  13 ITERATIONS
 ...... END OF RHF CALCULATION ......
 CPU     0: STEP CPU TIME=    60.31 TOTAL CPU TIME=        951.6 (     15.9 MIN)
 TOTAL WALL CLOCK TIME=       1974.4 SECONDS, CPU UTILIZATION IS    48.20%
 DONE PCM POT.
 CPU     0: STEP CPU TIME=     0.32 TOTAL CPU TIME=        951.9 (     15.9 MIN)
 TOTAL WALL CLOCK TIME=       1975.3 SECONDS, CPU UTILIZATION IS    48.19%

 Iter=  3 iFrag=      7 EFMO= -1507.422739861, DD= 0.030012777, DE= 0.011431099


 RHF      monomer      4 corr= NONE       , L1=   386, L0=   362 ID=      3


 AO spaces for     4     0     0 n-mer: L1=   386, L0=   362

 DIRECT SCF CALCULATION, SCHWRZ=T   FDIFF=T,  DIRTHR=  0.00E+00 NITDIR=10

                                                                                   NONZERO     BLOCKS
 ITER EX DEM     TOTAL ENERGY        E CHANGE  DENSITY CHANGE     ORB. GRAD      INTEGRALS    SKIPPED
   1  0  0    -1464.0910983309 -1464.0910983309   0.031985370   0.000000000      888132395   17889701
          ---------------START SECOND ORDER SCF---------------
   2  1  0    -1464.0908881466     0.0002101843   0.007852143   0.001915097      805975585   19199674
   3  2  0    -1464.0912236702    -0.0003355236   0.001483448   0.000451748      769636688   19558491
   4  3  0    -1464.0910199662     0.0002037039   0.000517120   0.000107126      723561727   19982301
   5  4  0    -1464.0909628823     0.0000570839   0.000128761   0.000096081      679343328   20341875
   6  5  0    -1464.0909443252     0.0000185571   0.000063534   0.000024670      648907283   20610095
   7  6  0    -1464.0909429997     0.0000013256   0.000019140   0.000018101      601875869   21009899
   8  7  0    -1464.0909447496    -0.0000017500   0.000011819   0.000005037      569718991   21271297
   9  8  0    -1464.0909452843    -0.0000005347   0.000004028   0.000001727      543423935   21503809
  10  9  0    -1464.0909451136     0.0000001708   0.000001366   0.000000423      500615432   21854286
  11 10  0    -1464.0909449780     0.0000001355   0.000000409   0.000000168      458994534   22173884
  12 11  0    -1464.0909449739     0.0000000041   0.000000187   0.000000098      422863175   22475703
  13 12  0    -1464.0909449820    -0.0000000081   0.000000092   0.000000023      369056755   22896451

          -----------------
          DENSITY CONVERGED
          -----------------
     TIME TO FORM FOCK OPERATORS=      26.7 SECONDS (       2.1 SEC/ITER)
     FOCK TIME ON FIRST ITERATION=       3.9, LAST ITERATION=       1.2
     TIME TO SOLVE SCF EQUATIONS=       0.5 SECONDS (       0.0 SEC/ITER)

 FINAL RHF ENERGY IS    -1464.0909449820 AFTER  13 ITERATIONS
 ...... END OF RHF CALCULATION ......
 CPU     0: STEP CPU TIME=    43.99 TOTAL CPU TIME=        995.9 (     16.6 MIN)
 TOTAL WALL CLOCK TIME=       2061.4 SECONDS, CPU UTILIZATION IS    48.31%
 DONE PCM POT.
 CPU     0: STEP CPU TIME=     0.36 TOTAL CPU TIME=        996.3 (     16.6 MIN)
 TOTAL WALL CLOCK TIME=       2062.4 SECONDS, CPU UTILIZATION IS    48.31%

 Iter=  3 iFrag=      4 EFMO= -1507.484765852, DD= 0.025973762, DE=-0.000906475


 RHF      monomer      5 corr= NONE       , L1=   371, L0=   348 ID=      4


 AO spaces for     5     0     0 n-mer: L1=   371, L0=   348

 DIRECT SCF CALCULATION, SCHWRZ=T   FDIFF=T,  DIRTHR=  0.00E+00 NITDIR=10

                                                                                   NONZERO     BLOCKS
 ITER EX DEM     TOTAL ENERGY        E CHANGE  DENSITY CHANGE     ORB. GRAD      INTEGRALS    SKIPPED
   1  0  0    -1388.4589906889 -1388.4589906889   0.036208524   0.000000000      773140860   15337422
          ---------------START SECOND ORDER SCF---------------
   2  1  0    -1388.4594817249    -0.0004910360   0.008137549   0.001696302      714387007   16487461
   3  2  0    -1388.4600442282    -0.0005625032   0.001855556   0.000444171      691180796   16764553
   4  3  0    -1388.4598701572     0.0001740710   0.000636916   0.000091759      653980856   17131676
   5  4  0    -1388.4598454442     0.0000247131   0.000170319   0.000044701      612663826   17499723
   6  5  0    -1388.4598420274     0.0000034167   0.000053953   0.000011621      583833158   17772424
   7  6  0    -1388.4598393491     0.0000026783   0.000016068   0.000008328      544141651   18121684
   8  7  0    -1388.4598396894    -0.0000003403   0.000006741   0.000002848      506222204   18463127
   9  8  0    -1388.4598397701    -0.0000000807   0.000003076   0.000001792      476234538   18709922
  10  9  0    -1388.4598398471    -0.0000000770   0.000001152   0.000000701      448090775   18957742
  11 10  0    -1388.4598397687     0.0000000785   0.000000855   0.000000211      411435125   19253488
  12 11  0    -1388.4598397423     0.0000000264   0.000000186   0.000000084      389565762   19429113
  13 12  0    -1388.4598397441    -0.0000000019   0.000000091   0.000000022      342788800   19819526

          -----------------
          DENSITY CONVERGED
          -----------------
     TIME TO FORM FOCK OPERATORS=      23.0 SECONDS (       1.8 SEC/ITER)
     FOCK TIME ON FIRST ITERATION=       2.7, LAST ITERATION=       1.0
     TIME TO SOLVE SCF EQUATIONS=       0.5 SECONDS (       0.0 SEC/ITER)

 FINAL RHF ENERGY IS    -1388.4598397441 AFTER  13 ITERATIONS
 ...... END OF RHF CALCULATION ......
 CPU     0: STEP CPU TIME=    49.02 TOTAL CPU TIME=       1045.3 (     17.4 MIN)
 TOTAL WALL CLOCK TIME=       2161.2 SECONDS, CPU UTILIZATION IS    48.37%
 DONE PCM POT.
 CPU     0: STEP CPU TIME=     0.30 TOTAL CPU TIME=       1045.6 (     17.4 MIN)
 TOTAL WALL CLOCK TIME=       2162.2 SECONDS, CPU UTILIZATION IS    48.36%

 Iter=  3 iFrag=      5 EFMO= -1432.571580077, DD= 0.030443125, DE= 0.008509272


 RHF      monomer      6 corr= NONE       , L1=   341, L0=   320 ID=      5

