‘4A4U_6_fmo_input.inp’ -> ‘/scratch/hazwong/824173/./4A4U_6_fmo_input.inp’
‘rungms’ -> ‘/scratch/hazwong/824173/./rungms’
‘gms-files.csh’ -> ‘/scratch/hazwong/824173/./gms-files.csh’
----- GAMESS execution script 'rungms' -----
This job is running on host gollum055.lsa.umich.edu
under operating system Linux at Sat Dec 7 00:11:24 EST 2019
Available scratch disk space (Kbyte units) at beginning of the job is
Filesystem     1K-blocks  Used Available Use% Mounted on
/dev/sda4      426933580 33260 426900320   1% /scratch
GAMESS temporary binary files will be written to /scratch/hazwong/824173/4A4U_6/usrc
GAMESS supplementary output files will be written to /scratch/hazwong/824173/4A4U_6/src
Copying input file 4A4U_6_fmo_input.inp to your run's scratch directory...
cp 4A4U_6_fmo_input.inp /scratch/hazwong/824173/4A4U_6/usrc/4A4U_6_fmo_input.F05
unset echo
This is a GDDI run, keeping various output files on local disks
setenv OUTPUT /scratch/hazwong/824173/4A4U_6/usrc/4A4U_6_fmo_input.F06
setenv PUNCH /scratch/hazwong/824173/4A4U_6/usrc/4A4U_6_fmo_input.F07
unset echo
 
Assuming a single but multicore node.
 
/export/apps/CentOS7/gamess/src/build//ddikick.x /export/apps/CentOS7/gamess/src/build//gamess.R3.x 4A4U_6_fmo_input -ddi 1 16 gollum055.lsa.umich.edu:cpus=16 -scr /scratch/hazwong/824173/4A4U_6/usrc

 Distributed Data Interface kickoff program.
 Initiating 16 compute processes on 1 nodes to run the following command:
 /export/apps/CentOS7/gamess/src/build//gamess.R3.x 4A4U_6_fmo_input 

          ******************************************************
          *         GAMESS VERSION = 30 SEP 2018 (R3)         *
          *             FROM IOWA STATE UNIVERSITY             *
          * M.W.SCHMIDT, K.K.BALDRIDGE, J.A.BOATZ, S.T.ELBERT, *
          *   M.S.GORDON, J.H.JENSEN, S.KOSEKI, N.MATSUNAGA,   *
          *          K.A.NGUYEN, S.J.SU, T.L.WINDUS,           *
          *       TOGETHER WITH M.DUPUIS, J.A.MONTGOMERY       *
          *         J.COMPUT.CHEM.  14, 1347-1363(1993)        *
          **************** 64 BIT LINUX VERSION ****************

  SINCE 1993, STUDENTS AND POSTDOCS WORKING AT IOWA STATE UNIVERSITY
  AND ALSO IN THEIR VARIOUS JOBS AFTER LEAVING ISU HAVE MADE IMPORTANT
  CONTRIBUTIONS TO THE CODE:
     IVANA ADAMOVIC, CHRISTINE AIKENS, YURI ALEXEEV, POOJA ARORA,
     ANDREY ASADCHEV, ROB BELL, PRADIPTA BANDYOPADHYAY, JONATHAN BENTZ,
     BRETT BODE, KURT BRORSEN, CALEB CARLIN, GALINA CHABAN, WEI CHEN,
     CHEOL HO CHOI, PAUL DAY, ALBERT DEFUSCO, NUWAN DESILVA, TIM DUDLEY,
     DMITRI FEDOROV, ALEX FINDLATER, GRAHAM FLETCHER, MARK FREITAG,
     KURT GLAESEMANN, ANASTASIA GUNINA,
     DAN KEMP, GRANT MERRILL, NORIYUKI MINEZAWA, JONATHAN MULLIN,
     TAKESHI NAGATA, SEAN NEDD, HEATHER NETZLOFF, BOSILJKA NJEGIC, RYAN OLSON,
     MIKE PAK, BUU PHAM,
     SPENCER PRUITT, LUKE ROSKOP, JIM SHOEMAKER, LYUDMILA SLIPCHENKO,
     TONY SMITH, SAROM SOK LEANG, JIE SONG, TETSUYA TAKETSUGU, SIMON WEBB,
     PENG XU, SOOHAENG YOO, FEDERICO ZAHARIEV

  ADDITIONAL CODE HAS BEEN PROVIDED BY COLLABORATORS IN OTHER GROUPS:
     IOWA STATE UNIVERSITY:
          JOE IVANIC, AARON WEST, LAIMUTIS BYTAUTAS, KLAUS RUEDENBERG
     UNIVERSITY OF TOKYO: KIMIHIKO HIRAO, TAKAHITO NAKAJIMA,
          TAKAO TSUNEDA, MUNEAKI KAMIYA, SUSUMU YANAGISAWA,
          KIYOSHI YAGI, MAHITO CHIBA, SEIKEN TOKURA, NAOAKI KAWAKAMI
     UNIVERSITY OF AARHUS: FRANK JENSEN
     UNIVERSITY OF IOWA: VISVALDAS KAIRYS, HUI LI
     NATIONAL INST. OF STANDARDS AND TECHNOLOGY: WALT STEVENS, DAVID GARMER
     UNIVERSITY OF PISA: BENEDETTA MENNUCCI, JACOPO TOMASI
     UNIVERSITY OF MEMPHIS: HENRY KURTZ, PRAKASHAN KORAMBATH
     UNIVERSITY OF ALBERTA: TOBY ZENG, MARIUSZ KLOBUKOWSKI
     UNIVERSITY OF NEW ENGLAND: MARK SPACKMAN
     MIE UNIVERSITY: HIROAKI UMEDA
     NAT. INST. OF ADVANCED INDUSTRIAL SCIENCE AND TECHNOLOGY: KAZUO KITAURA
     MICHIGAN STATE UNIVERSITY:
          KAROL KOWALSKI, MARTA WLOCH, JEFFREY GOUR, JESSE LUTZ,
          WEI LI, JUN SHEN, J. EMILIANO DEUSTUA, PIOTR PIECUCH
     UNIVERSITY OF MINNESOTA:
          YINAN SHU
     UNIVERSITY OF SILESIA: MONIKA MUSIAL, STANISLAW KUCHARSKI
     FACULTES UNIVERSITAIRES NOTRE-DAME DE LA PAIX:
          OLIVIER QUINET, BENOIT CHAMPAGNE
     UNIVERSITY OF CALIFORNIA - SANTA BARBARA: BERNARD KIRTMAN
     INSTITUTE FOR MOLECULAR SCIENCE:
          KAZUYA ISHIMURA, MICHIO KATOUDA, AND SHIGERU NAGASE
     UNIVERSITY OF NOTRE DAME: ANNA POMOGAEVA, DAN CHIPMAN
     KYUSHU UNIVERSITY:
          HARUYUKI NAKANO,
          FENG LONG GU, JACEK KORCHOWIEC, MARCIN MAKOWSKI, AND YURIKO AOKI,
          HIROTOSHI MORI AND EISAKU MIYOSHI
     PENNSYLVANIA STATE UNIVERSITY:
          TZVETELIN IORDANOV, CHET SWALINA, JONATHAN SKONE,
          SHARON HAMMES-SCHIFFER
     WASEDA UNIVERSITY:
          MASATO KOBAYASHI, TOMOKO AKAMA, TSUGUKI TOUMA,
          TAKESHI YOSHIKAWA, YASUHIRO IKABATA, JUNJI SEINO,
          YUYA NAKAJIMA, HIROMI NAKAI
     NANJING UNIVERSITY: SHUHUA LI
     UNIVERSITY OF NEBRASKA:
          PEIFENG SU, DEJUN SI, NANDUN THELLAMUREGE, YALI WANG, HUI LI
     UNIVERSITY OF ZURICH: ROBERTO PEVERATI, KIM BALDRIDGE
     N. COPERNICUS UNIVERSITY AND JACKSON STATE UNIVERSITY:
          MARIA BARYSZ
     UNIVERSITY OF COPENHAGEN: Jimmy Kromann, CASPER STEINMANN
     TOKYO INSTITUTE OF TECHNOLOGY: HIROYA NAKATA
     NAGOYA UNIVERSITY: YOSHIO NISHIMOTO, STEPHAN IRLE
     MOSCOW STATE UNIVERSITY: VLADIMIR MIRONOV


 PARALLEL VERSION RUNNING ON       16 PROCESSORS IN        1 NODES.

 EXECUTION OF GAMESS BEGUN Sat Dec  7 00:11:24 2019

            ECHO OF THE FIRST FEW INPUT CARDS -
 INPUT CARD>!*** FMO 5.3 (Gamess) INPUT generated by Facio 22.1.1.32 ***                    
 INPUT CARD> $CONTRL RUNTYP=ENERGY NPRINT=-5 ISPHER=1 MAXIT=200 $END                        
 INPUT CARD> $SYSTEM MWORDS=63 MEMDDI=63 $END                                               
 INPUT CARD> $GDDI NGROUP=1 $END                                                            
 INPUT CARD> $SCF DIRSCF=.TRUE. NPUNCH=0 $END                                               
 INPUT CARD>!*** NumCPU : 2  MemPerNode : 512MB                                             
 INPUT CARD> $PCM SOLVNT=WATER IEF=-10 ICOMP=2 ICAV=1 IDISP=1 IFMO=-1 $END                  
 INPUT CARD> $PCMCAV RADII=SUAHF $END                                                       
 INPUT CARD> $TESCAV NTSALL=60 $END                                                         
 INPUT CARD> $FMOPRP                                                                        
 INPUT CARD>    NAODIR=200                                                                  
 INPUT CARD>    NGRFMO(1)=1, 1, 0, 0, 0,   0, 0, 0, 0, 0                                    
 INPUT CARD>    IPIEDA=1                                                                    
 INPUT CARD>    NPRINT=9                                                                    
 INPUT CARD> $END                                                                           
 INPUT CARD> $FMO                                                                           
 INPUT CARD>      SCFTYP(1)=RHF                                                             
 INPUT CARD>      MODGRD=10                                                                 
 INPUT CARD>      MODMUL=0                                                                  
 INPUT CARD>      MAXCAO=5                                                                  
 INPUT CARD>      MAXBND=10                                                                 
 INPUT CARD>      NLAYER=1                                                                  
 INPUT CARD>      MPLEVL(1)=2                                                               
 INPUT CARD>      NFRAG=8                                                                   
 INPUT CARD>      ICHARG(1)=-1, -1, -1, -1, -1, -1, -1, 0                                   
 INPUT CARD>      FRGNAM(1)=F1, F2, F3, F4, F5, F6, F7, F8                                  
 INPUT CARD>      indat(1)=0                                                                
 INPUT CARD>               1   -36   0                                                      
 INPUT CARD>               37   -67   0                                                     
 INPUT CARD>               68   -97   0                                                     
 INPUT CARD>               98   -131   0                                                    
 INPUT CARD>               132   -164   0                                                   
 INPUT CARD>               165   -195   0                                                   
 INPUT CARD>               196   -229   0                                                   
 INPUT CARD>               230   -257   0                                                   
 INPUT CARD> $END                                                                           
 INPUT CARD>                                                                                
 INPUT CARD> $FMOBND                                                                        
 INPUT CARD>   -37   36       6-31G*    MINI                                                
 INPUT CARD>   -68   67       6-31G*    MINI                                                
 INPUT CARD>   -98   97       6-31G*    MINI                                                
 INPUT CARD>   -132   131       6-31G*    MINI                                              
 INPUT CARD>   -165   164       6-31G*    MINI                                              
 INPUT CARD>   -196   195       6-31G*    MINI                                              
 INPUT CARD>   -230   229       6-31G*    MINI                                              
 INPUT CARD> $END                                                                           
 INPUT CARD> $FMOHYB                                                                        
 INPUT CARD> 6-31G*      15   5                                                             
 INPUT CARD>   1 0  -0.065034   0.288264   0.000000   0.000000   0.604412                   
 INPUT CARD>         0.290129   0.000000   0.000000   0.319045  -0.017106                   


 -------------------------------------------------------------
 GROUP DDI, PROGRAMMED BY: RYAN M. OLSON AND DMITRI G. FEDOROV
        FEDOROV ET AL., J. COMPUT. CHEM., 25 (2004) 872.
 -------------------------------------------------------------

 -------------------------------------------------------
 GDDI: INITIALIZATION COMPLETED FOR GROUP     1 OF     1
 WITH    16 PROCESSES BALTYP=DLB   global rank=        0
 -------------------------------------------------------

   63000000 WORDS OF MEMORY AVAILABLE


     RUN TITLE
     ---------
  FMO calculation                                                                

 THE POINT GROUP OF THE MOLECULE IS C1      
 THE ORDER OF THE PRINCIPAL AXIS IS     0

 ATOM   ATOMIC CHARGE
 H.1-1       1.0
 O.1-1       8.0
 C.1-1       6.0
 N.1-1       7.0
 P.1-1      15.0

     ATOMIC BASIS SET LIBRARY
     ----------------
 THE CONTRACTED PRIMITIVE FUNCTIONS HAVE BEEN UNNORMALIZED
 THE CONTRACTED BASIS FUNCTIONS ARE NOW NORMALIZED TO UNITY

  SHELL TYPE  PRIMITIVE        EXPONENT          CONTRACTION COEFFICIENT(S)

 H.1-1     

      1   S       1            18.7311370    0.033494604338
      1   S       2             2.8253944    0.234726953484
      1   S       3             0.6401217    0.813757326146

      2   S       4             0.1612778    1.000000000000

 O.1-1     

      3   S       5          5484.6716600    0.001831074430
      3   S       6           825.2349460    0.013950172200
      3   S       7           188.0469580    0.068445078098
      3   S       8            52.9645000    0.232714335992
      3   S       9            16.8975704    0.470192897984
      3   S      10             5.7996353    0.358520852987

      4   L      11            15.5396162   -0.110777549525    0.070874268231
      4   L      12             3.5999336   -0.148026262701    0.339752839147
      4   L      13             1.0137618    1.130767015354    0.727158577316

      5   L      14             0.2700058    1.000000000000    1.000000000000

      6   D      15             0.8000000    1.000000000000

 C.1-1     

      7   S      16          3047.5248800    0.001834737132
      7   S      17           457.3695180    0.014037322813
      7   S      18           103.9486850    0.068842622264
      7   S      19            29.2101553    0.232184443216
      7   S      20             9.2866630    0.467941348435
      7   S      21             3.1639270    0.362311985337

      8   L      22             7.8682723   -0.119332419775    0.068999066591
      8   L      23             1.8812885   -0.160854151696    0.316423960957
      8   L      24             0.5442493    1.143456437840    0.744308290898

      9   L      25             0.1687145    1.000000000000    1.000000000000

     10   D      26             0.8000000    1.000000000000

 N.1-1     

     11   S      27          4173.5114600    0.001834772160
     11   S      28           627.4579110    0.013994627002
     11   S      29           142.9020930    0.068586551812
     11   S      30            40.2343293    0.232240873040
     11   S      31            12.8202129    0.469069948082
     11   S      32             4.3904370    0.360455199063

     12   L      33            11.6263619   -0.114961181702    0.067579743878
     12   L      34             2.7162798   -0.169117478561    0.323907295893
     12   L      35             0.7722184    1.145851947027    0.740895139755

     13   L      36             0.2120315    1.000000000000    1.000000000000

     14   D      37             0.8000000    1.000000000000

 P.1-1     

     15   S      38         19413.3000000    0.001851598923
     15   S      39          2909.4200000    0.014206191735
     15   S      40           661.3640000    0.069999459277
     15   S      41           185.7590000    0.240078860331
     15   S      42            59.1943000    0.484761717984
     15   S      43            20.0310000    0.335199804993

     16   L      44           339.4780000   -0.002782170105    0.004564616191
     16   L      45            81.0101000   -0.036049901354    0.033693571881
     16   L      46            25.8780000   -0.116631004382    0.139754883368
     16   L      47             9.4522100    0.096832803638    0.339361716786
     16   L      48             3.6656600    0.614418023082    0.450920623685
     16   L      49             1.4674600    0.403798015170    0.238585800889

     17   L      50             2.1562300   -0.252924113863   -0.017765312733
     17   L      51             0.7489970    0.032851844678    0.274058196433
     17   L      52             0.2831450    1.081254761783    0.785421562957

     18   L      53             0.0998317    1.000000000000    1.000000000000

     19   D      54             0.5500000    1.000000000000

 TOTAL NUMBER OF BASIS SET SHELLS             =   19
 NUMBER OF CARTESIAN GAUSSIAN BASIS FUNCTIONS =   66

     $CONTRL OPTIONS
     ---------------
 SCFTYP=RHF          RUNTYP=ENERGY       EXETYP=RUN     
 MPLEVL=       0     CITYP =NONE         CCTYP =NONE         VBTYP =NONE    
 DFTTYP=NONE         TDDFT =NONE    
 MULT  =       1     ICHARG=       0     NZVAR =       0     COORD =UNIQUE  
 PP    =NONE         RELWFN=NONE         LOCAL =NONE         NUMGRD=       F
 ISPHER=       1     NOSYM =       0     MAXIT =     200     UNITS =ANGS    
 PLTORB=       F     MOLPLT=       F     AIMPAC=       F     FRIEND=        
 NPRINT=      -5     IREST =       0     GEOM  =INPUT   
 NORMF =       0     NORMP =       0     ITOL  =      24     ICUT  =      12
 INTTYP=BEST         GRDTYP=BEST         QMTTOL= 1.0E-06

     $SYSTEM OPTIONS
     ---------------
  REPLICATED MEMORY=    63000000 WORDS (ON EVERY NODE).
 DISTRIBUTED MEMDDI=          63 MILLION WORDS IN AGGREGATE,
 MEMDDI DISTRIBUTED OVER  16 PROCESSORS IS     3937500 WORDS/PROCESSOR.
 TOTAL MEMORY REQUESTED ON EACH PROCESSOR=    66937500 WORDS.
 TIMLIM=      525600.00 MINUTES, OR     365.0 DAYS.
 PARALL= T  BALTYP=  DLB     KDIAG=    0  COREFL= F
 MXSEQ2=     300 MXSEQ3=     150  mem10=         0

 ** LOOKING UP INTERNALLY STORED DATA FOR SOLVENT=WATER    **
 OPTICAL AND PHYSICAL CONSTANTS:
 EPS= 78.390; EPSINF=  1.776; RSOLV=  1.385 A; VMOL=  18.070 ML/MOL;
 TCE= .25700E-03 1/K; STEN= 71.810 DYN/CM;  DSTEN=  0.6500; CMF=  1.2770


     -----------------------------------
     INPUT FOR PCM SOLVATION CALCULATION 
     -----------------------------------
     IEF   =     -10
     ICOMP =       2     IFIELD=       0     ICAV  =       1
     IDISP =       1     IREP  =       0     IDP   =       0

     SOLVNT=WATER        EPS   = 78.3900     EPSINF=  1.7760
     VMOL  = 18.0700     TCE   =  0.00025700 STEN  = 71.8100
     DSTEN =  0.6500     CMF   =  1.2770     RSOLV =  1.3850

     NESFP =       0
     OMEGA = 40.0000     RET   =100.0000     FRO   =  0.7000

     TABS  =298.0000     IPRINT=       0

     --------------------------------
     INPUT FOR ITERATIVE C-PCM METHOD 
     --------------------------------
     IPCMIT  =         1     MXDIIS  =        50
     MXITR1  =       200     MXITR2  =       200
     THRES   = 0.100E-09     IMUL    =         3
     RCUT(1) =   20.0000     RCUT(2) =   50.0000

     IDIRCT  =         1
     IMGABI  =         0     RABI    =    4.0000
     IMGASC  =         0     RASC    =   20.0000
     THRSLS  = 0.500E-03     DENSLS  =    0.0100
     IEFPOL  =         1     REFPOL  =    0.0000

     INPUT FOR ISOTROPIC DIELECTRICS
     -------------------------------
     EPS=    78.39

          ----------------
          PROPERTIES INPUT
          ----------------

     MOMENTS            FIELD           POTENTIAL          DENSITY
 IEMOM =       1   IEFLD =       0   IEPOT =       0   IEDEN =       0
 WHERE =COMASS     WHERE =NUCLEI     WHERE =NUCLEI     WHERE =NUCLEI  
 OUTPUT=BOTH       OUTPUT=BOTH       OUTPUT=NONE       OUTPUT=BOTH    
 IEMINT=       0   IEFINT=       0                     IEDINT=       0
                                                       MORB  =       0
          EXTRAPOLATION IN EFFECT
          SOSCF IN EFFECT
 ORBITAL PRINTING OPTION: NPREO=     1 32767     2     1

     -------------------------------
     INTEGRAL TRANSFORMATION OPTIONS
     -------------------------------
     NWORD  =            0
     CUTOFF = 1.0E-10     MPTRAN =       0
     DIRTRF =       T     AOINTS =DUP     

          ----------------------
          INTEGRAL INPUT OPTIONS
          ----------------------
 NOPK  =       1 NORDER=       0 SCHWRZ=       T

 ..... DONE SETTING UP THE RUN .....
 CPU     0: STEP CPU TIME=     0.03 TOTAL CPU TIME=          0.0 (      0.0 MIN)
 TOTAL WALL CLOCK TIME=          0.1 SECONDS, CPU UTILIZATION IS    42.86%
 CPU     0: STEP CPU TIME=     0.00 TOTAL CPU TIME=          0.0 (      0.0 MIN)
 TOTAL WALL CLOCK TIME=          0.1 SECONDS, CPU UTILIZATION IS    42.86%

                    ----------------------
                    AO INTEGRAL TECHNOLOGY
                    ----------------------
     S,P,L SHELL ROTATED AXIS INTEGRALS, REPROGRAMMED BY
        KAZUYA ISHIMURA (IMS) AND JOSE SIERRA (SYNSTAR).
     S,P,D,L SHELL ROTATED AXIS INTEGRALS PROGRAMMED BY
        KAZUYA ISHIMURA (INSTITUTE FOR MOLECULAR SCIENCE).
     S,P,D,F,G SHELL TO TOTAL QUARTET ANGULAR MOMENTUM SUM 5,
        ERIC PROGRAM BY GRAHAM FLETCHER (ELORET AND NASA ADVANCED
        SUPERCOMPUTING DIVISION, AMES RESEARCH CENTER).
     S,P,D,F,G,L SHELL GENERAL RYS QUADRATURE PROGRAMMED BY
        MICHEL DUPUIS (PACIFIC NORTHWEST NATIONAL LABORATORY).
 Setting modorb=1 flag...
 Setting modorb=1 flag...

          -----------------------
          MP2 CONTROL INFORMATION
          -----------------------
          NACORE =        8  NBCORE =        8
          LMOMP2 =        F  AOINTS = DUP     
          METHOD =        2  NWORD  =               0
          MP2PRP =        F  OSPT   = NONE    
          CUTOFF = 1.00E-12  CPHFBS = BASISAO 
          CODE   = IMS     

          NUMBER OF CORE -A-  ORBITALS =     8
          NUMBER OF CORE -B-  ORBITALS =     8
          NUMBER OF OCC. -A-  ORBITALS =    18
          NUMBER OF OCC. -B-  ORBITALS =    18
          NUMBER OF MOLECULAR ORBITALS =    66
          NUMBER OF   BASIS  FUNCTIONS =    66

 CPU     0: STEP CPU TIME=     0.02 TOTAL CPU TIME=          0.0 (      0.0 MIN)
 TOTAL WALL CLOCK TIME=          0.1 SECONDS, CPU UTILIZATION IS    50.00%
 CPU     0: STEP CPU TIME=     0.00 TOTAL CPU TIME=          0.0 (      0.0 MIN)
 TOTAL WALL CLOCK TIME=          0.1 SECONDS, CPU UTILIZATION IS    50.00%

     INPUT FOR CAVITY DEFINITION 
     ---------------------------
   ATOM               COORDINATES                RADIUS       EPS
      1    -11.2440     -4.5740     -2.6540      0.0100     78.3900
      2    -10.6370     -4.8470     -1.9390      1.5900     78.3900
      3    -10.5370     -6.2780     -1.9960      1.7700     78.3900
      4    -10.2200     -6.5770     -3.0210      0.0100     78.3900
      5    -11.5400     -6.7230     -1.8070      0.0100     78.3900
      6     -9.5400     -6.8680     -0.9880      1.7700     78.3900
      7     -9.3030     -7.9190     -1.2610      0.0100     78.3900
      8     -8.2880     -6.1400     -0.9950      1.5900     78.3900
      9     -7.7090     -6.1880      0.2960      1.7700     78.3900
     10     -6.7840     -6.7970      0.1930      0.0100     78.3900
     11     -7.3380     -4.8550      0.7610      1.6800     78.3900
     12     -6.4840     -4.5690      1.7890      1.7700     78.3900
     13     -4.3840     -5.5950      4.3530      1.6800     78.3900
     14     -4.4480     -6.5920      4.3140      0.0100     78.3900
     15     -3.7990     -5.1620      5.0350      0.0100     78.3900
     16     -5.8270     -5.4640      2.5560      1.6800     78.3900
     17     -5.0740     -4.8760      3.4820      1.7700     78.3900
     18     -4.9470     -3.5120      3.5900      1.6800     78.3900
     19     -4.3480     -3.1410      4.3090      0.0100     78.3900
     20     -5.5970     -2.5710      2.7900      1.7700     78.3900
     21     -5.4660     -1.3480      2.8910      1.5900     78.3900
     22     -6.4240     -3.1920      1.8340      1.7700     78.3900
     23     -7.2340     -2.6210      0.8610      1.6800     78.3900
     24     -7.7580     -3.6490      0.2430      1.7700     78.3900
     25     -8.4500     -3.5950     -0.6030      0.0100     78.3900
     26     -8.6750     -6.8870      1.2440      1.7700     78.3900
     27     -8.7810     -6.3460      2.2090      0.0100     78.3900
     28     -8.2500     -8.2110      1.4980      1.5900     78.3900
     29     -8.9570     -8.6300      2.0120      0.0100     78.3900
     30     -9.9950     -6.8590      0.4750      1.7700     78.3900
     31    -10.4870     -5.8690      0.6330      0.0100     78.3900
     32    -10.8580     -7.9940      0.7420      1.5900     78.3900
     33    -12.3260     -7.8100      1.2580      2.1000     78.3900
     34    -13.1360     -8.9390      0.7540      1.5900     78.3900
     35    -12.8120     -6.4470      0.9520      1.5900     78.3900
     36    -12.1800     -7.9430      2.8150      1.5900     78.3900
     37    -12.3360     -9.2240      3.4660      1.7700     78.3900
     38    -12.0660    -10.0730      2.7900      0.0100     78.3900
     39    -13.4090     -9.3700      3.7420      0.0100     78.3900
     40    -11.4460     -9.3630      4.7230      1.7700     78.3900
     41    -11.3640    -10.4430      4.9810      0.0100     78.3900
     42    -10.0820     -8.8660      4.4760      1.5900     78.3900
     43     -9.5870     -8.2680      5.6840      1.7700     78.3900
     44     -8.5940     -8.7350      5.8820      0.0100     78.3900
     45     -9.4280     -6.7800      5.5890      1.6800     78.3900
     46    -10.1140     -6.1070      4.6110      1.7700     78.3900
     47    -10.7000     -6.7200      3.9340      0.0100     78.3900
     48    -10.0510     -4.7810      4.4830      1.7700     78.3900
     49    -10.6010     -4.2440      3.7130      0.0100     78.3900
     50     -8.6350     -6.0580      6.4930      1.7700     78.3900
     51     -8.0100     -6.6660      7.3720      1.5900     78.3900
     52     -8.5610     -4.7000      6.3830      1.6800     78.3900
     53     -9.2460     -4.0700      5.4100      1.7700     78.3900
     54     -9.1910     -2.7480      5.2990      1.6800     78.3900
     55     -8.6970     -2.1950      5.9740      0.0100     78.3900
     56     -9.7250     -2.2580      4.6080      0.0100     78.3900
     57    -10.5680     -8.6610      6.7800      1.7700     78.3900
     58    -10.5730     -7.9460      7.6300      0.0100     78.3900
     59    -10.2790     -9.9680      7.2480      1.5900     78.3900
     60    -11.0420    -10.2660      7.7700      0.0100     78.3900
     61    -11.8850     -8.6240      6.0090      1.7700     78.3900
     62    -12.1150     -7.5670      5.7440      0.0100     78.3900
     63    -12.9810     -9.2960      6.6850      1.5900     78.3900
     64    -14.4610     -8.8120      6.3890      2.1000     78.3900
     65    -15.2480     -9.9740      5.9390      1.5900     78.3900
     66    -14.4480     -7.6440      5.4810      1.5900     78.3900
     67    -15.0860     -8.3400      7.7410      1.5900     78.3900
     68    -15.2170     -9.0950      8.9570      1.7700     78.3900
     69    -14.7720    -10.1160      8.8590      0.0100     78.3900
     70    -16.3010     -9.2280      9.1780      0.0100     78.3900
     71    -14.5660     -8.3950     10.1710      1.7700     78.3900
     72    -14.4870     -9.1100     11.0160      0.0100     78.3900
     73    -13.2070     -7.9690      9.8040      1.5900     78.3900
     74    -12.9670     -6.6560     10.2830      1.7700     78.3900
     75    -11.9680     -6.6870     10.7750      0.0100     78.3900
     76    -12.9980     -5.6350      9.1710      1.6800     78.3900
     77    -14.0040     -5.6140      8.2290      1.7700     78.3900
     78    -14.7860     -6.3390      8.2980      0.0100     78.3900
     79    -12.0300     -4.6580      9.1370      1.7700     78.3900
     80    -11.1440     -4.5930      9.9760      1.5900     78.3900
     81    -12.1270     -3.7700      8.0860      1.6800     78.3900
     82    -11.4800     -3.0020      8.1060      0.0100     78.3900
     83    -13.1060     -3.7230      7.1170      1.7700     78.3900
     84    -13.0680     -2.8880      6.2160      1.5900     78.3900
     85    -14.1020     -4.7200      7.2500      1.7700     78.3900
     86    -14.9230     -4.7550      6.5410      0.0100     78.3900
     87    -14.0200     -6.3930     11.3310      1.7700     78.3900
     88    -14.1780     -5.3020     11.4450      0.0100     78.3900
     89    -13.6730     -6.9750     12.5760      1.5900     78.3900
     90    -13.5800     -7.9350     12.4640      0.0100     78.3900
     91    -15.2200     -7.0950     10.7110      1.7700     78.3900
     92    -15.5530     -6.5380      9.8270      0.0100     78.3900
     93    -16.3270     -7.3330     11.6060      1.5900     78.3900
     94    -17.6480     -6.4640     11.4180      2.1000     78.3900
     95    -17.5670     -5.5940     10.2240      1.5900     78.3900
     96    -18.8170     -7.3700     11.4560      1.5900     78.3900
     97    -17.7010     -5.5140     12.6650      1.5900     78.3900
     98    -16.6050     -4.6910     13.1000      1.7700     78.3900
     99    -15.6390     -4.9770     12.6720      0.0100     78.3900
    100    -16.5160     -4.9120     14.1860      0.0100     78.3900
    101    -16.8460     -3.1750     12.8650      1.7700     78.3900
    102    -17.6060     -3.0190     12.0680      0.0100     78.3900
    103    -17.3920     -2.7410     14.1450      1.5900     78.3900
    104    -16.4610     -1.9040     14.7930      1.7700     78.3900
    105    -17.0740     -1.1870     15.3860      0.0100     78.3900
    106    -15.5480     -2.6020     15.7330      1.6800     78.3900
    107    -15.2710     -2.1690     17.0090      1.7700     78.3900
    108    -15.6130      0.1790     19.5420      1.6800     78.3900
    109    -15.2860      0.3110     20.4790      0.0100     78.3900
    110    -16.1810      0.8800     19.1160      0.0100     78.3900
    111    -15.7480     -1.0490     17.5870      1.6800     78.3900
    112    -15.2860     -0.8850     18.8290      1.7700     78.3900
    113    -14.4790     -1.7970     19.4580      1.6800     78.3900
    114    -14.1950     -1.6160     20.4050      0.0100     78.3900
    115    -14.0140     -2.9820     18.9020      1.7700     78.3900
    116    -13.3100     -3.7670     19.5470      1.5900     78.3900
    117    -14.4350     -3.1240     17.5550      1.7700     78.3900
    118    -14.1410     -4.1120     16.6300      1.6800     78.3900
    119    -14.8000     -3.7540     15.5600      1.7700     78.3900
    120    -14.7450     -4.3040     14.6230      0.0100     78.3900
    121    -15.7600     -1.1620     13.7170      1.7700     78.3900
    122    -14.7620     -0.8260     14.0270      0.0100     78.3900
    123    -16.5980     -0.0790     13.3460      1.5900     78.3900
    124    -17.3620     -0.4450     12.8760      0.0100     78.3900
    125    -15.6180     -2.1850     12.5880      1.7700     78.3900
    126    -14.6900     -2.7810     12.7330      0.0100     78.3900
    127    -15.6180     -1.5870     11.2570      1.5900     78.3900
    128    -14.6440     -0.4340     10.6830      2.1000     78.3900
    129    -13.6530     -1.0770      9.7950      1.5900     78.3900
    130    -15.4620      0.6200     10.0370      1.5900     78.3900
    131    -13.8360      0.2370     11.8700      1.5900     78.3900
    132    -14.1580      1.5710     12.3610      1.7700     78.3900
    133    -15.2410      1.6690     12.5760      0.0100     78.3900
    134    -13.9200      2.3390     11.5920      0.0100     78.3900
    135    -13.4220      1.9600     13.6650      1.7700     78.3900
    136    -13.9130      2.8240     14.1630      0.0100     78.3900
    137    -13.4440      0.8550     14.6060      1.5900     78.3900
    138    -12.1830      0.6510     15.1750      1.7700     78.3900
    139    -12.3490      0.7110     16.2760      0.0100     78.3900
    140    -11.6390     -0.6740     14.8590      1.6800     78.3900
    141    -10.4840     -2.5300     15.0750      1.7700     78.3900
    142    -11.1840     -2.6470     13.8790      1.6800     78.3900
    143    -11.8530     -1.5200     13.7910      1.7700     78.3900
    144    -12.5120     -1.2580     12.9640      0.0100     78.3900
    145     -9.0950     -2.9620     16.9470      1.6800     78.3900
    146     -9.4590     -1.7570     17.3960      1.7700     78.3900
    147     -9.0210     -1.4590     18.3560      0.0100     78.3900
    148    -10.2860     -0.8660     16.8460      1.6800     78.3900
    149    -10.7670     -1.3220     15.6820      1.7700     78.3900
    150     -9.5900     -3.3870     15.7560      1.7700     78.3900
    151     -9.1760     -4.5770     15.2860      1.6800     78.3900
    152     -9.4900     -4.9390     14.4030      0.0100     78.3900
    153     -8.5490     -5.1350     15.8340      0.0100     78.3900
    154    -11.2770      1.7830     14.7500      1.7700     78.3900
    155    -10.2410      1.4390     14.5470      0.0100     78.3900
    156    -11.2470      2.7790     15.7480      1.5900     78.3900
    157    -10.8520      3.5650     15.3440      0.0100     78.3900
    158    -11.9370      2.2890     13.4710      1.7700     78.3900
    159    -11.6210      1.6470     12.6180      0.0100     78.3900
    160    -11.7450      3.7100     13.2370      1.5900     78.3900
    161    -11.0170      4.2500     11.9460      2.1000     78.3900
    162    -11.0500      3.2070     10.9030      1.5900     78.3900
    163    -11.5710      5.5750     11.5950      1.5900     78.3900
    164     -9.5190      4.4550     12.3540      1.5900     78.3900
    165     -8.9150      5.4780     13.1590      1.7700     78.3900
    166     -9.6680      5.9700     13.8140      0.0100     78.3900
    167     -8.4970      6.2630     12.4910      0.0100     78.3900
    168     -7.7480      4.9580     14.0510      1.7700     78.3900
    169     -7.4930      5.7230     14.8140      0.0100     78.3900
    170     -8.1550      3.7370     14.7660      1.5900     78.3900
    171     -7.0860      2.7770     14.7080      1.7700     78.3900
    172     -6.9600      2.3780     15.7400      0.0100     78.3900
    173     -7.3340      1.6340     13.7600      1.6800     78.3900
    174     -8.3160      1.7640     12.8280      1.7700     78.3900
    175     -8.9650      2.5870     12.9880      0.0100     78.3900
    176     -8.5850      0.8340     11.9080      1.7700     78.3900
    177     -9.3830      0.9540     11.1780      0.0100     78.3900
    178     -6.5670      0.4730     13.7730      1.7700     78.3900
    179     -5.6770      0.3480     14.6270      1.5900     78.3900
    180     -6.8500     -0.5210     12.8810      1.6800     78.3900
    181     -7.8220     -0.3500     11.9700      1.7700     78.3900
    182     -8.1040     -1.3220     11.1130      1.6800     78.3900
    183     -7.4960     -2.1130     11.1100      0.0100     78.3900
    184     -8.7850     -1.2000     10.3940      0.0100     78.3900
    185     -5.8510      3.5500     14.3270      1.7700     78.3900
    186     -5.1170      2.8760     13.8530      0.0100     78.3900
    187     -5.2680      4.1870     15.4520      1.5900     78.3900
    188     -4.6290      4.8410     15.1270      0.0100     78.3900
    189     -6.4160      4.5630     13.3380      1.7700     78.3900
    190     -6.6920      4.0680     12.3800      0.0100     78.3900
    191     -5.5680      5.7100     13.1160      1.5900     78.3900
    192     -4.1760      5.6100     12.3500      2.1000     78.3900
    193     -4.3380      6.2630     11.0330      1.5900     78.3900
    194     -3.1160      6.1490     13.2290      1.5900     78.3900
    195     -3.8810      4.0920     12.0860      1.5900     78.3900
    196     -2.8770      3.3600     12.8360      1.7700     78.3900
    197     -3.0390      3.4740     13.9330      0.0100     78.3900
    198     -1.8600      3.7540     12.6160      0.0100     78.3900
    199     -2.8920      1.8460     12.5220      1.7700     78.3900
    200     -2.6340      1.2480     13.4240      0.0100     78.3900
    201     -4.1970      1.4120     12.0760      1.5900     78.3900
    202     -4.0700      0.2430     11.3130      1.7700     78.3900
    203     -4.2680     -0.5990     12.0150      0.0100     78.3900
    204     -5.0480      0.2060     10.2270      1.6800     78.3900
    205     -5.5760     -0.8880      9.5750      1.7700     78.3900
    206     -5.9500     -4.3300      9.1550      1.6800     78.3900
    207     -6.5200     -4.9500      8.6230      0.0100     78.3900
    208     -5.3300     -4.7080      9.8420      0.0100     78.3900
    209     -5.3140     -2.1960      9.8250      1.6800     78.3900
    210     -6.0430     -3.0140      9.0580      1.7700     78.3900
    211     -6.9680     -2.5710      8.1490      1.6800     78.3900
    212     -7.4780     -3.2570      7.6230      0.0100     78.3900
    213     -7.2540     -1.2360      7.8820      1.7700     78.3900
    214     -8.1070     -0.9120      7.0530      1.5900     78.3900
    215     -6.4710     -0.3560      8.6630      1.7700     78.3900
    216     -6.4920      1.0350      8.7270      1.6800     78.3900
    217     -5.6370      1.3190      9.6750      1.7700     78.3900
    218     -5.3880      2.3260     10.0280      0.0100     78.3900
    219     -2.6590      0.1800     10.7940      1.7700     78.3900
    220     -2.6050      0.2340      9.6850      0.0100     78.3900
    221     -2.0840     -1.0230     11.2470      1.5900     78.3900
    222     -1.3490     -1.1910     10.6300      0.0100     78.3900
    223     -1.9610      1.4150     11.3970      1.7700     78.3900
    224     -2.0040      2.2610     10.6720      0.0100     78.3900
    225     -0.6180      1.1990     11.8990      1.5900     78.3900
    226      0.6100      1.2390     10.9130      2.1000     78.3900
    227      0.5700      2.5080     10.1500      1.5900     78.3900
    228      1.8390      0.9920     11.6980      1.5900     78.3900
    229      0.4230      0.0430      9.9060      1.5900     78.3900
    230      0.8190     -1.3140     10.2420      1.7700     78.3900
    231      0.5580     -1.5610     11.3010      0.0100     78.3900
    232      1.9230     -1.4270     10.1440      0.0100     78.3900
    233      0.1430     -2.3710      9.3350      1.7700     78.3900
    234     -0.0280     -3.3150      9.8960      0.0100     78.3900
    235     -1.1460     -1.8980      8.9050      1.5900     78.3900
    236     -1.4960     -2.4500      7.6780      1.7700     78.3900
    237     -2.2190     -3.2520      7.9520      0.0100     78.3900
    238     -2.1750     -1.4760      6.8000      1.6800     78.3900
    239     -1.9820     -0.1150      6.9340      1.7700     78.3900
    240     -1.3030      0.2040      7.7280      0.0100     78.3900
    241     -2.6250      0.7560      6.1300      1.7700     78.3900
    242     -2.5130      1.8320      6.2220      0.0100     78.3900
    243     -3.0100     -1.9700      5.8150      1.7700     78.3900
    244     -3.1570     -3.1960      5.6940      1.5900     78.3900
    245     -3.6410     -1.1120      5.0000      1.6800     78.3900
    246     -3.4780      0.2110      5.1280      1.7700     78.3900
    247     -4.1350      1.0070      4.2820      1.6800     78.3900
    248     -4.7160      0.5510      3.6070      0.0100     78.3900
    249     -4.0740      2.0040      4.3030      0.0100     78.3900
    250     -0.2600     -3.0770      7.0490      1.7700     78.3900
    251     -0.0230     -2.6210      6.0590      0.0100     78.3900
    252     -0.4400     -4.4750      6.8900      1.5900     78.3900
    253     -0.5190     -4.8860      7.7660      0.0100     78.3900
    254      0.8660     -2.7220      8.0410      1.7700     78.3900
    255      1.3830     -1.7960      7.7050      0.0100     78.3900
    256      1.8180     -3.7740      8.2790      1.5900     78.3900
    257      2.1570     -4.0900      7.4250      0.0100     78.3900

     ----------------------------
     INPUT FOR TESSERA DEFINITION
     ----------------------------
     NTSALL  =        60     MTHALL  =         4
     MTHAUT  =         0     AUTFRE  =    2.0000
     NTSFRZ  =        60     KEEPSM  =         0
     AREAKP  =   10.0000     BONDRY  =    1.0000
     AREATL  =    0.0100

     SPHERE     INITS       METHOD
          1        60       FIXPVA
          2        60       FIXPVA
          3        60       FIXPVA
          4        60       FIXPVA
          5        60       FIXPVA
          6        60       FIXPVA
          7        60       FIXPVA
          8        60       FIXPVA
          9        60       FIXPVA
         10        60       FIXPVA
         11        60       FIXPVA
         12        60       FIXPVA
         13        60       FIXPVA
         14        60       FIXPVA
         15        60       FIXPVA
         16        60       FIXPVA
         17        60       FIXPVA
         18        60       FIXPVA
         19        60       FIXPVA
         20        60       FIXPVA
         21        60       FIXPVA
         22        60       FIXPVA
         23        60       FIXPVA
         24        60       FIXPVA
         25        60       FIXPVA
         26        60       FIXPVA
         27        60       FIXPVA
         28        60       FIXPVA
         29        60       FIXPVA
         30        60       FIXPVA
         31        60       FIXPVA
         32        60       FIXPVA
         33        60       FIXPVA
         34        60       FIXPVA
         35        60       FIXPVA
         36        60       FIXPVA
         37        60       FIXPVA
         38        60       FIXPVA
         39        60       FIXPVA
         40        60       FIXPVA
         41        60       FIXPVA
         42        60       FIXPVA
         43        60       FIXPVA
         44        60       FIXPVA
         45        60       FIXPVA
         46        60       FIXPVA
         47        60       FIXPVA
         48        60       FIXPVA
         49        60       FIXPVA
         50        60       FIXPVA
         51        60       FIXPVA
         52        60       FIXPVA
         53        60       FIXPVA
         54        60       FIXPVA
         55        60       FIXPVA
         56        60       FIXPVA
         57        60       FIXPVA
         58        60       FIXPVA
         59        60       FIXPVA
         60        60       FIXPVA
         61        60       FIXPVA
         62        60       FIXPVA
         63        60       FIXPVA
         64        60       FIXPVA
         65        60       FIXPVA
         66        60       FIXPVA
         67        60       FIXPVA
         68        60       FIXPVA
         69        60       FIXPVA
         70        60       FIXPVA
         71        60       FIXPVA
         72        60       FIXPVA
         73        60       FIXPVA
         74        60       FIXPVA
         75        60       FIXPVA
         76        60       FIXPVA
         77        60       FIXPVA
         78        60       FIXPVA
         79        60       FIXPVA
         80        60       FIXPVA
         81        60       FIXPVA
         82        60       FIXPVA
         83        60       FIXPVA
         84        60       FIXPVA
         85        60       FIXPVA
         86        60       FIXPVA
         87        60       FIXPVA
         88        60       FIXPVA
         89        60       FIXPVA
         90        60       FIXPVA
         91        60       FIXPVA
         92        60       FIXPVA
         93        60       FIXPVA
         94        60       FIXPVA
         95        60       FIXPVA
         96        60       FIXPVA
         97        60       FIXPVA
         98        60       FIXPVA
         99        60       FIXPVA
        100        60       FIXPVA
        101        60       FIXPVA
        102        60       FIXPVA
        103        60       FIXPVA
        104        60       FIXPVA
        105        60       FIXPVA
        106        60       FIXPVA
        107        60       FIXPVA
        108        60       FIXPVA
        109        60       FIXPVA
        110        60       FIXPVA
        111        60       FIXPVA
        112        60       FIXPVA
        113        60       FIXPVA
        114        60       FIXPVA
        115        60       FIXPVA
        116        60       FIXPVA
        117        60       FIXPVA
        118        60       FIXPVA
        119        60       FIXPVA
        120        60       FIXPVA
        121        60       FIXPVA
        122        60       FIXPVA
        123        60       FIXPVA
        124        60       FIXPVA
        125        60       FIXPVA
        126        60       FIXPVA
        127        60       FIXPVA
        128        60       FIXPVA
        129        60       FIXPVA
        130        60       FIXPVA
        131        60       FIXPVA
        132        60       FIXPVA
        133        60       FIXPVA
        134        60       FIXPVA
        135        60       FIXPVA
        136        60       FIXPVA
        137        60       FIXPVA
        138        60       FIXPVA
        139        60       FIXPVA
        140        60       FIXPVA
        141        60       FIXPVA
        142        60       FIXPVA
        143        60       FIXPVA
        144        60       FIXPVA
        145        60       FIXPVA
        146        60       FIXPVA
        147        60       FIXPVA
        148        60       FIXPVA
        149        60       FIXPVA
        150        60       FIXPVA
        151        60       FIXPVA
        152        60       FIXPVA
        153        60       FIXPVA
        154        60       FIXPVA
        155        60       FIXPVA
        156        60       FIXPVA
        157        60       FIXPVA
        158        60       FIXPVA
        159        60       FIXPVA
        160        60       FIXPVA
        161        60       FIXPVA
        162        60       FIXPVA
        163        60       FIXPVA
        164        60       FIXPVA
        165        60       FIXPVA
        166        60       FIXPVA
        167        60       FIXPVA
        168        60       FIXPVA
        169        60       FIXPVA
        170        60       FIXPVA
        171        60       FIXPVA
        172        60       FIXPVA
        173        60       FIXPVA
        174        60       FIXPVA
        175        60       FIXPVA
        176        60       FIXPVA
        177        60       FIXPVA
        178        60       FIXPVA
        179        60       FIXPVA
        180        60       FIXPVA
        181        60       FIXPVA
        182        60       FIXPVA
        183        60       FIXPVA
        184        60       FIXPVA
        185        60       FIXPVA
        186        60       FIXPVA
        187        60       FIXPVA
        188        60       FIXPVA
        189        60       FIXPVA
        190        60       FIXPVA
        191        60       FIXPVA
        192        60       FIXPVA
        193        60       FIXPVA
        194        60       FIXPVA
        195        60       FIXPVA
        196        60       FIXPVA
        197        60       FIXPVA
        198        60       FIXPVA
        199        60       FIXPVA
        200        60       FIXPVA
        201        60       FIXPVA
        202        60       FIXPVA
        203        60       FIXPVA
        204        60       FIXPVA
        205        60       FIXPVA
        206        60       FIXPVA
        207        60       FIXPVA
        208        60       FIXPVA
        209        60       FIXPVA
        210        60       FIXPVA
        211        60       FIXPVA
        212        60       FIXPVA
        213        60       FIXPVA
        214        60       FIXPVA
        215        60       FIXPVA
        216        60       FIXPVA
        217        60       FIXPVA
        218        60       FIXPVA
        219        60       FIXPVA
        220        60       FIXPVA
        221        60       FIXPVA
        222        60       FIXPVA
        223        60       FIXPVA
        224        60       FIXPVA
        225        60       FIXPVA
        226        60       FIXPVA
        227        60       FIXPVA
        228        60       FIXPVA
        229        60       FIXPVA
        230        60       FIXPVA
        231        60       FIXPVA
        232        60       FIXPVA
        233        60       FIXPVA
        234        60       FIXPVA
        235        60       FIXPVA
        236        60       FIXPVA
        237        60       FIXPVA
        238        60       FIXPVA
        239        60       FIXPVA
        240        60       FIXPVA
        241        60       FIXPVA
        242        60       FIXPVA
        243        60       FIXPVA
        244        60       FIXPVA
        245        60       FIXPVA
        246        60       FIXPVA
        247        60       FIXPVA
        248        60       FIXPVA
        249        60       FIXPVA
        250        60       FIXPVA
        251        60       FIXPVA
        252        60       FIXPVA
        253        60       FIXPVA
        254        60       FIXPVA
        255        60       FIXPVA
        256        60       FIXPVA
        257        60       FIXPVA

     ------------------------------
      FIXPVA TESSELLATION FOR PCM
         PEIFENG SU AND HUI LI
     UNIVERSITY OF NEBRASKA-LINCOLN
     ------------------------------


 PCM DIMENSIONS: MXSP=   257, MXTS=     10280, MEMORY=        105630

     INPUT FOR CAVITY DEFINITION 
     ---------------------------
   ATOM               COORDINATES                RADIUS       EPS
      1    -11.2440     -4.5740     -2.6540      0.0100     78.3900
      2    -10.6370     -4.8470     -1.9390      1.5900     78.3900
      3    -10.5370     -6.2780     -1.9960      1.7700     78.3900
      4    -10.2200     -6.5770     -3.0210      0.0100     78.3900
      5    -11.5400     -6.7230     -1.8070      0.0100     78.3900
      6     -9.5400     -6.8680     -0.9880      1.7700     78.3900
      7     -9.3030     -7.9190     -1.2610      0.0100     78.3900
      8     -8.2880     -6.1400     -0.9950      1.5900     78.3900
      9     -7.7090     -6.1880      0.2960      1.7700     78.3900
     10     -6.7840     -6.7970      0.1930      0.0100     78.3900
     11     -7.3380     -4.8550      0.7610      1.6800     78.3900
     12     -6.4840     -4.5690      1.7890      1.7700     78.3900
     13     -4.3840     -5.5950      4.3530      1.6800     78.3900
     14     -4.4480     -6.5920      4.3140      0.0100     78.3900
     15     -3.7990     -5.1620      5.0350      0.0100     78.3900
     16     -5.8270     -5.4640      2.5560      1.6800     78.3900
     17     -5.0740     -4.8760      3.4820      1.7700     78.3900
     18     -4.9470     -3.5120      3.5900      1.6800     78.3900
     19     -4.3480     -3.1410      4.3090      0.0100     78.3900
     20     -5.5970     -2.5710      2.7900      1.7700     78.3900
     21     -5.4660     -1.3480      2.8910      1.5900     78.3900
     22     -6.4240     -3.1920      1.8340      1.7700     78.3900
     23     -7.2340     -2.6210      0.8610      1.6800     78.3900
     24     -7.7580     -3.6490      0.2430      1.7700     78.3900
     25     -8.4500     -3.5950     -0.6030      0.0100     78.3900
     26     -8.6750     -6.8870      1.2440      1.7700     78.3900
     27     -8.7810     -6.3460      2.2090      0.0100     78.3900
     28     -8.2500     -8.2110      1.4980      1.5900     78.3900
     29     -8.9570     -8.6300      2.0120      0.0100     78.3900
     30     -9.9950     -6.8590      0.4750      1.7700     78.3900
     31    -10.4870     -5.8690      0.6330      0.0100     78.3900
     32    -10.8580     -7.9940      0.7420      1.5900     78.3900
     33    -12.3260     -7.8100      1.2580      2.1000     78.3900
     34    -13.1360     -8.9390      0.7540      1.5900     78.3900
     35    -12.8120     -6.4470      0.9520      1.5900     78.3900
     36    -12.1800     -7.9430      2.8150      1.5900     78.3900
     37    -12.3360     -9.2240      3.4660      1.7700     78.3900
     38    -12.0660    -10.0730      2.7900      0.0100     78.3900
     39    -13.4090     -9.3700      3.7420      0.0100     78.3900
     40    -11.4460     -9.3630      4.7230      1.7700     78.3900
     41    -11.3640    -10.4430      4.9810      0.0100     78.3900
     42    -10.0820     -8.8660      4.4760      1.5900     78.3900
     43     -9.5870     -8.2680      5.6840      1.7700     78.3900
     44     -8.5940     -8.7350      5.8820      0.0100     78.3900
     45     -9.4280     -6.7800      5.5890      1.6800     78.3900
     46    -10.1140     -6.1070      4.6110      1.7700     78.3900
     47    -10.7000     -6.7200      3.9340      0.0100     78.3900
     48    -10.0510     -4.7810      4.4830      1.7700     78.3900
     49    -10.6010     -4.2440      3.7130      0.0100     78.3900
     50     -8.6350     -6.0580      6.4930      1.7700     78.3900
     51     -8.0100     -6.6660      7.3720      1.5900     78.3900
     52     -8.5610     -4.7000      6.3830      1.6800     78.3900
     53     -9.2460     -4.0700      5.4100      1.7700     78.3900
     54     -9.1910     -2.7480      5.2990      1.6800     78.3900
     55     -8.6970     -2.1950      5.9740      0.0100     78.3900
     56     -9.7250     -2.2580      4.6080      0.0100     78.3900
     57    -10.5680     -8.6610      6.7800      1.7700     78.3900
     58    -10.5730     -7.9460      7.6300      0.0100     78.3900
     59    -10.2790     -9.9680      7.2480      1.5900     78.3900
     60    -11.0420    -10.2660      7.7700      0.0100     78.3900
     61    -11.8850     -8.6240      6.0090      1.7700     78.3900
     62    -12.1150     -7.5670      5.7440      0.0100     78.3900
     63    -12.9810     -9.2960      6.6850      1.5900     78.3900
     64    -14.4610     -8.8120      6.3890      2.1000     78.3900
     65    -15.2480     -9.9740      5.9390      1.5900     78.3900
     66    -14.4480     -7.6440      5.4810      1.5900     78.3900
     67    -15.0860     -8.3400      7.7410      1.5900     78.3900
     68    -15.2170     -9.0950      8.9570      1.7700     78.3900
     69    -14.7720    -10.1160      8.8590      0.0100     78.3900
     70    -16.3010     -9.2280      9.1780      0.0100     78.3900
     71    -14.5660     -8.3950     10.1710      1.7700     78.3900
     72    -14.4870     -9.1100     11.0160      0.0100     78.3900
     73    -13.2070     -7.9690      9.8040      1.5900     78.3900
     74    -12.9670     -6.6560     10.2830      1.7700     78.3900
     75    -11.9680     -6.6870     10.7750      0.0100     78.3900
     76    -12.9980     -5.6350      9.1710      1.6800     78.3900
     77    -14.0040     -5.6140      8.2290      1.7700     78.3900
     78    -14.7860     -6.3390      8.2980      0.0100     78.3900
     79    -12.0300     -4.6580      9.1370      1.7700     78.3900
     80    -11.1440     -4.5930      9.9760      1.5900     78.3900
     81    -12.1270     -3.7700      8.0860      1.6800     78.3900
     82    -11.4800     -3.0020      8.1060      0.0100     78.3900
     83    -13.1060     -3.7230      7.1170      1.7700     78.3900
     84    -13.0680     -2.8880      6.2160      1.5900     78.3900
     85    -14.1020     -4.7200      7.2500      1.7700     78.3900
     86    -14.9230     -4.7550      6.5410      0.0100     78.3900
     87    -14.0200     -6.3930     11.3310      1.7700     78.3900
     88    -14.1780     -5.3020     11.4450      0.0100     78.3900
     89    -13.6730     -6.9750     12.5760      1.5900     78.3900
     90    -13.5800     -7.9350     12.4640      0.0100     78.3900
     91    -15.2200     -7.0950     10.7110      1.7700     78.3900
     92    -15.5530     -6.5380      9.8270      0.0100     78.3900
     93    -16.3270     -7.3330     11.6060      1.5900     78.3900
     94    -17.6480     -6.4640     11.4180      2.1000     78.3900
     95    -17.5670     -5.5940     10.2240      1.5900     78.3900
     96    -18.8170     -7.3700     11.4560      1.5900     78.3900
     97    -17.7010     -5.5140     12.6650      1.5900     78.3900
     98    -16.6050     -4.6910     13.1000      1.7700     78.3900
     99    -15.6390     -4.9770     12.6720      0.0100     78.3900
    100    -16.5160     -4.9120     14.1860      0.0100     78.3900
    101    -16.8460     -3.1750     12.8650      1.7700     78.3900
    102    -17.6060     -3.0190     12.0680      0.0100     78.3900
    103    -17.3920     -2.7410     14.1450      1.5900     78.3900
    104    -16.4610     -1.9040     14.7930      1.7700     78.3900
    105    -17.0740     -1.1870     15.3860      0.0100     78.3900
    106    -15.5480     -2.6020     15.7330      1.6800     78.3900
    107    -15.2710     -2.1690     17.0090      1.7700     78.3900
    108    -15.6130      0.1790     19.5420      1.6800     78.3900
    109    -15.2860      0.3110     20.4790      0.0100     78.3900
    110    -16.1810      0.8800     19.1160      0.0100     78.3900
    111    -15.7480     -1.0490     17.5870      1.6800     78.3900
    112    -15.2860     -0.8850     18.8290      1.7700     78.3900
    113    -14.4790     -1.7970     19.4580      1.6800     78.3900
    114    -14.1950     -1.6160     20.4050      0.0100     78.3900
    115    -14.0140     -2.9820     18.9020      1.7700     78.3900
    116    -13.3100     -3.7670     19.5470      1.5900     78.3900
    117    -14.4350     -3.1240     17.5550      1.7700     78.3900
    118    -14.1410     -4.1120     16.6300      1.6800     78.3900
    119    -14.8000     -3.7540     15.5600      1.7700     78.3900
    120    -14.7450     -4.3040     14.6230      0.0100     78.3900
    121    -15.7600     -1.1620     13.7170      1.7700     78.3900
    122    -14.7620     -0.8260     14.0270      0.0100     78.3900
    123    -16.5980     -0.0790     13.3460      1.5900     78.3900
    124    -17.3620     -0.4450     12.8760      0.0100     78.3900
    125    -15.6180     -2.1850     12.5880      1.7700     78.3900
    126    -14.6900     -2.7810     12.7330      0.0100     78.3900
    127    -15.6180     -1.5870     11.2570      1.5900     78.3900
    128    -14.6440     -0.4340     10.6830      2.1000     78.3900
    129    -13.6530     -1.0770      9.7950      1.5900     78.3900
    130    -15.4620      0.6200     10.0370      1.5900     78.3900
    131    -13.8360      0.2370     11.8700      1.5900     78.3900
    132    -14.1580      1.5710     12.3610      1.7700     78.3900
    133    -15.2410      1.6690     12.5760      0.0100     78.3900
    134    -13.9200      2.3390     11.5920      0.0100     78.3900
    135    -13.4220      1.9600     13.6650      1.7700     78.3900
    136    -13.9130      2.8240     14.1630      0.0100     78.3900
    137    -13.4440      0.8550     14.6060      1.5900     78.3900
    138    -12.1830      0.6510     15.1750      1.7700     78.3900
    139    -12.3490      0.7110     16.2760      0.0100     78.3900
    140    -11.6390     -0.6740     14.8590      1.6800     78.3900
    141    -10.4840     -2.5300     15.0750      1.7700     78.3900
    142    -11.1840     -2.6470     13.8790      1.6800     78.3900
    143    -11.8530     -1.5200     13.7910      1.7700     78.3900
    144    -12.5120     -1.2580     12.9640      0.0100     78.3900
    145     -9.0950     -2.9620     16.9470      1.6800     78.3900
    146     -9.4590     -1.7570     17.3960      1.7700     78.3900
    147     -9.0210     -1.4590     18.3560      0.0100     78.3900
    148    -10.2860     -0.8660     16.8460      1.6800     78.3900
    149    -10.7670     -1.3220     15.6820      1.7700     78.3900
    150     -9.5900     -3.3870     15.7560      1.7700     78.3900
    151     -9.1760     -4.5770     15.2860      1.6800     78.3900
    152     -9.4900     -4.9390     14.4030      0.0100     78.3900
    153     -8.5490     -5.1350     15.8340      0.0100     78.3900
    154    -11.2770      1.7830     14.7500      1.7700     78.3900
    155    -10.2410      1.4390     14.5470      0.0100     78.3900
    156    -11.2470      2.7790     15.7480      1.5900     78.3900
    157    -10.8520      3.5650     15.3440      0.0100     78.3900
    158    -11.9370      2.2890     13.4710      1.7700     78.3900
    159    -11.6210      1.6470     12.6180      0.0100     78.3900
    160    -11.7450      3.7100     13.2370      1.5900     78.3900
    161    -11.0170      4.2500     11.9460      2.1000     78.3900
    162    -11.0500      3.2070     10.9030      1.5900     78.3900
    163    -11.5710      5.5750     11.5950      1.5900     78.3900
    164     -9.5190      4.4550     12.3540      1.5900     78.3900
    165     -8.9150      5.4780     13.1590      1.7700     78.3900
    166     -9.6680      5.9700     13.8140      0.0100     78.3900
    167     -8.4970      6.2630     12.4910      0.0100     78.3900
    168     -7.7480      4.9580     14.0510      1.7700     78.3900
    169     -7.4930      5.7230     14.8140      0.0100     78.3900
    170     -8.1550      3.7370     14.7660      1.5900     78.3900
    171     -7.0860      2.7770     14.7080      1.7700     78.3900
    172     -6.9600      2.3780     15.7400      0.0100     78.3900
    173     -7.3340      1.6340     13.7600      1.6800     78.3900
    174     -8.3160      1.7640     12.8280      1.7700     78.3900
    175     -8.9650      2.5870     12.9880      0.0100     78.3900
    176     -8.5850      0.8340     11.9080      1.7700     78.3900
    177     -9.3830      0.9540     11.1780      0.0100     78.3900
    178     -6.5670      0.4730     13.7730      1.7700     78.3900
    179     -5.6770      0.3480     14.6270      1.5900     78.3900
    180     -6.8500     -0.5210     12.8810      1.6800     78.3900
    181     -7.8220     -0.3500     11.9700      1.7700     78.3900
    182     -8.1040     -1.3220     11.1130      1.6800     78.3900
    183     -7.4960     -2.1130     11.1100      0.0100     78.3900
    184     -8.7850     -1.2000     10.3940      0.0100     78.3900
    185     -5.8510      3.5500     14.3270      1.7700     78.3900
    186     -5.1170      2.8760     13.8530      0.0100     78.3900
    187     -5.2680      4.1870     15.4520      1.5900     78.3900
    188     -4.6290      4.8410     15.1270      0.0100     78.3900
    189     -6.4160      4.5630     13.3380      1.7700     78.3900
    190     -6.6920      4.0680     12.3800      0.0100     78.3900
    191     -5.5680      5.7100     13.1160      1.5900     78.3900
    192     -4.1760      5.6100     12.3500      2.1000     78.3900
    193     -4.3380      6.2630     11.0330      1.5900     78.3900
    194     -3.1160      6.1490     13.2290      1.5900     78.3900
    195     -3.8810      4.0920     12.0860      1.5900     78.3900
    196     -2.8770      3.3600     12.8360      1.7700     78.3900
    197     -3.0390      3.4740     13.9330      0.0100     78.3900
    198     -1.8600      3.7540     12.6160      0.0100     78.3900
    199     -2.8920      1.8460     12.5220      1.7700     78.3900
    200     -2.6340      1.2480     13.4240      0.0100     78.3900
    201     -4.1970      1.4120     12.0760      1.5900     78.3900
    202     -4.0700      0.2430     11.3130      1.7700     78.3900
    203     -4.2680     -0.5990     12.0150      0.0100     78.3900
    204     -5.0480      0.2060     10.2270      1.6800     78.3900
    205     -5.5760     -0.8880      9.5750      1.7700     78.3900
    206     -5.9500     -4.3300      9.1550      1.6800     78.3900
    207     -6.5200     -4.9500      8.6230      0.0100     78.3900
    208     -5.3300     -4.7080      9.8420      0.0100     78.3900
    209     -5.3140     -2.1960      9.8250      1.6800     78.3900
    210     -6.0430     -3.0140      9.0580      1.7700     78.3900
    211     -6.9680     -2.5710      8.1490      1.6800     78.3900
    212     -7.4780     -3.2570      7.6230      0.0100     78.3900
    213     -7.2540     -1.2360      7.8820      1.7700     78.3900
    214     -8.1070     -0.9120      7.0530      1.5900     78.3900
    215     -6.4710     -0.3560      8.6630      1.7700     78.3900
    216     -6.4920      1.0350      8.7270      1.6800     78.3900
    217     -5.6370      1.3190      9.6750      1.7700     78.3900
    218     -5.3880      2.3260     10.0280      0.0100     78.3900
    219     -2.6590      0.1800     10.7940      1.7700     78.3900
    220     -2.6050      0.2340      9.6850      0.0100     78.3900
    221     -2.0840     -1.0230     11.2470      1.5900     78.3900
    222     -1.3490     -1.1910     10.6300      0.0100     78.3900
    223     -1.9610      1.4150     11.3970      1.7700     78.3900
    224     -2.0040      2.2610     10.6720      0.0100     78.3900
    225     -0.6180      1.1990     11.8990      1.5900     78.3900
    226      0.6100      1.2390     10.9130      2.1000     78.3900
    227      0.5700      2.5080     10.1500      1.5900     78.3900
    228      1.8390      0.9920     11.6980      1.5900     78.3900
    229      0.4230      0.0430      9.9060      1.5900     78.3900
    230      0.8190     -1.3140     10.2420      1.7700     78.3900
    231      0.5580     -1.5610     11.3010      0.0100     78.3900
    232      1.9230     -1.4270     10.1440      0.0100     78.3900
    233      0.1430     -2.3710      9.3350      1.7700     78.3900
    234     -0.0280     -3.3150      9.8960      0.0100     78.3900
    235     -1.1460     -1.8980      8.9050      1.5900     78.3900
    236     -1.4960     -2.4500      7.6780      1.7700     78.3900
    237     -2.2190     -3.2520      7.9520      0.0100     78.3900
    238     -2.1750     -1.4760      6.8000      1.6800     78.3900
    239     -1.9820     -0.1150      6.9340      1.7700     78.3900
    240     -1.3030      0.2040      7.7280      0.0100     78.3900
    241     -2.6250      0.7560      6.1300      1.7700     78.3900
    242     -2.5130      1.8320      6.2220      0.0100     78.3900
    243     -3.0100     -1.9700      5.8150      1.7700     78.3900
    244     -3.1570     -3.1960      5.6940      1.5900     78.3900
    245     -3.6410     -1.1120      5.0000      1.6800     78.3900
    246     -3.4780      0.2110      5.1280      1.7700     78.3900
    247     -4.1350      1.0070      4.2820      1.6800     78.3900
    248     -4.7160      0.5510      3.6070      0.0100     78.3900
    249     -4.0740      2.0040      4.3030      0.0100     78.3900
    250     -0.2600     -3.0770      7.0490      1.7700     78.3900
    251     -0.0230     -2.6210      6.0590      0.0100     78.3900
    252     -0.4400     -4.4750      6.8900      1.5900     78.3900
    253     -0.5190     -4.8860      7.7660      0.0100     78.3900
    254      0.8660     -2.7220      8.0410      1.7700     78.3900
    255      1.3830     -1.7960      7.7050      0.0100     78.3900
    256      1.8180     -3.7740      8.2790      1.5900     78.3900
    257      2.1570     -4.0900      7.4250      0.0100     78.3900

 CREATION OF A NEW CAVITY WITH THE ORIGINAL SPHERE
 SIZES FOR THE COMPUTATION OF THE CAVITATION ENERGY.

     INPUT FOR CAVITY DEFINITION 
     ---------------------------
   ATOM               COORDINATES                RADIUS       EPS
      1    -11.2440     -4.5740     -2.6540      0.0100     78.3900
      2    -10.6370     -4.8470     -1.9390      1.5900     78.3900
      3    -10.5370     -6.2780     -1.9960      1.7700     78.3900
      4    -10.2200     -6.5770     -3.0210      0.0100     78.3900
      5    -11.5400     -6.7230     -1.8070      0.0100     78.3900
      6     -9.5400     -6.8680     -0.9880      1.7700     78.3900
      7     -9.3030     -7.9190     -1.2610      0.0100     78.3900
      8     -8.2880     -6.1400     -0.9950      1.5900     78.3900
      9     -7.7090     -6.1880      0.2960      1.7700     78.3900
     10     -6.7840     -6.7970      0.1930      0.0100     78.3900
     11     -7.3380     -4.8550      0.7610      1.6800     78.3900
     12     -6.4840     -4.5690      1.7890      1.7700     78.3900
     13     -4.3840     -5.5950      4.3530      1.6800     78.3900
     14     -4.4480     -6.5920      4.3140      0.0100     78.3900
     15     -3.7990     -5.1620      5.0350      0.0100     78.3900
     16     -5.8270     -5.4640      2.5560      1.6800     78.3900
     17     -5.0740     -4.8760      3.4820      1.7700     78.3900
     18     -4.9470     -3.5120      3.5900      1.6800     78.3900
     19     -4.3480     -3.1410      4.3090      0.0100     78.3900
     20     -5.5970     -2.5710      2.7900      1.7700     78.3900
     21     -5.4660     -1.3480      2.8910      1.5900     78.3900
     22     -6.4240     -3.1920      1.8340      1.7700     78.3900
     23     -7.2340     -2.6210      0.8610      1.6800     78.3900
     24     -7.7580     -3.6490      0.2430      1.7700     78.3900
     25     -8.4500     -3.5950     -0.6030      0.0100     78.3900
     26     -8.6750     -6.8870      1.2440      1.7700     78.3900
     27     -8.7810     -6.3460      2.2090      0.0100     78.3900
     28     -8.2500     -8.2110      1.4980      1.5900     78.3900
     29     -8.9570     -8.6300      2.0120      0.0100     78.3900
     30     -9.9950     -6.8590      0.4750      1.7700     78.3900
     31    -10.4870     -5.8690      0.6330      0.0100     78.3900
     32    -10.8580     -7.9940      0.7420      1.5900     78.3900
     33    -12.3260     -7.8100      1.2580      2.1000     78.3900
     34    -13.1360     -8.9390      0.7540      1.5900     78.3900
     35    -12.8120     -6.4470      0.9520      1.5900     78.3900
     36    -12.1800     -7.9430      2.8150      1.5900     78.3900
     37    -12.3360     -9.2240      3.4660      1.7700     78.3900
     38    -12.0660    -10.0730      2.7900      0.0100     78.3900
     39    -13.4090     -9.3700      3.7420      0.0100     78.3900
     40    -11.4460     -9.3630      4.7230      1.7700     78.3900
     41    -11.3640    -10.4430      4.9810      0.0100     78.3900
     42    -10.0820     -8.8660      4.4760      1.5900     78.3900
     43     -9.5870     -8.2680      5.6840      1.7700     78.3900
     44     -8.5940     -8.7350      5.8820      0.0100     78.3900
     45     -9.4280     -6.7800      5.5890      1.6800     78.3900
     46    -10.1140     -6.1070      4.6110      1.7700     78.3900
     47    -10.7000     -6.7200      3.9340      0.0100     78.3900
     48    -10.0510     -4.7810      4.4830      1.7700     78.3900
     49    -10.6010     -4.2440      3.7130      0.0100     78.3900
     50     -8.6350     -6.0580      6.4930      1.7700     78.3900
     51     -8.0100     -6.6660      7.3720      1.5900     78.3900
     52     -8.5610     -4.7000      6.3830      1.6800     78.3900
     53     -9.2460     -4.0700      5.4100      1.7700     78.3900
     54     -9.1910     -2.7480      5.2990      1.6800     78.3900
     55     -8.6970     -2.1950      5.9740      0.0100     78.3900
     56     -9.7250     -2.2580      4.6080      0.0100     78.3900
     57    -10.5680     -8.6610      6.7800      1.7700     78.3900
     58    -10.5730     -7.9460      7.6300      0.0100     78.3900
     59    -10.2790     -9.9680      7.2480      1.5900     78.3900
     60    -11.0420    -10.2660      7.7700      0.0100     78.3900
     61    -11.8850     -8.6240      6.0090      1.7700     78.3900
     62    -12.1150     -7.5670      5.7440      0.0100     78.3900
     63    -12.9810     -9.2960      6.6850      1.5900     78.3900
     64    -14.4610     -8.8120      6.3890      2.1000     78.3900
     65    -15.2480     -9.9740      5.9390      1.5900     78.3900
     66    -14.4480     -7.6440      5.4810      1.5900     78.3900
     67    -15.0860     -8.3400      7.7410      1.5900     78.3900
     68    -15.2170     -9.0950      8.9570      1.7700     78.3900
     69    -14.7720    -10.1160      8.8590      0.0100     78.3900
     70    -16.3010     -9.2280      9.1780      0.0100     78.3900
     71    -14.5660     -8.3950     10.1710      1.7700     78.3900
     72    -14.4870     -9.1100     11.0160      0.0100     78.3900
     73    -13.2070     -7.9690      9.8040      1.5900     78.3900
     74    -12.9670     -6.6560     10.2830      1.7700     78.3900
     75    -11.9680     -6.6870     10.7750      0.0100     78.3900
     76    -12.9980     -5.6350      9.1710      1.6800     78.3900
     77    -14.0040     -5.6140      8.2290      1.7700     78.3900
     78    -14.7860     -6.3390      8.2980      0.0100     78.3900
     79    -12.0300     -4.6580      9.1370      1.7700     78.3900
     80    -11.1440     -4.5930      9.9760      1.5900     78.3900
     81    -12.1270     -3.7700      8.0860      1.6800     78.3900
     82    -11.4800     -3.0020      8.1060      0.0100     78.3900
     83    -13.1060     -3.7230      7.1170      1.7700     78.3900
     84    -13.0680     -2.8880      6.2160      1.5900     78.3900
     85    -14.1020     -4.7200      7.2500      1.7700     78.3900
     86    -14.9230     -4.7550      6.5410      0.0100     78.3900
     87    -14.0200     -6.3930     11.3310      1.7700     78.3900
     88    -14.1780     -5.3020     11.4450      0.0100     78.3900
     89    -13.6730     -6.9750     12.5760      1.5900     78.3900
     90    -13.5800     -7.9350     12.4640      0.0100     78.3900
     91    -15.2200     -7.0950     10.7110      1.7700     78.3900
     92    -15.5530     -6.5380      9.8270      0.0100     78.3900
     93    -16.3270     -7.3330     11.6060      1.5900     78.3900
     94    -17.6480     -6.4640     11.4180      2.1000     78.3900
     95    -17.5670     -5.5940     10.2240      1.5900     78.3900
     96    -18.8170     -7.3700     11.4560      1.5900     78.3900
     97    -17.7010     -5.5140     12.6650      1.5900     78.3900
     98    -16.6050     -4.6910     13.1000      1.7700     78.3900
     99    -15.6390     -4.9770     12.6720      0.0100     78.3900
    100    -16.5160     -4.9120     14.1860      0.0100     78.3900
    101    -16.8460     -3.1750     12.8650      1.7700     78.3900
    102    -17.6060     -3.0190     12.0680      0.0100     78.3900
    103    -17.3920     -2.7410     14.1450      1.5900     78.3900
    104    -16.4610     -1.9040     14.7930      1.7700     78.3900
    105    -17.0740     -1.1870     15.3860      0.0100     78.3900
    106    -15.5480     -2.6020     15.7330      1.6800     78.3900
    107    -15.2710     -2.1690     17.0090      1.7700     78.3900
    108    -15.6130      0.1790     19.5420      1.6800     78.3900
    109    -15.2860      0.3110     20.4790      0.0100     78.3900
    110    -16.1810      0.8800     19.1160      0.0100     78.3900
    111    -15.7480     -1.0490     17.5870      1.6800     78.3900
    112    -15.2860     -0.8850     18.8290      1.7700     78.3900
    113    -14.4790     -1.7970     19.4580      1.6800     78.3900
    114    -14.1950     -1.6160     20.4050      0.0100     78.3900
    115    -14.0140     -2.9820     18.9020      1.7700     78.3900
    116    -13.3100     -3.7670     19.5470      1.5900     78.3900
    117    -14.4350     -3.1240     17.5550      1.7700     78.3900
    118    -14.1410     -4.1120     16.6300      1.6800     78.3900
    119    -14.8000     -3.7540     15.5600      1.7700     78.3900
    120    -14.7450     -4.3040     14.6230      0.0100     78.3900
    121    -15.7600     -1.1620     13.7170      1.7700     78.3900
    122    -14.7620     -0.8260     14.0270      0.0100     78.3900
    123    -16.5980     -0.0790     13.3460      1.5900     78.3900
    124    -17.3620     -0.4450     12.8760      0.0100     78.3900
    125    -15.6180     -2.1850     12.5880      1.7700     78.3900
    126    -14.6900     -2.7810     12.7330      0.0100     78.3900
    127    -15.6180     -1.5870     11.2570      1.5900     78.3900
    128    -14.6440     -0.4340     10.6830      2.1000     78.3900
    129    -13.6530     -1.0770      9.7950      1.5900     78.3900
    130    -15.4620      0.6200     10.0370      1.5900     78.3900
    131    -13.8360      0.2370     11.8700      1.5900     78.3900
    132    -14.1580      1.5710     12.3610      1.7700     78.3900
    133    -15.2410      1.6690     12.5760      0.0100     78.3900
    134    -13.9200      2.3390     11.5920      0.0100     78.3900
    135    -13.4220      1.9600     13.6650      1.7700     78.3900
    136    -13.9130      2.8240     14.1630      0.0100     78.3900
    137    -13.4440      0.8550     14.6060      1.5900     78.3900
    138    -12.1830      0.6510     15.1750      1.7700     78.3900
    139    -12.3490      0.7110     16.2760      0.0100     78.3900
    140    -11.6390     -0.6740     14.8590      1.6800     78.3900
    141    -10.4840     -2.5300     15.0750      1.7700     78.3900
    142    -11.1840     -2.6470     13.8790      1.6800     78.3900
    143    -11.8530     -1.5200     13.7910      1.7700     78.3900
    144    -12.5120     -1.2580     12.9640      0.0100     78.3900
    145     -9.0950     -2.9620     16.9470      1.6800     78.3900
    146     -9.4590     -1.7570     17.3960      1.7700     78.3900
    147     -9.0210     -1.4590     18.3560      0.0100     78.3900
    148    -10.2860     -0.8660     16.8460      1.6800     78.3900
    149    -10.7670     -1.3220     15.6820      1.7700     78.3900
    150     -9.5900     -3.3870     15.7560      1.7700     78.3900
    151     -9.1760     -4.5770     15.2860      1.6800     78.3900
    152     -9.4900     -4.9390     14.4030      0.0100     78.3900
    153     -8.5490     -5.1350     15.8340      0.0100     78.3900
    154    -11.2770      1.7830     14.7500      1.7700     78.3900
    155    -10.2410      1.4390     14.5470      0.0100     78.3900
    156    -11.2470      2.7790     15.7480      1.5900     78.3900
    157    -10.8520      3.5650     15.3440      0.0100     78.3900
    158    -11.9370      2.2890     13.4710      1.7700     78.3900
    159    -11.6210      1.6470     12.6180      0.0100     78.3900
    160    -11.7450      3.7100     13.2370      1.5900     78.3900
    161    -11.0170      4.2500     11.9460      2.1000     78.3900
    162    -11.0500      3.2070     10.9030      1.5900     78.3900
    163    -11.5710      5.5750     11.5950      1.5900     78.3900
    164     -9.5190      4.4550     12.3540      1.5900     78.3900
    165     -8.9150      5.4780     13.1590      1.7700     78.3900
    166     -9.6680      5.9700     13.8140      0.0100     78.3900
    167     -8.4970      6.2630     12.4910      0.0100     78.3900
    168     -7.7480      4.9580     14.0510      1.7700     78.3900
    169     -7.4930      5.7230     14.8140      0.0100     78.3900
    170     -8.1550      3.7370     14.7660      1.5900     78.3900
    171     -7.0860      2.7770     14.7080      1.7700     78.3900
    172     -6.9600      2.3780     15.7400      0.0100     78.3900
    173     -7.3340      1.6340     13.7600      1.6800     78.3900
    174     -8.3160      1.7640     12.8280      1.7700     78.3900
    175     -8.9650      2.5870     12.9880      0.0100     78.3900
    176     -8.5850      0.8340     11.9080      1.7700     78.3900
    177     -9.3830      0.9540     11.1780      0.0100     78.3900
    178     -6.5670      0.4730     13.7730      1.7700     78.3900
    179     -5.6770      0.3480     14.6270      1.5900     78.3900
    180     -6.8500     -0.5210     12.8810      1.6800     78.3900
    181     -7.8220     -0.3500     11.9700      1.7700     78.3900
    182     -8.1040     -1.3220     11.1130      1.6800     78.3900
    183     -7.4960     -2.1130     11.1100      0.0100     78.3900
    184     -8.7850     -1.2000     10.3940      0.0100     78.3900
    185     -5.8510      3.5500     14.3270      1.7700     78.3900
    186     -5.1170      2.8760     13.8530      0.0100     78.3900
    187     -5.2680      4.1870     15.4520      1.5900     78.3900
    188     -4.6290      4.8410     15.1270      0.0100     78.3900
    189     -6.4160      4.5630     13.3380      1.7700     78.3900
    190     -6.6920      4.0680     12.3800      0.0100     78.3900
    191     -5.5680      5.7100     13.1160      1.5900     78.3900
    192     -4.1760      5.6100     12.3500      2.1000     78.3900
    193     -4.3380      6.2630     11.0330      1.5900     78.3900
    194     -3.1160      6.1490     13.2290      1.5900     78.3900
    195     -3.8810      4.0920     12.0860      1.5900     78.3900
    196     -2.8770      3.3600     12.8360      1.7700     78.3900
    197     -3.0390      3.4740     13.9330      0.0100     78.3900
    198     -1.8600      3.7540     12.6160      0.0100     78.3900
    199     -2.8920      1.8460     12.5220      1.7700     78.3900
    200     -2.6340      1.2480     13.4240      0.0100     78.3900
    201     -4.1970      1.4120     12.0760      1.5900     78.3900
    202     -4.0700      0.2430     11.3130      1.7700     78.3900
    203     -4.2680     -0.5990     12.0150      0.0100     78.3900
    204     -5.0480      0.2060     10.2270      1.6800     78.3900
    205     -5.5760     -0.8880      9.5750      1.7700     78.3900
    206     -5.9500     -4.3300      9.1550      1.6800     78.3900
    207     -6.5200     -4.9500      8.6230      0.0100     78.3900
[...]
 ITER EX DEM     TOTAL ENERGY        E CHANGE  DENSITY CHANGE     ORB. GRAD      INTEGRALS    SKIPPED
   1  0  0    -1343.6354083134 -1343.6354083134   0.058532665   0.000000000      669601285    9428097
          ---------------START SECOND ORDER SCF---------------
   2  1  0    -1343.6582359508    -0.0228276374   0.031391219   0.006189037      642229073   10055154
   3  2  0    -1343.6603549115    -0.0021189608   0.010805136   0.004428248      618965999   10349506
   4  3  0    -1343.6606729922    -0.0003180807   0.002686254   0.000991575      585984871   10700727
   5  4  0    -1343.6605214879     0.0001515043   0.000806303   0.000507722      569996269   10852882
   6  5  0    -1343.6605166932     0.0000047948   0.000430048   0.000134548      543359096   11115972
   7  6  0    -1343.6605360532    -0.0000193600   0.000142351   0.000062910      516281650   11363064
   8  7  0    -1343.6605375983    -0.0000015451   0.000032531   0.000028643      497854716   11527640
   9  8  0    -1343.6605368832     0.0000007151   0.000015873   0.000004100      456731886   11892792
  10  9  0    -1343.6605363810     0.0000005023   0.000005393   0.000001357      430862078   12117455
  11 10  0    -1343.6605363482     0.0000000328   0.000001627   0.000000545      384102956   12534339
  12 11  0    -1343.6605363819    -0.0000000338   0.000000610   0.000000153      356509538   12762844
  13 12  0    -1343.6605364001    -0.0000000182   0.000000248   0.000000075      319633597   13077221
  14 13  0    -1343.6605363965     0.0000000035   0.000000169   0.000000041      282808910   13374174
  15 14  0    -1343.6605363974    -0.0000000009   0.000000052   0.000000017      260389609   13570312

          -----------------
          DENSITY CONVERGED
          -----------------
     TIME TO FORM FOCK OPERATORS=      23.1 SECONDS (       1.5 SEC/ITER)
     FOCK TIME ON FIRST ITERATION=       2.4, LAST ITERATION=       0.9
     TIME TO SOLVE SCF EQUATIONS=       0.5 SECONDS (       0.0 SEC/ITER)

 FINAL RHF ENERGY IS    -1343.6605363974 AFTER  15 ITERATIONS
 ...... END OF RHF CALCULATION ......
 CPU     0: STEP CPU TIME=    41.49 TOTAL CPU TIME=        757.1 (     12.6 MIN)
 TOTAL WALL CLOCK TIME=       1675.0 SECONDS, CPU UTILIZATION IS    45.20%
 DONE PCM POT.
 CPU     0: STEP CPU TIME=     0.36 TOTAL CPU TIME=        757.4 (     12.6 MIN)
 TOTAL WALL CLOCK TIME=       1676.0 SECONDS, CPU UTILIZATION IS    45.19%

 Iter=  2 iFrag=      3 EFMO= -1380.493573720, DD= 0.067340079, DE=-0.395889551


 RHF      monomer      8 corr= NONE       , L1=   264, L0=   248 ID=      8


 AO spaces for     8     0     0 n-mer: L1=   264, L0=   248

 DIRECT SCF CALCULATION, SCHWRZ=T   FDIFF=T,  DIRTHR=  0.00E+00 NITDIR=10

                                                                                   NONZERO     BLOCKS
 ITER EX DEM     TOTAL ENERGY        E CHANGE  DENSITY CHANGE     ORB. GRAD      INTEGRALS    SKIPPED
   1  0  0     -770.7722157064  -770.7722157064   0.029107207   0.000000000      325387038    4092258
          ---------------START SECOND ORDER SCF---------------
   2  1  0     -770.7786412316    -0.0064255252   0.010920695   0.002561417      312128018    4429418
   3  2  0     -770.7793616591    -0.0007204275   0.003936261   0.003376466      301386017    4591233
   4  3  0     -770.7792687851     0.0000928740   0.001016582   0.000467427      290330841    4738164
   5  4  0     -770.7791500571     0.0001187280   0.000448386   0.000251060      278713461    4880902
   6  5  0     -770.7791647128    -0.0000146557   0.000194438   0.000071513      266239708    5029336
   7  6  0     -770.7791790731    -0.0000143603   0.000065302   0.000038680      256558520    5140459
   8  7  0     -770.7791805075    -0.0000014344   0.000022039   0.000011243      242674291    5299681
   9  8  0     -770.7791798463     0.0000006612   0.000016995   0.000003431      231838481    5420377
  10  9  0     -770.7791798097     0.0000000366   0.000003088   0.000001589      217037103    5581314
  11 10  0     -770.7791798250    -0.0000000154   0.000001139   0.000000718      200829543    5771305
  12 11  0     -770.7791798361    -0.0000000111   0.000000529   0.000000150      187345350    5916867
  13 12  0     -770.7791798304     0.0000000057   0.000000164   0.000000077      167981717    6130876
  14 13  0     -770.7791798209     0.0000000095   0.000000053   0.000000013      157922890    6235840

          -----------------
          DENSITY CONVERGED
          -----------------
     TIME TO FORM FOCK OPERATORS=      11.5 SECONDS (       0.8 SEC/ITER)
     FOCK TIME ON FIRST ITERATION=       1.1, LAST ITERATION=       0.5
     TIME TO SOLVE SCF EQUATIONS=       0.2 SECONDS (       0.0 SEC/ITER)

 FINAL RHF ENERGY IS     -770.7791798209 AFTER  14 ITERATIONS
 ...... END OF RHF CALCULATION ......
 CPU     0: STEP CPU TIME=    22.48 TOTAL CPU TIME=        779.9 (     13.0 MIN)
 TOTAL WALL CLOCK TIME=       1723.1 SECONDS, CPU UTILIZATION IS    45.26%
 DONE PCM POT.
 CPU     0: STEP CPU TIME=     0.19 TOTAL CPU TIME=        780.1 (     13.0 MIN)
 TOTAL WALL CLOCK TIME=       1723.8 SECONDS, CPU UTILIZATION IS    45.26%

 Iter=  2 iFrag=      8 EFMO=  -795.847043667, DD= 0.038018044, DE=-0.010373771

 CPU     0: STEP CPU TIME=     0.00 TOTAL CPU TIME=        780.1 (     13.0 MIN)
 TOTAL WALL CLOCK TIME=       1723.8 SECONDS, CPU UTILIZATION IS    45.26%

  Monomer SCF synchronisation on iteration   2.1 took     0.0 s.
 CPU     0: STEP CPU TIME=     0.00 TOTAL CPU TIME=        780.1 (     13.0 MIN)
 TOTAL WALL CLOCK TIME=       1723.8 SECONDS, CPU UTILIZATION IS    45.26%
 dmexch needs              3065480  words of memory.
 CPU     0: STEP CPU TIME=     0.02 TOTAL CPU TIME=        780.1 (     13.0 MIN)
 TOTAL WALL CLOCK TIME=       1723.8 SECONDS, CPU UTILIZATION IS    45.26%

 Data exchange of   1015485 words took     0.0 s.

 Calculating apparent surface charges...
     Using       46011 words of memory.
 ASC ITERATION=   1 CONVERGED TO  0.778443E-02
 ASC ITERATION=   2 CONVERGED TO  0.802197E-01
 ASC ITERATION=   3 CONVERGED TO  0.113945E+00
 ASC ITERATION=   4 CONVERGED TO  0.958122E-02
 ASC ITERATION=   5 CONVERGED TO  0.599570E-02
 ASC ITERATION=   6 CONVERGED TO  0.224185E-02
 ASC ITERATION=   7 CONVERGED TO  0.953783E-03
 ASC ITERATION=   8 CONVERGED TO  0.482928E-03
 ASC ITERATION=   9 CONVERGED TO  0.431022E-03
 ASC ITERATION=  10 CONVERGED TO  0.324243E-03
 ASC ITERATION=  11 CONVERGED TO  0.892077E-04
 ASC ITERATION=  12 CONVERGED TO  0.472382E-04
 ASC ITERATION=  13 CONVERGED TO  0.332196E-04
 ASC ITERATION=  14 CONVERGED TO  0.191316E-04
 ASC ITERATION=  15 CONVERGED TO  0.100219E-04
 ASC ITERATION=  16 CONVERGED TO  0.462463E-05
 ASC ITERATION=  17 CONVERGED TO  0.299908E-05
 ASC ITERATION=  18 CONVERGED TO  0.169214E-05
 ASC ITERATION=  19 CONVERGED TO  0.116986E-05
 ASC ITERATION=  20 CONVERGED TO  0.743819E-06
 ASC ITERATION=  21 CONVERGED TO  0.319793E-06
 ASC ITERATION=  22 CONVERGED TO  0.173305E-06
 ASC ITERATION=  23 CONVERGED TO  0.960469E-07
 ASC ITERATION=  24 CONVERGED TO  0.568505E-07
 ASC ITERATION=  25 CONVERGED TO  0.304519E-07
 ASC ITERATION=  26 CONVERGED TO  0.217207E-07
 ASC ITERATION=  27 CONVERGED TO  0.111148E-07
 ASC ITERATION=  28 CONVERGED TO  0.571400E-08
 ASC ITERATION=  29 CONVERGED TO  0.407918E-08
 ASC ITERATION=  30 CONVERGED TO  0.217704E-08
 ASC ITERATION=  31 CONVERGED TO  0.115469E-08
 ASC ITERATION=  32 CONVERGED TO  0.673801E-09
 ASC ITERATION=  33 CONVERGED TO  0.336614E-09
 ASC ITERATION=  34 CONVERGED TO  0.180603E-09
 ASC ITERATION=  35 CONVERGED TO  0.792912E-10

 THE ASC EQUATIONS FOR PHASE=1 CONVERGED IN  35 ITERATIONS.

 PCM ASC=      6.8548886983 normalised to=      6.9107028958
 Nuclear factor=   1.0030079087, electronic factor=   1.0030352888

 CPU     0: STEP CPU TIME=     0.17 TOTAL CPU TIME=        780.3 (     13.0 MIN)
 TOTAL WALL CLOCK TIME=       1724.2 SECONDS, CPU UTILIZATION IS    45.26%


 ------------------------------------------------------------------------------
 FMO iter  2.1,      0 fragment(s) converged, maxD 0.105833131 maxE 0.461771383
 ------------------------------------------------------------------------------

 RHF      monomer      1 corr= NONE       , L1=   403, L0=   378 ID=      1


 AO spaces for     1     0     0 n-mer: L1=   403, L0=   378

 DIRECT SCF CALCULATION, SCHWRZ=T   FDIFF=T,  DIRTHR=  0.00E+00 NITDIR=10

                                                                                   NONZERO     BLOCKS
 ITER EX DEM     TOTAL ENERGY        E CHANGE  DENSITY CHANGE     ORB. GRAD      INTEGRALS    SKIPPED
   1  0  0    -1550.9652095995 -1550.9652095995   0.007254298   0.000000000      982471392   22323435
          ---------------START SECOND ORDER SCF---------------
   2  1  0    -1550.9641101727     0.0010994268   0.002916551   0.000540123      880936673   23972121
   3  2  0    -1550.9642330183    -0.0001228456   0.001027786   0.000627539      839835072   24399484
   4  3  0    -1550.9641048111     0.0001282072   0.000383763   0.000046386      779999555   24933250
   5  4  0    -1550.9640567391     0.0000480720   0.000128077   0.000050803      741964718   25275335
   6  5  0    -1550.9640524445     0.0000042946   0.000025270   0.000012300      701229212   25643834
   7  6  0    -1550.9640557125    -0.0000032680   0.000013311   0.000009253      648907295   26092009
   8  7  0    -1550.9640557397    -0.0000000272   0.000006347   0.000004751      611621679   26407090
   9  8  0    -1550.9640552409     0.0000004988   0.000001696   0.000000999      573867928   26755025
  10  9  0    -1550.9640551728     0.0000000681   0.000000797   0.000000248      522471084   27157038
  11 10  0    -1550.9640551979    -0.0000000251   0.000000276   0.000000076      472594932   27549835
  12 11  0    -1550.9640552138    -0.0000000158   0.000000089   0.000000033      424420701   27968617
  13 12  0    -1550.9640552157    -0.0000000019   0.000000034   0.000000010      377047531   28337969

          -----------------
          DENSITY CONVERGED
          -----------------
     TIME TO FORM FOCK OPERATORS=      26.7 SECONDS (       2.1 SEC/ITER)
     FOCK TIME ON FIRST ITERATION=       3.8, LAST ITERATION=       1.2
     TIME TO SOLVE SCF EQUATIONS=       0.6 SECONDS (       0.0 SEC/ITER)

 FINAL RHF ENERGY IS    -1550.9640552157 AFTER  13 ITERATIONS
 ...... END OF RHF CALCULATION ......
 CPU     0: STEP CPU TIME=    40.63 TOTAL CPU TIME=        820.9 (     13.7 MIN)
 TOTAL WALL CLOCK TIME=       1815.0 SECONDS, CPU UTILIZATION IS    45.23%
 DONE PCM POT.
 CPU     0: STEP CPU TIME=     0.38 TOTAL CPU TIME=        821.3 (     13.7 MIN)
 TOTAL WALL CLOCK TIME=       1816.2 SECONDS, CPU UTILIZATION IS    45.22%

 Iter=  3 iFrag=      1 EFMO= -1597.641196791, DD= 0.009668277, DE=-0.032857045


 RHF      monomer      7 corr= NONE       , L1=   386, L0=   362 ID=      2


 AO spaces for     7     0     0 n-mer: L1=   386, L0=   362

 DIRECT SCF CALCULATION, SCHWRZ=T   FDIFF=T,  DIRTHR=  0.00E+00 NITDIR=10

                                                                                   NONZERO     BLOCKS
 ITER EX DEM     TOTAL ENERGY        E CHANGE  DENSITY CHANGE     ORB. GRAD      INTEGRALS    SKIPPED
   1  0  0    -1471.0965731785 -1471.0965731785   0.031121191   0.000000000      868110476   17988890
          ---------------START SECOND ORDER SCF---------------
   2  1  0    -1471.0975684429    -0.0009952645   0.007589290   0.002259901      792707957   19313660
   3  2  0    -1471.0978589387    -0.0002904957   0.001454910   0.000596719      758469700   19670839
   4  3  0    -1471.0977575613     0.0001013774   0.000509591   0.000182874      718653626   20060212
   5  4  0    -1471.0977481735     0.0000093877   0.000175962   0.000112018      676878038   20408824
   6  5  0    -1471.0977389982     0.0000091753   0.000059334   0.000030295      640969187   20723738
   7  6  0    -1471.0977363169     0.0000026813   0.000022246   0.000011953      605605146   21025163
   8  7  0    -1471.0977353282     0.0000009888   0.000011246   0.000003952      567757095   21347783
   9  8  0    -1471.0977356918    -0.0000003636   0.000004918   0.000001380      535853734   21604796
  10  9  0    -1471.0977358533    -0.0000001615   0.000001319   0.000000469      500702031   21874292
  11 10  0    -1471.0977358121     0.0000000411   0.000000618   0.000000144      443529428   22325117
  12 11  0    -1471.0977357830     0.0000000292   0.000000175   0.000000063      411262741   22578985
  13 12  0    -1471.0977357743     0.0000000086   0.000000080   0.000000019      370211472   22926433

          -----------------
          DENSITY CONVERGED
          -----------------
     TIME TO FORM FOCK OPERATORS=      24.1 SECONDS (       1.9 SEC/ITER)
     FOCK TIME ON FIRST ITERATION=       3.0, LAST ITERATION=       1.2
     TIME TO SOLVE SCF EQUATIONS=       0.5 SECONDS (       0.0 SEC/ITER)

 FINAL RHF ENERGY IS    -1471.0977357743 AFTER  13 ITERATIONS
 ...... END OF RHF CALCULATION ......
 CPU     0: STEP CPU TIME=    52.37 TOTAL CPU TIME=        873.7 (     14.6 MIN)
 TOTAL WALL CLOCK TIME=       1929.0 SECONDS, CPU UTILIZATION IS    45.29%
 DONE PCM POT.
 CPU     0: STEP CPU TIME=     0.35 TOTAL CPU TIME=        874.0 (     14.6 MIN)
 TOTAL WALL CLOCK TIME=       1930.1 SECONDS, CPU UTILIZATION IS    45.28%

 Iter=  3 iFrag=      7 EFMO= -1507.394496953, DD= 0.025279583, DE= 0.015617858


 RHF      monomer      4 corr= NONE       , L1=   386, L0=   362 ID=      3


 AO spaces for     4     0     0 n-mer: L1=   386, L0=   362

 DIRECT SCF CALCULATION, SCHWRZ=T   FDIFF=T,  DIRTHR=  0.00E+00 NITDIR=10

                                                                                   NONZERO     BLOCKS
 ITER EX DEM     TOTAL ENERGY        E CHANGE  DENSITY CHANGE     ORB. GRAD      INTEGRALS    SKIPPED
   1  0  0    -1472.8532538674 -1472.8532538674   0.031558300   0.000000000      901186098   17596890
          ---------------START SECOND ORDER SCF---------------
   2  1  0    -1472.8527766224     0.0004772450   0.006969477   0.001112877      829077781   18933347
   3  2  0    -1472.8528264049    -0.0000497825   0.001484434   0.000687307      792071015   19318139
   4  3  0    -1472.8526427584     0.0001836465   0.000709972   0.000161616      747517193   19758142
   5  4  0    -1472.8525655906     0.0000771678   0.000134992   0.000086732      708708364   20076795
   6  5  0    -1472.8525417335     0.0000238571   0.000090326   0.000046481      676323406   20383061
   7  6  0    -1472.8525366307     0.0000051028   0.000032199   0.000018534      641094604   20695881
   8  7  0    -1472.8525392821    -0.0000026513   0.000014840   0.000005088      607145935   20965146
   9  8  0    -1472.8525410456    -0.0000017635   0.000003882   0.000001685      576838717   21219804
  10  9  0    -1472.8525411356    -0.0000000900   0.000001727   0.000000838      526814993   21634891
  11 10  0    -1472.8525409759     0.0000001597   0.000000721   0.000000153      485205828   21945812
  12 11  0    -1472.8525409474     0.0000000285   0.000000254   0.000000084      453031262   22212686
  13 12  0    -1472.8525409592    -0.0000000119   0.000000098   0.000000022      394804970   22680829
  14 13  0    -1472.8525409671    -0.0000000079   0.000000039   0.000000010      357312893   22957543

          -----------------
          DENSITY CONVERGED
          -----------------
     TIME TO FORM FOCK OPERATORS=      28.6 SECONDS (       2.0 SEC/ITER)
     FOCK TIME ON FIRST ITERATION=       3.3, LAST ITERATION=       1.2
     TIME TO SOLVE SCF EQUATIONS=       0.5 SECONDS (       0.0 SEC/ITER)

 FINAL RHF ENERGY IS    -1472.8525409671 AFTER  14 ITERATIONS
 ...... END OF RHF CALCULATION ......
 CPU     0: STEP CPU TIME=    41.18 TOTAL CPU TIME=        915.2 (     15.3 MIN)
 TOTAL WALL CLOCK TIME=       2022.9 SECONDS, CPU UTILIZATION IS    45.24%
 DONE PCM POT.
 CPU     0: STEP CPU TIME=     0.37 TOTAL CPU TIME=        915.6 (     15.3 MIN)
 TOTAL WALL CLOCK TIME=       2024.0 SECONDS, CPU UTILIZATION IS    45.24%

 Iter=  3 iFrag=      4 EFMO= -1507.445850273, DD= 0.026586517, DE=-0.001812179


 RHF      monomer      5 corr= NONE       , L1=   371, L0=   348 ID=      4


 AO spaces for     5     0     0 n-mer: L1=   371, L0=   348

 DIRECT SCF CALCULATION, SCHWRZ=T   FDIFF=T,  DIRTHR=  0.00E+00 NITDIR=10

                                                                                   NONZERO     BLOCKS
 ITER EX DEM     TOTAL ENERGY        E CHANGE  DENSITY CHANGE     ORB. GRAD      INTEGRALS    SKIPPED
   1  0  0    -1396.4483082355 -1396.4483082355   0.037918598   0.000000000      784203241   15364489
          ---------------START SECOND ORDER SCF---------------
   2  1  0    -1396.4491490383    -0.0008408027   0.008644218   0.001800477      712425984   16561635
   3  2  0    -1396.4495810911    -0.0004320528   0.001928278   0.000445960      688166273   16823479
   4  3  0    -1396.4494424101     0.0001386810   0.000633091   0.000103097      649390353   17186607
   5  4  0    -1396.4494166007     0.0000258094   0.000134078   0.000046827      607813006   17542555
   6  5  0    -1396.4494090053     0.0000075954   0.000047743   0.000021046      577257510   17808115
   7  6  0    -1396.4494064746     0.0000025308   0.000014196   0.000011991      536746199   18168366
   8  7  0    -1396.4494063255     0.0000001491   0.000005891   0.000004204      497475929   18506464
   9  8  0    -1396.4494064815    -0.0000001560   0.000002945   0.000001701      472706600   18725141
  10  9  0    -1396.4494064634     0.0000000180   0.000001230   0.000000590      445712842   18962167
  11 10  0    -1396.4494063790     0.0000000845   0.000000837   0.000000195      406224809   19283076
  12 11  0    -1396.4494063535     0.0000000255   0.000000179   0.000000108      386935888   19436978
  13 12  0    -1396.4494063609    -0.0000000074   0.000000098   0.000000023      338119086   19843410

          -----------------
          DENSITY CONVERGED
          -----------------
     TIME TO FORM FOCK OPERATORS=      22.7 SECONDS (       1.7 SEC/ITER)
     FOCK TIME ON FIRST ITERATION=       2.7, LAST ITERATION=       1.1
     TIME TO SOLVE SCF EQUATIONS=       0.5 SECONDS (       0.0 SEC/ITER)

 FINAL RHF ENERGY IS    -1396.4494063609 AFTER  13 ITERATIONS
 ...... END OF RHF CALCULATION ......
 CPU     0: STEP CPU TIME=    42.35 TOTAL CPU TIME=        957.9 (     16.0 MIN)
 TOTAL WALL CLOCK TIME=       2114.7 SECONDS, CPU UTILIZATION IS    45.30%
 DONE PCM POT.
 CPU     0: STEP CPU TIME=     0.36 TOTAL CPU TIME=        958.3 (     16.0 MIN)
 TOTAL WALL CLOCK TIME=       2115.8 SECONDS, CPU UTILIZATION IS    45.29%

 Iter=  3 iFrag=      5 EFMO= -1432.579211417, DD= 0.031674456, DE= 0.009569370


 RHF      monomer      6 corr= NONE       , L1=   341, L0=   320 ID=      5


 AO spaces for     6     0     0 n-mer: L1=   341, L0=   320

 DIRECT SCF CALCULATION, SCHWRZ=T   FDIFF=T,  DIRTHR=  0.00E+00 NITDIR=10

                                                                                   NONZERO     BLOCKS
 ITER EX DEM     TOTAL ENERGY        E CHANGE  DENSITY CHANGE     ORB. GRAD      INTEGRALS    SKIPPED
   1  0  0    -1327.2092952164 -1327.2092952164   0.032233639   0.000000000      691956810   10367772
          ---------------START SECOND ORDER SCF---------------
   2  1  0    -1327.2107895855    -0.0014943691   0.007564243   0.001756210      625173091   11496107
   3  2  0    -1327.2110930322    -0.0003034466   0.001638680   0.000516596      604987860   11728159
   4  3  0    -1327.2110508050     0.0000422272   0.000458850   0.000116667      570309816   12068853
   5  4  0    -1327.2110352585     0.0000155465   0.000136815   0.000044990      531142325   12418283
   6  5  0    -1327.2110348241     0.0000004344   0.000037685   0.000009190      501624590   12689681
   7  6  0    -1327.2110339434     0.0000008807   0.000011933   0.000006308      468027909   12995938
