‘4A4T_2_fmo_input.inp’ -> ‘/scratch/hazwong/824127/./4A4T_2_fmo_input.inp’
‘rungms’ -> ‘/scratch/hazwong/824127/./rungms’
‘gms-files.csh’ -> ‘/scratch/hazwong/824127/./gms-files.csh’
----- GAMESS execution script 'rungms' -----
This job is running on host gollum088.lsa.umich.edu
under operating system Linux at Sat Dec 7 00:04:57 EST 2019
Available scratch disk space (Kbyte units) at beginning of the job is
Filesystem     1K-blocks  Used Available Use% Mounted on
/dev/sda4      426933580 33424 426900156   1% /scratch
GAMESS temporary binary files will be written to /scratch/hazwong/824127/4A4T_2/usrc
GAMESS supplementary output files will be written to /scratch/hazwong/824127/4A4T_2/src
Copying input file 4A4T_2_fmo_input.inp to your run's scratch directory...
cp 4A4T_2_fmo_input.inp /scratch/hazwong/824127/4A4T_2/usrc/4A4T_2_fmo_input.F05
unset echo
This is a GDDI run, keeping various output files on local disks
setenv OUTPUT /scratch/hazwong/824127/4A4T_2/usrc/4A4T_2_fmo_input.F06
setenv PUNCH /scratch/hazwong/824127/4A4T_2/usrc/4A4T_2_fmo_input.F07
unset echo
 
Assuming a single but multicore node.
 
/export/apps/CentOS7/gamess/src/build//ddikick.x /export/apps/CentOS7/gamess/src/build//gamess.R3.x 4A4T_2_fmo_input -ddi 1 16 gollum088.lsa.umich.edu:cpus=16 -scr /scratch/hazwong/824127/4A4T_2/usrc

 Distributed Data Interface kickoff program.
 Initiating 16 compute processes on 1 nodes to run the following command:
 /export/apps/CentOS7/gamess/src/build//gamess.R3.x 4A4T_2_fmo_input 

          ******************************************************
          *         GAMESS VERSION = 30 SEP 2018 (R3)         *
          *             FROM IOWA STATE UNIVERSITY             *
          * M.W.SCHMIDT, K.K.BALDRIDGE, J.A.BOATZ, S.T.ELBERT, *
          *   M.S.GORDON, J.H.JENSEN, S.KOSEKI, N.MATSUNAGA,   *
          *          K.A.NGUYEN, S.J.SU, T.L.WINDUS,           *
          *       TOGETHER WITH M.DUPUIS, J.A.MONTGOMERY       *
          *         J.COMPUT.CHEM.  14, 1347-1363(1993)        *
          **************** 64 BIT LINUX VERSION ****************

  SINCE 1993, STUDENTS AND POSTDOCS WORKING AT IOWA STATE UNIVERSITY
  AND ALSO IN THEIR VARIOUS JOBS AFTER LEAVING ISU HAVE MADE IMPORTANT
  CONTRIBUTIONS TO THE CODE:
     IVANA ADAMOVIC, CHRISTINE AIKENS, YURI ALEXEEV, POOJA ARORA,
     ANDREY ASADCHEV, ROB BELL, PRADIPTA BANDYOPADHYAY, JONATHAN BENTZ,
     BRETT BODE, KURT BRORSEN, CALEB CARLIN, GALINA CHABAN, WEI CHEN,
     CHEOL HO CHOI, PAUL DAY, ALBERT DEFUSCO, NUWAN DESILVA, TIM DUDLEY,
     DMITRI FEDOROV, ALEX FINDLATER, GRAHAM FLETCHER, MARK FREITAG,
     KURT GLAESEMANN, ANASTASIA GUNINA,
     DAN KEMP, GRANT MERRILL, NORIYUKI MINEZAWA, JONATHAN MULLIN,
     TAKESHI NAGATA, SEAN NEDD, HEATHER NETZLOFF, BOSILJKA NJEGIC, RYAN OLSON,
     MIKE PAK, BUU PHAM,
     SPENCER PRUITT, LUKE ROSKOP, JIM SHOEMAKER, LYUDMILA SLIPCHENKO,
     TONY SMITH, SAROM SOK LEANG, JIE SONG, TETSUYA TAKETSUGU, SIMON WEBB,
     PENG XU, SOOHAENG YOO, FEDERICO ZAHARIEV

  ADDITIONAL CODE HAS BEEN PROVIDED BY COLLABORATORS IN OTHER GROUPS:
     IOWA STATE UNIVERSITY:
          JOE IVANIC, AARON WEST, LAIMUTIS BYTAUTAS, KLAUS RUEDENBERG
     UNIVERSITY OF TOKYO: KIMIHIKO HIRAO, TAKAHITO NAKAJIMA,
          TAKAO TSUNEDA, MUNEAKI KAMIYA, SUSUMU YANAGISAWA,
          KIYOSHI YAGI, MAHITO CHIBA, SEIKEN TOKURA, NAOAKI KAWAKAMI
     UNIVERSITY OF AARHUS: FRANK JENSEN
     UNIVERSITY OF IOWA: VISVALDAS KAIRYS, HUI LI
     NATIONAL INST. OF STANDARDS AND TECHNOLOGY: WALT STEVENS, DAVID GARMER
     UNIVERSITY OF PISA: BENEDETTA MENNUCCI, JACOPO TOMASI
     UNIVERSITY OF MEMPHIS: HENRY KURTZ, PRAKASHAN KORAMBATH
     UNIVERSITY OF ALBERTA: TOBY ZENG, MARIUSZ KLOBUKOWSKI
     UNIVERSITY OF NEW ENGLAND: MARK SPACKMAN
     MIE UNIVERSITY: HIROAKI UMEDA
     NAT. INST. OF ADVANCED INDUSTRIAL SCIENCE AND TECHNOLOGY: KAZUO KITAURA
     MICHIGAN STATE UNIVERSITY:
          KAROL KOWALSKI, MARTA WLOCH, JEFFREY GOUR, JESSE LUTZ,
          WEI LI, JUN SHEN, J. EMILIANO DEUSTUA, PIOTR PIECUCH
     UNIVERSITY OF MINNESOTA:
          YINAN SHU
     UNIVERSITY OF SILESIA: MONIKA MUSIAL, STANISLAW KUCHARSKI
     FACULTES UNIVERSITAIRES NOTRE-DAME DE LA PAIX:
          OLIVIER QUINET, BENOIT CHAMPAGNE
     UNIVERSITY OF CALIFORNIA - SANTA BARBARA: BERNARD KIRTMAN
     INSTITUTE FOR MOLECULAR SCIENCE:
          KAZUYA ISHIMURA, MICHIO KATOUDA, AND SHIGERU NAGASE
     UNIVERSITY OF NOTRE DAME: ANNA POMOGAEVA, DAN CHIPMAN
     KYUSHU UNIVERSITY:
          HARUYUKI NAKANO,
          FENG LONG GU, JACEK KORCHOWIEC, MARCIN MAKOWSKI, AND YURIKO AOKI,
          HIROTOSHI MORI AND EISAKU MIYOSHI
     PENNSYLVANIA STATE UNIVERSITY:
          TZVETELIN IORDANOV, CHET SWALINA, JONATHAN SKONE,
          SHARON HAMMES-SCHIFFER
     WASEDA UNIVERSITY:
          MASATO KOBAYASHI, TOMOKO AKAMA, TSUGUKI TOUMA,
          TAKESHI YOSHIKAWA, YASUHIRO IKABATA, JUNJI SEINO,
          YUYA NAKAJIMA, HIROMI NAKAI
     NANJING UNIVERSITY: SHUHUA LI
     UNIVERSITY OF NEBRASKA:
          PEIFENG SU, DEJUN SI, NANDUN THELLAMUREGE, YALI WANG, HUI LI
     UNIVERSITY OF ZURICH: ROBERTO PEVERATI, KIM BALDRIDGE
     N. COPERNICUS UNIVERSITY AND JACKSON STATE UNIVERSITY:
          MARIA BARYSZ
     UNIVERSITY OF COPENHAGEN: Jimmy Kromann, CASPER STEINMANN
     TOKYO INSTITUTE OF TECHNOLOGY: HIROYA NAKATA
     NAGOYA UNIVERSITY: YOSHIO NISHIMOTO, STEPHAN IRLE
     MOSCOW STATE UNIVERSITY: VLADIMIR MIRONOV


 PARALLEL VERSION RUNNING ON       16 PROCESSORS IN        1 NODES.

 EXECUTION OF GAMESS BEGUN Sat Dec  7 00:04:57 2019

            ECHO OF THE FIRST FEW INPUT CARDS -
 INPUT CARD>!*** FMO 5.3 (Gamess) INPUT generated by Facio 22.1.1.32 ***                    
 INPUT CARD> $CONTRL RUNTYP=ENERGY NPRINT=-5 ISPHER=1 MAXIT=200 $END                        
 INPUT CARD> $SYSTEM MWORDS=63 MEMDDI=63 $END                                               
 INPUT CARD> $GDDI NGROUP=1 $END                                                            
 INPUT CARD> $SCF DIRSCF=.TRUE. NPUNCH=0 $END                                               
 INPUT CARD>!*** NumCPU : 2  MemPerNode : 512MB                                             
 INPUT CARD> $PCM SOLVNT=WATER IEF=-10 ICOMP=2 ICAV=1 IDISP=1 IFMO=-1 $END                  
 INPUT CARD> $PCMCAV RADII=SUAHF $END                                                       
 INPUT CARD> $TESCAV NTSALL=60 $END                                                         
 INPUT CARD> $FMOPRP                                                                        
 INPUT CARD>    NAODIR=200                                                                  
 INPUT CARD>    NGRFMO(1)=1, 1, 0, 0, 0,   0, 0, 0, 0, 0                                    
 INPUT CARD>    IPIEDA=1                                                                    
 INPUT CARD>    NPRINT=9                                                                    
 INPUT CARD> $END                                                                           
 INPUT CARD> $FMO                                                                           
 INPUT CARD>      SCFTYP(1)=RHF                                                             
 INPUT CARD>      MODGRD=10                                                                 
 INPUT CARD>      MODMUL=0                                                                  
 INPUT CARD>      MAXCAO=5                                                                  
 INPUT CARD>      MAXBND=10                                                                 
 INPUT CARD>      NLAYER=1                                                                  
 INPUT CARD>      MPLEVL(1)=2                                                               
 INPUT CARD>      NFRAG=8                                                                   
 INPUT CARD>      ICHARG(1)=-1, -1, -1, -1, -1, -1, -1, 0                                   
 INPUT CARD>      FRGNAM(1)=F1, F2, F3, F4, F5, F6, F7, F8                                  
 INPUT CARD>      indat(1)=0                                                                
 INPUT CARD>               1   -36   0                                                      
 INPUT CARD>               37   -67   0                                                     
 INPUT CARD>               68   -97   0                                                     
 INPUT CARD>               98   -127   0                                                    
 INPUT CARD>               128   -160   0                                                   
 INPUT CARD>               161   -191   0                                                   
 INPUT CARD>               192   -225   0                                                   
 INPUT CARD>               226   -253   0                                                   
 INPUT CARD> $END                                                                           
 INPUT CARD>                                                                                
 INPUT CARD> $FMOBND                                                                        
 INPUT CARD>   -37   36       6-31G*    MINI                                                
 INPUT CARD>   -68   67       6-31G*    MINI                                                
 INPUT CARD>   -98   97       6-31G*    MINI                                                
 INPUT CARD>   -128   127       6-31G*    MINI                                              
 INPUT CARD>   -161   160       6-31G*    MINI                                              
 INPUT CARD>   -192   191       6-31G*    MINI                                              
 INPUT CARD>   -226   225       6-31G*    MINI                                              
 INPUT CARD> $END                                                                           
 INPUT CARD> $FMOHYB                                                                        
 INPUT CARD> 6-31G*      15   5                                                             
 INPUT CARD>   1 0  -0.065034   0.288264   0.000000   0.000000   0.604412                   
 INPUT CARD>         0.290129   0.000000   0.000000   0.319045  -0.017106                   


 -------------------------------------------------------------
 GROUP DDI, PROGRAMMED BY: RYAN M. OLSON AND DMITRI G. FEDOROV
        FEDOROV ET AL., J. COMPUT. CHEM., 25 (2004) 872.
 -------------------------------------------------------------

 -------------------------------------------------------
 GDDI: INITIALIZATION COMPLETED FOR GROUP     1 OF     1
 WITH    16 PROCESSES BALTYP=DLB   global rank=        0
 -------------------------------------------------------

   63000000 WORDS OF MEMORY AVAILABLE


     RUN TITLE
     ---------
  FMO calculation                                                                

 THE POINT GROUP OF THE MOLECULE IS C1      
 THE ORDER OF THE PRINCIPAL AXIS IS     0

 ATOM   ATOMIC CHARGE
 H.1-1       1.0
 O.1-1       8.0
 C.1-1       6.0
 N.1-1       7.0
 P.1-1      15.0

     ATOMIC BASIS SET LIBRARY
     ----------------
 THE CONTRACTED PRIMITIVE FUNCTIONS HAVE BEEN UNNORMALIZED
 THE CONTRACTED BASIS FUNCTIONS ARE NOW NORMALIZED TO UNITY

  SHELL TYPE  PRIMITIVE        EXPONENT          CONTRACTION COEFFICIENT(S)

 H.1-1     

      1   S       1            18.7311370    0.033494604338
      1   S       2             2.8253944    0.234726953484
      1   S       3             0.6401217    0.813757326146

      2   S       4             0.1612778    1.000000000000

 O.1-1     

      3   S       5          5484.6716600    0.001831074430
      3   S       6           825.2349460    0.013950172200
      3   S       7           188.0469580    0.068445078098
      3   S       8            52.9645000    0.232714335992
      3   S       9            16.8975704    0.470192897984
      3   S      10             5.7996353    0.358520852987

      4   L      11            15.5396162   -0.110777549525    0.070874268231
      4   L      12             3.5999336   -0.148026262701    0.339752839147
      4   L      13             1.0137618    1.130767015354    0.727158577316

      5   L      14             0.2700058    1.000000000000    1.000000000000

      6   D      15             0.8000000    1.000000000000

 C.1-1     

      7   S      16          3047.5248800    0.001834737132
      7   S      17           457.3695180    0.014037322813
      7   S      18           103.9486850    0.068842622264
      7   S      19            29.2101553    0.232184443216
      7   S      20             9.2866630    0.467941348435
      7   S      21             3.1639270    0.362311985337

      8   L      22             7.8682723   -0.119332419775    0.068999066591
      8   L      23             1.8812885   -0.160854151696    0.316423960957
      8   L      24             0.5442493    1.143456437840    0.744308290898

      9   L      25             0.1687145    1.000000000000    1.000000000000

     10   D      26             0.8000000    1.000000000000

 N.1-1     

     11   S      27          4173.5114600    0.001834772160
     11   S      28           627.4579110    0.013994627002
     11   S      29           142.9020930    0.068586551812
     11   S      30            40.2343293    0.232240873040
     11   S      31            12.8202129    0.469069948082
     11   S      32             4.3904370    0.360455199063

     12   L      33            11.6263619   -0.114961181702    0.067579743878
     12   L      34             2.7162798   -0.169117478561    0.323907295893
     12   L      35             0.7722184    1.145851947027    0.740895139755

     13   L      36             0.2120315    1.000000000000    1.000000000000

     14   D      37             0.8000000    1.000000000000

 P.1-1     

     15   S      38         19413.3000000    0.001851598923
     15   S      39          2909.4200000    0.014206191735
     15   S      40           661.3640000    0.069999459277
     15   S      41           185.7590000    0.240078860331
     15   S      42            59.1943000    0.484761717984
     15   S      43            20.0310000    0.335199804993

     16   L      44           339.4780000   -0.002782170105    0.004564616191
     16   L      45            81.0101000   -0.036049901354    0.033693571881
     16   L      46            25.8780000   -0.116631004382    0.139754883368
     16   L      47             9.4522100    0.096832803638    0.339361716786
     16   L      48             3.6656600    0.614418023082    0.450920623685
     16   L      49             1.4674600    0.403798015170    0.238585800889

     17   L      50             2.1562300   -0.252924113863   -0.017765312733
     17   L      51             0.7489970    0.032851844678    0.274058196433
     17   L      52             0.2831450    1.081254761783    0.785421562957

     18   L      53             0.0998317    1.000000000000    1.000000000000

     19   D      54             0.5500000    1.000000000000

 TOTAL NUMBER OF BASIS SET SHELLS             =   19
 NUMBER OF CARTESIAN GAUSSIAN BASIS FUNCTIONS =   66

     $CONTRL OPTIONS
     ---------------
 SCFTYP=RHF          RUNTYP=ENERGY       EXETYP=RUN     
 MPLEVL=       0     CITYP =NONE         CCTYP =NONE         VBTYP =NONE    
 DFTTYP=NONE         TDDFT =NONE    
 MULT  =       1     ICHARG=       0     NZVAR =       0     COORD =UNIQUE  
 PP    =NONE         RELWFN=NONE         LOCAL =NONE         NUMGRD=       F
 ISPHER=       1     NOSYM =       0     MAXIT =     200     UNITS =ANGS    
 PLTORB=       F     MOLPLT=       F     AIMPAC=       F     FRIEND=        
 NPRINT=      -5     IREST =       0     GEOM  =INPUT   
 NORMF =       0     NORMP =       0     ITOL  =      24     ICUT  =      12
 INTTYP=BEST         GRDTYP=BEST         QMTTOL= 1.0E-06

     $SYSTEM OPTIONS
     ---------------
  REPLICATED MEMORY=    63000000 WORDS (ON EVERY NODE).
 DISTRIBUTED MEMDDI=          63 MILLION WORDS IN AGGREGATE,
 MEMDDI DISTRIBUTED OVER  16 PROCESSORS IS     3937500 WORDS/PROCESSOR.
 TOTAL MEMORY REQUESTED ON EACH PROCESSOR=    66937500 WORDS.
 TIMLIM=      525600.00 MINUTES, OR     365.0 DAYS.
 PARALL= T  BALTYP=  DLB     KDIAG=    0  COREFL= F
 MXSEQ2=     300 MXSEQ3=     150  mem10=         0

 ** LOOKING UP INTERNALLY STORED DATA FOR SOLVENT=WATER    **
 OPTICAL AND PHYSICAL CONSTANTS:
 EPS= 78.390; EPSINF=  1.776; RSOLV=  1.385 A; VMOL=  18.070 ML/MOL;
 TCE= .25700E-03 1/K; STEN= 71.810 DYN/CM;  DSTEN=  0.6500; CMF=  1.2770


     -----------------------------------
     INPUT FOR PCM SOLVATION CALCULATION 
     -----------------------------------
     IEF   =     -10
     ICOMP =       2     IFIELD=       0     ICAV  =       1
     IDISP =       1     IREP  =       0     IDP   =       0

     SOLVNT=WATER        EPS   = 78.3900     EPSINF=  1.7760
     VMOL  = 18.0700     TCE   =  0.00025700 STEN  = 71.8100
     DSTEN =  0.6500     CMF   =  1.2770     RSOLV =  1.3850

     NESFP =       0
     OMEGA = 40.0000     RET   =100.0000     FRO   =  0.7000

     TABS  =298.0000     IPRINT=       0

     --------------------------------
     INPUT FOR ITERATIVE C-PCM METHOD 
     --------------------------------
     IPCMIT  =         1     MXDIIS  =        50
     MXITR1  =       200     MXITR2  =       200
     THRES   = 0.100E-09     IMUL    =         3
     RCUT(1) =   20.0000     RCUT(2) =   50.0000

     IDIRCT  =         1
     IMGABI  =         0     RABI    =    4.0000
     IMGASC  =         0     RASC    =   20.0000
     THRSLS  = 0.500E-03     DENSLS  =    0.0100
     IEFPOL  =         1     REFPOL  =    0.0000

     INPUT FOR ISOTROPIC DIELECTRICS
     -------------------------------
     EPS=    78.39

          ----------------
          PROPERTIES INPUT
          ----------------

     MOMENTS            FIELD           POTENTIAL          DENSITY
 IEMOM =       1   IEFLD =       0   IEPOT =       0   IEDEN =       0
 WHERE =COMASS     WHERE =NUCLEI     WHERE =NUCLEI     WHERE =NUCLEI  
 OUTPUT=BOTH       OUTPUT=BOTH       OUTPUT=NONE       OUTPUT=BOTH    
 IEMINT=       0   IEFINT=       0                     IEDINT=       0
                                                       MORB  =       0
          EXTRAPOLATION IN EFFECT
          SOSCF IN EFFECT
 ORBITAL PRINTING OPTION: NPREO=     1 32767     2     1

     -------------------------------
     INTEGRAL TRANSFORMATION OPTIONS
     -------------------------------
     NWORD  =            0
     CUTOFF = 1.0E-10     MPTRAN =       0
     DIRTRF =       T     AOINTS =DUP     

          ----------------------
          INTEGRAL INPUT OPTIONS
          ----------------------
 NOPK  =       1 NORDER=       0 SCHWRZ=       T

 ..... DONE SETTING UP THE RUN .....
 CPU     0: STEP CPU TIME=     0.03 TOTAL CPU TIME=          0.0 (      0.0 MIN)
 TOTAL WALL CLOCK TIME=          0.1 SECONDS, CPU UTILIZATION IS    42.86%
 CPU     0: STEP CPU TIME=     0.00 TOTAL CPU TIME=          0.0 (      0.0 MIN)
 TOTAL WALL CLOCK TIME=          0.1 SECONDS, CPU UTILIZATION IS    42.86%

                    ----------------------
                    AO INTEGRAL TECHNOLOGY
                    ----------------------
     S,P,L SHELL ROTATED AXIS INTEGRALS, REPROGRAMMED BY
        KAZUYA ISHIMURA (IMS) AND JOSE SIERRA (SYNSTAR).
     S,P,D,L SHELL ROTATED AXIS INTEGRALS PROGRAMMED BY
        KAZUYA ISHIMURA (INSTITUTE FOR MOLECULAR SCIENCE).
     S,P,D,F,G SHELL TO TOTAL QUARTET ANGULAR MOMENTUM SUM 5,
        ERIC PROGRAM BY GRAHAM FLETCHER (ELORET AND NASA ADVANCED
        SUPERCOMPUTING DIVISION, AMES RESEARCH CENTER).
     S,P,D,F,G,L SHELL GENERAL RYS QUADRATURE PROGRAMMED BY
        MICHEL DUPUIS (PACIFIC NORTHWEST NATIONAL LABORATORY).
 Setting modorb=1 flag...
 Setting modorb=1 flag...

          -----------------------
          MP2 CONTROL INFORMATION
          -----------------------
          NACORE =        8  NBCORE =        8
          LMOMP2 =        F  AOINTS = DUP     
          METHOD =        2  NWORD  =               0
          MP2PRP =        F  OSPT   = NONE    
          CUTOFF = 1.00E-12  CPHFBS = BASISAO 
          CODE   = IMS     

          NUMBER OF CORE -A-  ORBITALS =     8
          NUMBER OF CORE -B-  ORBITALS =     8
          NUMBER OF OCC. -A-  ORBITALS =    18
          NUMBER OF OCC. -B-  ORBITALS =    18
          NUMBER OF MOLECULAR ORBITALS =    66
          NUMBER OF   BASIS  FUNCTIONS =    66

 CPU     0: STEP CPU TIME=     0.03 TOTAL CPU TIME=          0.1 (      0.0 MIN)
 TOTAL WALL CLOCK TIME=          0.1 SECONDS, CPU UTILIZATION IS    60.00%
 CPU     0: STEP CPU TIME=     0.00 TOTAL CPU TIME=          0.1 (      0.0 MIN)
 TOTAL WALL CLOCK TIME=          0.1 SECONDS, CPU UTILIZATION IS    54.55%

     INPUT FOR CAVITY DEFINITION 
     ---------------------------
   ATOM               COORDINATES                RADIUS       EPS
      1      1.2830     -9.7980      8.7770      0.0100     78.3900
      2      1.0720     -8.9120      9.1230      1.5900     78.3900
      3      2.1400     -8.5510     10.0110      1.7700     78.3900
      4      3.1100     -8.6110      9.4660      0.0100     78.3900
      5      2.1630     -9.2790     10.8530      0.0100     78.3900
      6      1.9820     -7.1440     10.5930      1.7700     78.3900
      7      2.8150     -6.9030     11.2850      0.0100     78.3900
      8      2.0060     -6.1550      9.5270      1.5900     78.3900
      9      1.0720     -5.1300      9.8270      1.7700     78.3900
     10      1.6400     -4.1740      9.8180      0.0100     78.3900
     11      0.0030     -5.0600      8.8260      1.6800     78.3900
     12     -0.8290     -3.9940      8.6090      1.7700     78.3900
     13     -1.9100     -0.8060      9.4100      1.6800     78.3900
     14     -1.3260     -0.5590     10.1780      0.0100     78.3900
     15     -2.6100     -0.1570      9.1000      0.0100     78.3900
     16     -0.8230     -2.8320      9.2900      1.6800     78.3900
     17     -1.7420     -1.9820      8.8400      1.7700     78.3900
     18     -2.5660     -2.2570      7.7790      1.6800     78.3900
     19     -3.2270     -1.5500      7.4990      0.0100     78.3900
     20     -2.5770     -3.4320      7.0400      1.7700     78.3900
     21     -3.3530     -3.5950      6.0920      1.5900     78.3900
     22     -1.6360     -4.3670      7.5490      1.7700     78.3900
     23     -1.3360     -5.6560      7.1270      1.6800     78.3900
     24     -0.3540     -6.0310      7.9150      1.7700     78.3900
     25      0.1670     -6.9920      7.8680      0.0100     78.3900
     26      0.5460     -5.3790     11.2240      1.7700     78.3900
     27     -0.5020     -5.0410     11.3520      0.0100     78.3900
     28      1.3760     -4.7290     12.1690      1.5900     78.3900
     29      1.0480     -4.9720     13.0430      0.0100     78.3900
     30      0.6540     -6.8970     11.3220      1.7700     78.3900
     31     -0.1440     -7.3800     10.7120      0.0100     78.3900
     32      0.7310     -7.4250     12.6630      1.5900     78.3900
     33     -0.5920     -7.8350     13.4090      2.1000     78.3900
     34     -1.4190     -8.6740     12.5210      1.5900     78.3900
     35     -0.2240     -8.4110     14.7200      1.5900     78.3900
     36     -1.3280     -6.4670     13.6380      1.5900     78.3900
     37     -0.8360     -5.5360     14.6320      1.7700     78.3900
     38      0.2450     -5.3040     14.4780      0.0100     78.3900
     39     -0.9230     -5.9730     15.6530      0.0100     78.3900
     40     -1.6440     -4.2290     14.6100      1.7700     78.3900
     41     -1.2360     -3.4980     15.3420      0.0100     78.3900
     42     -1.5660     -3.6150     13.2910      1.5900     78.3900
     43     -2.8090     -2.9940     12.9880      1.7700     78.3900
     44     -2.5660     -1.9210     12.8150      0.0100     78.3900
     45     -3.4550     -3.5450     11.7640      1.6800     78.3900
     46     -3.1560     -4.8190     11.3420      1.7700     78.3900
     47     -2.4490     -5.3700     11.9600      0.0100     78.3900
     48     -3.6830     -5.3260     10.2210      1.7700     78.3900
     49     -3.4230     -6.3140      9.8480      0.0100     78.3900
     50     -4.3760     -2.7820     11.0500      1.7700     78.3900
     51     -4.6530     -1.6380     11.4430      1.5900     78.3900
     52     -4.9340     -3.2880      9.9260      1.6800     78.3900
     53     -4.5970     -4.5120      9.4940      1.7700     78.3900
     54     -5.1340     -4.9620      8.3640      1.6800     78.3900
     55     -5.8070     -4.3970      7.8790      0.0100     78.3900
     56     -4.8920     -5.8500      7.9720      0.0100     78.3900
     57     -3.6890     -3.1100     14.2160      1.7700     78.3900
     58     -4.7560     -3.2230     13.9530      0.0100     78.3900
     59     -3.5160     -1.9850     15.0580      1.5900     78.3900
     60     -4.0010     -2.1650     15.8790      0.0100     78.3900
     61     -3.1530     -4.3810     14.8670      1.7700     78.3900
     62     -3.4870     -5.2810     14.3020      0.0100     78.3900
     63     -3.4070     -4.4910     16.2830      1.5900     78.3900
     64     -4.7750     -5.0810     16.7940      2.1000     78.3900
     65     -5.0570     -6.3260     16.0470      1.5900     78.3900
     66     -4.7160     -5.1650     18.2730      1.5900     78.3900
     67     -5.8530     -4.0040     16.4020      1.5900     78.3900
     68     -7.2430     -4.3830     16.2040      1.7700     78.3900
     69     -7.8030     -4.2810     17.1620      0.0100     78.3900
     70     -7.3530     -5.4470     15.8720      0.0100     78.3900
     71     -7.9410     -3.5020     15.1520      1.7700     78.3900
     72     -8.1500     -2.4870     15.5470      0.0100     78.3900
     73     -7.0690     -3.3420     13.9970      1.5900     78.3900
     74     -7.7790     -3.5490     12.8050      1.7700     78.3900
     75     -7.5270     -2.6860     12.1460      0.0100     78.3900
     76     -7.3790     -4.8220     12.1320      1.6800     78.3900
     77     -6.5710     -5.7480     12.7680      1.7700     78.3900
     78     -6.2800     -5.5050     13.7950      0.0100     78.3900
     79     -7.7770     -5.0150     10.8260      1.7700     78.3900
     80     -8.4560     -4.1990     10.2110      1.5900     78.3900
     81     -7.3510     -6.1880     10.2590      1.6800     78.3900
     82     -7.6060     -6.3200      9.2900      0.0100     78.3900
     83     -6.5110     -7.1310     10.8120      1.7700     78.3900
     84     -6.1450     -8.0950     10.1440      1.5900     78.3900
     85     -6.1370     -6.8670     12.1700      1.7700     78.3900
     86     -5.4810     -7.5720     12.6780      0.0100     78.3900
     87     -9.2450     -3.5050     13.1770      1.7700     78.3900
     88     -9.8600     -4.1260     12.5070      0.0100     78.3900
     89     -9.7110     -2.1640     13.1780      1.5900     78.3900
     90     -9.4250     -1.7190     12.3710      0.0100     78.3900
     91     -9.2350     -4.1040     14.5780      1.7700     78.3900
     92     -9.0840     -5.2060     14.5220      0.0100     78.3900
     93    -10.3640     -3.7400     15.4020      1.5900     78.3900
     94    -11.6330     -4.6630     15.5150      2.1000     78.3900
     95    -11.2210     -5.9100     16.1930      1.5900     78.3900
     96    -12.7310     -3.9050     16.1550      1.5900     78.3900
     97    -12.0600     -5.0450     14.0490      1.5900     78.3900
     98    -12.6940     -4.1080     13.1510      1.7700     78.3900
     99    -12.1130     -3.1590     13.0900      0.0100     78.3900
    100    -13.7080     -3.8520     13.5270      0.0100     78.3900
    101    -12.8320     -4.6690     11.7160      1.7700     78.3900
    102    -13.3050     -3.9050     11.0600      0.0100     78.3900
    103    -11.5160     -4.9490     11.1680      1.5900     78.3900
    104    -11.5240     -6.1150     10.3810      1.7700     78.3900
    105    -11.1250     -5.8020      9.3850      0.0100     78.3900
    106    -10.6510     -7.1720     10.9450      1.6800     78.3900
    107    -10.2550     -7.1360     12.2600      1.7700     78.3900
    108    -10.6570     -6.3140     12.8470      0.0100     78.3900
    109    -10.2020     -8.1600     10.1020      1.7700     78.3900
    110    -10.5100     -8.2030      8.9150      1.5900     78.3900
    111     -9.3720     -9.0840     10.6850      1.6800     78.3900
    112     -9.0330     -9.8140     10.0800      0.0100     78.3900
    113     -8.9160     -9.0960     11.9860      1.7700     78.3900
    114     -8.1440     -9.9740     12.3660      1.5900     78.3900
    115     -9.4140     -8.0280     12.7950      1.7700     78.3900
    116     -9.1020     -7.9620     13.8350      0.0100     78.3900
    117    -12.9640     -6.5400     10.2420      1.7700     78.3900
    118    -13.0940     -7.6430     10.1710      0.0100     78.3900
    119    -13.4850     -5.9050      9.0920      1.5900     78.3900
    120    -13.7030     -5.0000      9.3210      0.0100     78.3900
    121    -13.5860     -5.9870     11.5360      1.7700     78.3900
    122    -13.3160     -6.6350     12.4000      0.0100     78.3900
    123    -15.0030     -5.7200     11.5070      1.5900     78.3900
    124    -15.9880     -6.8830     11.1130      2.1000     78.3900
    125    -15.3640     -8.1950     11.4110      1.5900     78.3900
    126    -17.2990     -6.6060     11.7410      1.5900     78.3900
    127    -16.1360     -6.7020      9.5690      1.5900     78.3900
    128    -16.5770     -7.7420      8.6780      1.7700     78.3900
    129    -17.1270     -8.5540      9.2110      0.0100     78.3900
    130    -15.6930     -8.2090      8.1930      0.0100     78.3900
    131    -17.4800     -7.1590      7.5840      1.7700     78.3900
    132    -17.9050     -7.9640      6.9510      0.0100     78.3900
    133    -18.6010     -6.4500      8.2020      1.5900     78.3900
    134    -18.8520     -5.2580      7.4770      1.7700     78.3900
    135    -19.9300     -5.2910      7.1970      0.0100     78.3900
    136    -18.6110     -4.0600      8.2880      1.6800     78.3900
    137    -18.7120     -2.0100      9.0770      1.7700     78.3900
    138    -17.8250     -2.6960      9.8960      1.6800     78.3900
    139    -17.7980     -3.9030      9.3850      1.7700     78.3900
    140    -17.2230     -4.7320      9.7870      0.0100     78.3900
    141    -20.0980     -0.3310      8.1400      1.6800     78.3900
    142    -20.4610     -1.2440      7.2330      1.7700     78.3900
    143    -21.1700     -0.8990      6.4760      0.0100     78.3900
    144    -20.0780     -2.5210      7.1210      1.6800     78.3900
    145    -19.1970     -2.8410      8.0830      1.7700     78.3900
    146    -19.2050     -0.6870      9.1000      1.7700     78.3900
    147    -18.8510      0.2290     10.0230      1.6800     78.3900
    148    -18.1990      0.0180     10.7530      0.0100     78.3900
    149    -19.2020      1.1670      9.9490      0.0100     78.3900
    150    -18.0090     -5.2880      6.2170      1.7700     78.3900
    151    -17.6890     -4.2750      5.8900      0.0100     78.3900
    152    -18.7310     -5.9320      5.1800      1.5900     78.3900
    153    -18.1250     -6.0690      4.4350      0.0100     78.3900
    154    -16.8070     -6.1170      6.6630      1.7700     78.3900
    155    -16.1260     -5.5090      7.3040      0.0100     78.3900
    156    -16.1010     -6.7770      5.5880      1.5900     78.3900
    157    -14.9220     -6.0560      4.8220      2.1000     78.3900
    158    -13.7690     -5.8640      5.7240      1.5900     78.3900
    159    -14.6450     -6.8200      3.5880      1.5900     78.3900
    160    -15.4850     -4.6500      4.3820      1.5900     78.3900
    161    -14.5620     -3.5720      4.0620      1.7700     78.3900
    162    -14.5450     -3.4110      2.9620      0.0100     78.3900
    163    -13.5110     -3.7760      4.3810      0.0100     78.3900
    164    -14.9870     -2.2580      4.7270      1.7700     78.3900
    165    -15.9410     -1.8920      4.2920      0.0100     78.3900
    166    -15.2300     -2.4940      6.1440      1.5900     78.3900
    167    -14.8180     -1.3700      6.8910      1.7700     78.3900
    168    -15.7190     -1.0440      7.4610      0.0100     78.3900
    169    -13.7080     -1.6860      7.8300      1.6800     78.3900
    170    -12.7960     -2.6730      7.5220      1.7700     78.3900
    171    -12.9850     -3.2380      6.6050      0.0100     78.3900
    172    -11.7700     -2.9480      8.3390      1.7700     78.3900
    173    -11.0430     -3.7280      8.1220      0.0100     78.3900
    174    -13.5670     -0.9500      9.0060      1.7700     78.3900
    175    -14.3930     -0.0630      9.2620      1.5900     78.3900
    176    -12.5400     -1.2150      9.8430      1.6800     78.3900
    177    -11.6500     -2.1680      9.5240      1.7700     78.3900
    178    -10.6510     -2.3740     10.3640      1.6800     78.3900
    179    -10.1500     -3.2410     10.2860      0.0100     78.3900
    180    -10.8100     -2.0390     11.2880      0.0100     78.3900
    181    -14.4350     -0.2890      5.9010      1.7700     78.3900
    182    -13.6270      0.3370      6.2950      0.0100     78.3900
    183    -15.5460      0.5280      5.5810      1.5900     78.3900
    184    -15.3080      1.0440      4.7970      0.0100     78.3900
    185    -13.9650     -1.1030      4.7030      1.7700     78.3900
    186    -12.9680     -1.5580      4.9070      0.0100     78.3900
    187    -14.0140     -0.3760      3.4520      1.5900     78.3900
    188    -12.6940      0.0790      2.7220      2.1000     78.3900
    189    -11.8980     -1.1280      2.4130      1.5900     78.3900
    190    -13.0620      0.9260      1.5690      1.5900     78.3900
    191    -11.9150      0.9630      3.7650      1.5900     78.3900
    192    -12.4500      2.2290      4.2230      1.7700     78.3900
    193    -13.5420      2.1610      4.4410      0.0100     78.3900
    194    -12.3110      3.0120      3.4430      0.0100     78.3900
    195    -11.7550      2.6960      5.5190      1.7700     78.3900
    196    -12.2360      3.6170      5.9110      0.0100     78.3900
    197    -11.8720      1.6720      6.5460      1.5900     78.3900
    198    -10.6610      1.5530      7.2620      1.7700     78.3900
    199    -10.9150      1.6130      8.3470      0.0100     78.3900
    200     -9.9950      0.2650      6.9910      1.6800     78.3900
    201     -8.9500     -0.2680      7.6940      1.7700     78.3900
    202     -6.6500     -0.0510     10.2680      1.6800     78.3900
    203     -6.8660      0.8340     10.6750      0.0100     78.3900
    204     -5.9040     -0.6010     10.6520      0.0100     78.3900
    205     -8.3410      0.2970      8.7460      1.6800     78.3900
    206     -7.3660     -0.4630      9.2370      1.7700     78.3900
    207     -7.0370     -1.6870      8.7200      1.6800     78.3900
    208     -6.2950     -2.2090      9.1600      0.0100     78.3900
    209     -7.6570     -2.3030      7.6420      1.7700     78.3900
    210     -7.2950     -3.4110      7.2330      1.5900     78.3900
    211     -8.6770     -1.4830      7.0950      1.7700     78.3900
    212     -9.5210     -1.7040      6.0170      1.6800     78.3900
    213    -10.2920     -0.6440      6.0000      1.7700     78.3900
    214    -11.1030     -0.4710      5.2960      0.0100     78.3900
    215     -9.8140      2.7320      6.8680      1.7700     78.3900
    216     -8.7290      2.5240      6.9480      0.0100     78.3900
    217    -10.1510      3.8400      7.6820      1.5900     78.3900
    218     -9.6520      4.5940      7.3480      0.0100     78.3900
    219    -10.2470      2.9460      5.4200      1.7700     78.3900
    220     -9.8370      2.1410      4.7650      0.0100     78.3900
    221    -10.0110      4.2710      4.9070      1.5900     78.3900
    222     -8.7230      4.5670      4.0620      2.1000     78.3900
    223     -8.5180      3.4800      3.0800      1.5900     78.3900
    224     -8.8260      5.9380      3.5150      1.5900     78.3900
    225     -7.5650      4.5140      5.1280      1.5900     78.3900
    226     -7.5270      5.4870      6.1990      1.7700     78.3900
    227     -8.4940      5.5450      6.7460      0.0100     78.3900
    228     -7.3170      6.4970      5.7840      0.0100     78.3900
    229     -6.4210      5.1600      7.2090      1.7700     78.3900
    230     -6.3520      5.9350      8.0000      0.0100     78.3900
    231     -6.7000      3.8910      7.8650      1.5900     78.3900
    232     -5.4810      3.1790      8.0440      1.7700     78.3900
    233     -5.4060      2.9740      9.1380      0.0100     78.3900
    234     -5.4570      1.8880      7.2990      1.6800     78.3900
    235     -6.3030      1.6840      6.2340      1.7700     78.3900
    236     -6.9840      2.5000      6.0000      0.0100     78.3900
    237     -6.3200      0.5280      5.5610      1.7700     78.3900
    238     -7.0140      0.3410      4.7450      0.0100     78.3900
    239     -4.5410      0.9000      7.6440      1.7700     78.3900
    240     -3.7460      1.1110      8.5720      1.5900     78.3900
    241     -4.5320     -0.2720      6.9690      1.6800     78.3900
    242     -5.3920     -0.4750      5.9550      1.7700     78.3900
    243     -5.3820     -1.6470      5.3260      1.6800     78.3900
    244     -4.7290     -2.3550      5.6050      0.0100     78.3900
    245     -6.0160     -1.8530      4.5810      0.0100     78.3900
    246     -4.3450      4.1020      7.6330      1.7700     78.3900
    247     -3.4950      3.5450      7.1830      0.0100     78.3900
    248     -3.8950      4.8570      8.7480      1.5900     78.3900
    249     -3.2440      5.5140      8.4400      0.0100     78.3900
    250     -5.0330      4.9730      6.5890      1.7700     78.3900
    251     -5.1480      4.4120      5.6380      0.0100     78.3900
    252     -4.4040      6.2470      6.3620      1.5900     78.3900
    253     -3.5590      6.1180      5.8910      0.0100     78.3900

     ----------------------------
     INPUT FOR TESSERA DEFINITION
     ----------------------------
     NTSALL  =        60     MTHALL  =         4
     MTHAUT  =         0     AUTFRE  =    2.0000
     NTSFRZ  =        60     KEEPSM  =         0
     AREAKP  =   10.0000     BONDRY  =    1.0000
     AREATL  =    0.0100

     SPHERE     INITS       METHOD
          1        60       FIXPVA
          2        60       FIXPVA
          3        60       FIXPVA
          4        60       FIXPVA
          5        60       FIXPVA
          6        60       FIXPVA
          7        60       FIXPVA
          8        60       FIXPVA
          9        60       FIXPVA
         10        60       FIXPVA
         11        60       FIXPVA
         12        60       FIXPVA
         13        60       FIXPVA
         14        60       FIXPVA
         15        60       FIXPVA
         16        60       FIXPVA
         17        60       FIXPVA
         18        60       FIXPVA
         19        60       FIXPVA
         20        60       FIXPVA
         21        60       FIXPVA
         22        60       FIXPVA
         23        60       FIXPVA
         24        60       FIXPVA
         25        60       FIXPVA
         26        60       FIXPVA
         27        60       FIXPVA
         28        60       FIXPVA
         29        60       FIXPVA
         30        60       FIXPVA
         31        60       FIXPVA
         32        60       FIXPVA
         33        60       FIXPVA
         34        60       FIXPVA
         35        60       FIXPVA
         36        60       FIXPVA
         37        60       FIXPVA
         38        60       FIXPVA
         39        60       FIXPVA
         40        60       FIXPVA
         41        60       FIXPVA
         42        60       FIXPVA
         43        60       FIXPVA
         44        60       FIXPVA
         45        60       FIXPVA
         46        60       FIXPVA
         47        60       FIXPVA
         48        60       FIXPVA
         49        60       FIXPVA
         50        60       FIXPVA
         51        60       FIXPVA
         52        60       FIXPVA
         53        60       FIXPVA
         54        60       FIXPVA
         55        60       FIXPVA
         56        60       FIXPVA
         57        60       FIXPVA
         58        60       FIXPVA
         59        60       FIXPVA
         60        60       FIXPVA
         61        60       FIXPVA
         62        60       FIXPVA
         63        60       FIXPVA
         64        60       FIXPVA
         65        60       FIXPVA
         66        60       FIXPVA
         67        60       FIXPVA
         68        60       FIXPVA
         69        60       FIXPVA
         70        60       FIXPVA
         71        60       FIXPVA
         72        60       FIXPVA
         73        60       FIXPVA
         74        60       FIXPVA
         75        60       FIXPVA
         76        60       FIXPVA
         77        60       FIXPVA
         78        60       FIXPVA
         79        60       FIXPVA
         80        60       FIXPVA
         81        60       FIXPVA
         82        60       FIXPVA
         83        60       FIXPVA
         84        60       FIXPVA
         85        60       FIXPVA
         86        60       FIXPVA
         87        60       FIXPVA
         88        60       FIXPVA
         89        60       FIXPVA
         90        60       FIXPVA
         91        60       FIXPVA
         92        60       FIXPVA
         93        60       FIXPVA
         94        60       FIXPVA
         95        60       FIXPVA
         96        60       FIXPVA
         97        60       FIXPVA
         98        60       FIXPVA
         99        60       FIXPVA
        100        60       FIXPVA
        101        60       FIXPVA
        102        60       FIXPVA
        103        60       FIXPVA
        104        60       FIXPVA
        105        60       FIXPVA
        106        60       FIXPVA
        107        60       FIXPVA
        108        60       FIXPVA
        109        60       FIXPVA
        110        60       FIXPVA
        111        60       FIXPVA
        112        60       FIXPVA
        113        60       FIXPVA
        114        60       FIXPVA
        115        60       FIXPVA
        116        60       FIXPVA
        117        60       FIXPVA
        118        60       FIXPVA
        119        60       FIXPVA
        120        60       FIXPVA
        121        60       FIXPVA
        122        60       FIXPVA
        123        60       FIXPVA
        124        60       FIXPVA
        125        60       FIXPVA
        126        60       FIXPVA
        127        60       FIXPVA
        128        60       FIXPVA
        129        60       FIXPVA
        130        60       FIXPVA
        131        60       FIXPVA
        132        60       FIXPVA
        133        60       FIXPVA
        134        60       FIXPVA
        135        60       FIXPVA
        136        60       FIXPVA
        137        60       FIXPVA
        138        60       FIXPVA
        139        60       FIXPVA
        140        60       FIXPVA
        141        60       FIXPVA
        142        60       FIXPVA
        143        60       FIXPVA
        144        60       FIXPVA
        145        60       FIXPVA
        146        60       FIXPVA
        147        60       FIXPVA
        148        60       FIXPVA
        149        60       FIXPVA
        150        60       FIXPVA
        151        60       FIXPVA
        152        60       FIXPVA
        153        60       FIXPVA
        154        60       FIXPVA
        155        60       FIXPVA
        156        60       FIXPVA
        157        60       FIXPVA
        158        60       FIXPVA
        159        60       FIXPVA
        160        60       FIXPVA
        161        60       FIXPVA
        162        60       FIXPVA
        163        60       FIXPVA
        164        60       FIXPVA
        165        60       FIXPVA
        166        60       FIXPVA
        167        60       FIXPVA
        168        60       FIXPVA
        169        60       FIXPVA
        170        60       FIXPVA
        171        60       FIXPVA
        172        60       FIXPVA
        173        60       FIXPVA
        174        60       FIXPVA
        175        60       FIXPVA
        176        60       FIXPVA
        177        60       FIXPVA
        178        60       FIXPVA
        179        60       FIXPVA
        180        60       FIXPVA
        181        60       FIXPVA
        182        60       FIXPVA
        183        60       FIXPVA
        184        60       FIXPVA
        185        60       FIXPVA
        186        60       FIXPVA
        187        60       FIXPVA
        188        60       FIXPVA
        189        60       FIXPVA
        190        60       FIXPVA
        191        60       FIXPVA
        192        60       FIXPVA
        193        60       FIXPVA
        194        60       FIXPVA
        195        60       FIXPVA
        196        60       FIXPVA
        197        60       FIXPVA
        198        60       FIXPVA
        199        60       FIXPVA
        200        60       FIXPVA
        201        60       FIXPVA
        202        60       FIXPVA
        203        60       FIXPVA
        204        60       FIXPVA
        205        60       FIXPVA
        206        60       FIXPVA
        207        60       FIXPVA
        208        60       FIXPVA
        209        60       FIXPVA
        210        60       FIXPVA
        211        60       FIXPVA
        212        60       FIXPVA
        213        60       FIXPVA
        214        60       FIXPVA
        215        60       FIXPVA
        216        60       FIXPVA
        217        60       FIXPVA
        218        60       FIXPVA
        219        60       FIXPVA
        220        60       FIXPVA
        221        60       FIXPVA
        222        60       FIXPVA
        223        60       FIXPVA
        224        60       FIXPVA
        225        60       FIXPVA
        226        60       FIXPVA
        227        60       FIXPVA
        228        60       FIXPVA
        229        60       FIXPVA
        230        60       FIXPVA
        231        60       FIXPVA
        232        60       FIXPVA
        233        60       FIXPVA
        234        60       FIXPVA
        235        60       FIXPVA
        236        60       FIXPVA
        237        60       FIXPVA
        238        60       FIXPVA
        239        60       FIXPVA
        240        60       FIXPVA
        241        60       FIXPVA
        242        60       FIXPVA
        243        60       FIXPVA
        244        60       FIXPVA
        245        60       FIXPVA
        246        60       FIXPVA
        247        60       FIXPVA
        248        60       FIXPVA
        249        60       FIXPVA
        250        60       FIXPVA
        251        60       FIXPVA
        252        60       FIXPVA
        253        60       FIXPVA

     ------------------------------
      FIXPVA TESSELLATION FOR PCM
         PEIFENG SU AND HUI LI
     UNIVERSITY OF NEBRASKA-LINCOLN
     ------------------------------


 PCM DIMENSIONS: MXSP=   253, MXTS=     10120, MEMORY=        103986

     INPUT FOR CAVITY DEFINITION 
     ---------------------------
   ATOM               COORDINATES                RADIUS       EPS
      1      1.2830     -9.7980      8.7770      0.0100     78.3900
      2      1.0720     -8.9120      9.1230      1.5900     78.3900
      3      2.1400     -8.5510     10.0110      1.7700     78.3900
      4      3.1100     -8.6110      9.4660      0.0100     78.3900
      5      2.1630     -9.2790     10.8530      0.0100     78.3900
      6      1.9820     -7.1440     10.5930      1.7700     78.3900
      7      2.8150     -6.9030     11.2850      0.0100     78.3900
      8      2.0060     -6.1550      9.5270      1.5900     78.3900
      9      1.0720     -5.1300      9.8270      1.7700     78.3900
     10      1.6400     -4.1740      9.8180      0.0100     78.3900
     11      0.0030     -5.0600      8.8260      1.6800     78.3900
     12     -0.8290     -3.9940      8.6090      1.7700     78.3900
     13     -1.9100     -0.8060      9.4100      1.6800     78.3900
     14     -1.3260     -0.5590     10.1780      0.0100     78.3900
     15     -2.6100     -0.1570      9.1000      0.0100     78.3900
     16     -0.8230     -2.8320      9.2900      1.6800     78.3900
     17     -1.7420     -1.9820      8.8400      1.7700     78.3900
     18     -2.5660     -2.2570      7.7790      1.6800     78.3900
     19     -3.2270     -1.5500      7.4990      0.0100     78.3900
     20     -2.5770     -3.4320      7.0400      1.7700     78.3900
     21     -3.3530     -3.5950      6.0920      1.5900     78.3900
     22     -1.6360     -4.3670      7.5490      1.7700     78.3900
     23     -1.3360     -5.6560      7.1270      1.6800     78.3900
     24     -0.3540     -6.0310      7.9150      1.7700     78.3900
     25      0.1670     -6.9920      7.8680      0.0100     78.3900
     26      0.5460     -5.3790     11.2240      1.7700     78.3900
     27     -0.5020     -5.0410     11.3520      0.0100     78.3900
     28      1.3760     -4.7290     12.1690      1.5900     78.3900
     29      1.0480     -4.9720     13.0430      0.0100     78.3900
     30      0.6540     -6.8970     11.3220      1.7700     78.3900
     31     -0.1440     -7.3800     10.7120      0.0100     78.3900
     32      0.7310     -7.4250     12.6630      1.5900     78.3900
     33     -0.5920     -7.8350     13.4090      2.1000     78.3900
     34     -1.4190     -8.6740     12.5210      1.5900     78.3900
     35     -0.2240     -8.4110     14.7200      1.5900     78.3900
     36     -1.3280     -6.4670     13.6380      1.5900     78.3900
     37     -0.8360     -5.5360     14.6320      1.7700     78.3900
     38      0.2450     -5.3040     14.4780      0.0100     78.3900
     39     -0.9230     -5.9730     15.6530      0.0100     78.3900
     40     -1.6440     -4.2290     14.6100      1.7700     78.3900
     41     -1.2360     -3.4980     15.3420      0.0100     78.3900
     42     -1.5660     -3.6150     13.2910      1.5900     78.3900
     43     -2.8090     -2.9940     12.9880      1.7700     78.3900
     44     -2.5660     -1.9210     12.8150      0.0100     78.3900
     45     -3.4550     -3.5450     11.7640      1.6800     78.3900
     46     -3.1560     -4.8190     11.3420      1.7700     78.3900
     47     -2.4490     -5.3700     11.9600      0.0100     78.3900
     48     -3.6830     -5.3260     10.2210      1.7700     78.3900
     49     -3.4230     -6.3140      9.8480      0.0100     78.3900
     50     -4.3760     -2.7820     11.0500      1.7700     78.3900
     51     -4.6530     -1.6380     11.4430      1.5900     78.3900
     52     -4.9340     -3.2880      9.9260      1.6800     78.3900
     53     -4.5970     -4.5120      9.4940      1.7700     78.3900
     54     -5.1340     -4.9620      8.3640      1.6800     78.3900
     55     -5.8070     -4.3970      7.8790      0.0100     78.3900
     56     -4.8920     -5.8500      7.9720      0.0100     78.3900
     57     -3.6890     -3.1100     14.2160      1.7700     78.3900
     58     -4.7560     -3.2230     13.9530      0.0100     78.3900
     59     -3.5160     -1.9850     15.0580      1.5900     78.3900
     60     -4.0010     -2.1650     15.8790      0.0100     78.3900
     61     -3.1530     -4.3810     14.8670      1.7700     78.3900
     62     -3.4870     -5.2810     14.3020      0.0100     78.3900
     63     -3.4070     -4.4910     16.2830      1.5900     78.3900
     64     -4.7750     -5.0810     16.7940      2.1000     78.3900
     65     -5.0570     -6.3260     16.0470      1.5900     78.3900
     66     -4.7160     -5.1650     18.2730      1.5900     78.3900
     67     -5.8530     -4.0040     16.4020      1.5900     78.3900
     68     -7.2430     -4.3830     16.2040      1.7700     78.3900
     69     -7.8030     -4.2810     17.1620      0.0100     78.3900
     70     -7.3530     -5.4470     15.8720      0.0100     78.3900
     71     -7.9410     -3.5020     15.1520      1.7700     78.3900
     72     -8.1500     -2.4870     15.5470      0.0100     78.3900
     73     -7.0690     -3.3420     13.9970      1.5900     78.3900
     74     -7.7790     -3.5490     12.8050      1.7700     78.3900
     75     -7.5270     -2.6860     12.1460      0.0100     78.3900
     76     -7.3790     -4.8220     12.1320      1.6800     78.3900
     77     -6.5710     -5.7480     12.7680      1.7700     78.3900
     78     -6.2800     -5.5050     13.7950      0.0100     78.3900
     79     -7.7770     -5.0150     10.8260      1.7700     78.3900
     80     -8.4560     -4.1990     10.2110      1.5900     78.3900
     81     -7.3510     -6.1880     10.2590      1.6800     78.3900
     82     -7.6060     -6.3200      9.2900      0.0100     78.3900
     83     -6.5110     -7.1310     10.8120      1.7700     78.3900
     84     -6.1450     -8.0950     10.1440      1.5900     78.3900
     85     -6.1370     -6.8670     12.1700      1.7700     78.3900
     86     -5.4810     -7.5720     12.6780      0.0100     78.3900
     87     -9.2450     -3.5050     13.1770      1.7700     78.3900
     88     -9.8600     -4.1260     12.5070      0.0100     78.3900
     89     -9.7110     -2.1640     13.1780      1.5900     78.3900
     90     -9.4250     -1.7190     12.3710      0.0100     78.3900
     91     -9.2350     -4.1040     14.5780      1.7700     78.3900
     92     -9.0840     -5.2060     14.5220      0.0100     78.3900
     93    -10.3640     -3.7400     15.4020      1.5900     78.3900
     94    -11.6330     -4.6630     15.5150      2.1000     78.3900
     95    -11.2210     -5.9100     16.1930      1.5900     78.3900
     96    -12.7310     -3.9050     16.1550      1.5900     78.3900
     97    -12.0600     -5.0450     14.0490      1.5900     78.3900
     98    -12.6940     -4.1080     13.1510      1.7700     78.3900
     99    -12.1130     -3.1590     13.0900      0.0100     78.3900
    100    -13.7080     -3.8520     13.5270      0.0100     78.3900
    101    -12.8320     -4.6690     11.7160      1.7700     78.3900
    102    -13.3050     -3.9050     11.0600      0.0100     78.3900
    103    -11.5160     -4.9490     11.1680      1.5900     78.3900
    104    -11.5240     -6.1150     10.3810      1.7700     78.3900
    105    -11.1250     -5.8020      9.3850      0.0100     78.3900
    106    -10.6510     -7.1720     10.9450      1.6800     78.3900
    107    -10.2550     -7.1360     12.2600      1.7700     78.3900
    108    -10.6570     -6.3140     12.8470      0.0100     78.3900
    109    -10.2020     -8.1600     10.1020      1.7700     78.3900
    110    -10.5100     -8.2030      8.9150      1.5900     78.3900
    111     -9.3720     -9.0840     10.6850      1.6800     78.3900
    112     -9.0330     -9.8140     10.0800      0.0100     78.3900
    113     -8.9160     -9.0960     11.9860      1.7700     78.3900
    114     -8.1440     -9.9740     12.3660      1.5900     78.3900
    115     -9.4140     -8.0280     12.7950      1.7700     78.3900
    116     -9.1020     -7.9620     13.8350      0.0100     78.3900
    117    -12.9640     -6.5400     10.2420      1.7700     78.3900
    118    -13.0940     -7.6430     10.1710      0.0100     78.3900
    119    -13.4850     -5.9050      9.0920      1.5900     78.3900
    120    -13.7030     -5.0000      9.3210      0.0100     78.3900
    121    -13.5860     -5.9870     11.5360      1.7700     78.3900
    122    -13.3160     -6.6350     12.4000      0.0100     78.3900
    123    -15.0030     -5.7200     11.5070      1.5900     78.3900
    124    -15.9880     -6.8830     11.1130      2.1000     78.3900
    125    -15.3640     -8.1950     11.4110      1.5900     78.3900
    126    -17.2990     -6.6060     11.7410      1.5900     78.3900
    127    -16.1360     -6.7020      9.5690      1.5900     78.3900
    128    -16.5770     -7.7420      8.6780      1.7700     78.3900
    129    -17.1270     -8.5540      9.2110      0.0100     78.3900
    130    -15.6930     -8.2090      8.1930      0.0100     78.3900
    131    -17.4800     -7.1590      7.5840      1.7700     78.3900
    132    -17.9050     -7.9640      6.9510      0.0100     78.3900
    133    -18.6010     -6.4500      8.2020      1.5900     78.3900
    134    -18.8520     -5.2580      7.4770      1.7700     78.3900
    135    -19.9300     -5.2910      7.1970      0.0100     78.3900
    136    -18.6110     -4.0600      8.2880      1.6800     78.3900
    137    -18.7120     -2.0100      9.0770      1.7700     78.3900
    138    -17.8250     -2.6960      9.8960      1.6800     78.3900
    139    -17.7980     -3.9030      9.3850      1.7700     78.3900
    140    -17.2230     -4.7320      9.7870      0.0100     78.3900
    141    -20.0980     -0.3310      8.1400      1.6800     78.3900
    142    -20.4610     -1.2440      7.2330      1.7700     78.3900
    143    -21.1700     -0.8990      6.4760      0.0100     78.3900
    144    -20.0780     -2.5210      7.1210      1.6800     78.3900
    145    -19.1970     -2.8410      8.0830      1.7700     78.3900
    146    -19.2050     -0.6870      9.1000      1.7700     78.3900
    147    -18.8510      0.2290     10.0230      1.6800     78.3900
    148    -18.1990      0.0180     10.7530      0.0100     78.3900
    149    -19.2020      1.1670      9.9490      0.0100     78.3900
    150    -18.0090     -5.2880      6.2170      1.7700     78.3900
    151    -17.6890     -4.2750      5.8900      0.0100     78.3900
    152    -18.7310     -5.9320      5.1800      1.5900     78.3900
    153    -18.1250     -6.0690      4.4350      0.0100     78.3900
    154    -16.8070     -6.1170      6.6630      1.7700     78.3900
    155    -16.1260     -5.5090      7.3040      0.0100     78.3900
    156    -16.1010     -6.7770      5.5880      1.5900     78.3900
    157    -14.9220     -6.0560      4.8220      2.1000     78.3900
    158    -13.7690     -5.8640      5.7240      1.5900     78.3900
    159    -14.6450     -6.8200      3.5880      1.5900     78.3900
    160    -15.4850     -4.6500      4.3820      1.5900     78.3900
    161    -14.5620     -3.5720      4.0620      1.7700     78.3900
    162    -14.5450     -3.4110      2.9620      0.0100     78.3900
    163    -13.5110     -3.7760      4.3810      0.0100     78.3900
    164    -14.9870     -2.2580      4.7270      1.7700     78.3900
    165    -15.9410     -1.8920      4.2920      0.0100     78.3900
    166    -15.2300     -2.4940      6.1440      1.5900     78.3900
    167    -14.8180     -1.3700      6.8910      1.7700     78.3900
    168    -15.7190     -1.0440      7.4610      0.0100     78.3900
    169    -13.7080     -1.6860      7.8300      1.6800     78.3900
    170    -12.7960     -2.6730      7.5220      1.7700     78.3900
    171    -12.9850     -3.2380      6.6050      0.0100     78.3900
    172    -11.7700     -2.9480      8.3390      1.7700     78.3900
    173    -11.0430     -3.7280      8.1220      0.0100     78.3900
    174    -13.5670     -0.9500      9.0060      1.7700     78.3900
    175    -14.3930     -0.0630      9.2620      1.5900     78.3900
    176    -12.5400     -1.2150      9.8430      1.6800     78.3900
    177    -11.6500     -2.1680      9.5240      1.7700     78.3900
    178    -10.6510     -2.3740     10.3640      1.6800     78.3900
    179    -10.1500     -3.2410     10.2860      0.0100     78.3900
    180    -10.8100     -2.0390     11.2880      0.0100     78.3900
    181    -14.4350     -0.2890      5.9010      1.7700     78.3900
    182    -13.6270      0.3370      6.2950      0.0100     78.3900
    183    -15.5460      0.5280      5.5810      1.5900     78.3900
    184    -15.3080      1.0440      4.7970      0.0100     78.3900
    185    -13.9650     -1.1030      4.7030      1.7700     78.3900
    186    -12.9680     -1.5580      4.9070      0.0100     78.3900
    187    -14.0140     -0.3760      3.4520      1.5900     78.3900
    188    -12.6940      0.0790      2.7220      2.1000     78.3900
    189    -11.8980     -1.1280      2.4130      1.5900     78.3900
    190    -13.0620      0.9260      1.5690      1.5900     78.3900
    191    -11.9150      0.9630      3.7650      1.5900     78.3900
    192    -12.4500      2.2290      4.2230      1.7700     78.3900
    193    -13.5420      2.1610      4.4410      0.0100     78.3900
    194    -12.3110      3.0120      3.4430      0.0100     78.3900
    195    -11.7550      2.6960      5.5190      1.7700     78.3900
    196    -12.2360      3.6170      5.9110      0.0100     78.3900
    197    -11.8720      1.6720      6.5460      1.5900     78.3900
    198    -10.6610      1.5530      7.2620      1.7700     78.3900
    199    -10.9150      1.6130      8.3470      0.0100     78.3900
    200     -9.9950      0.2650      6.9910      1.6800     78.3900
    201     -8.9500     -0.2680      7.6940      1.7700     78.3900
    202     -6.6500     -0.0510     10.2680      1.6800     78.3900
    203     -6.8660      0.8340     10.6750      0.0100     78.3900
    204     -5.9040     -0.6010     10.6520      0.0100     78.3900
    205     -8.3410      0.2970      8.7460      1.6800     78.3900
    206     -7.3660     -0.4630      9.2370      1.7700     78.3900
    207     -7.0370     -1.6870      8.7200      1.6800     78.3900
    208     -6.2950     -2.2090      9.1600      0.0100     78.3900
    209     -7.6570     -2.3030      7.6420      1.7700     78.3900
    210     -7.2950     -3.4110      7.2330      1.5900     78.3900
    211     -8.6770     -1.4830      7.0950      1.7700     78.3900
    212     -9.5210     -1.7040      6.0170      1.6800     78.3900
    213    -10.2920     -0.6440      6.0000      1.7700     78.3900
    214    -11.1030     -0.4710      5.2960      0.0100     78.3900
    215     -9.8140      2.7320      6.8680      1.7700     78.3900
    216     -8.7290      2.5240      6.9480      0.0100     78.3900
    217    -10.1510      3.8400      7.6820      1.5900     78.3900
    218     -9.6520      4.5940      7.3480      0.0100     78.3900
    219    -10.2470      2.9460      5.4200      1.7700     78.3900
    220     -9.8370      2.1410      4.7650      0.0100     78.3900
    221    -10.0110      4.2710      4.9070      1.5900     78.3900
    222     -8.7230      4.5670      4.0620      2.1000     78.3900
    223     -8.5180      3.4800      3.0800      1.5900     78.3900
    224     -8.8260      5.9380      3.5150      1.5900     78.3900
    225     -7.5650      4.5140      5.1280      1.5900     78.3900
    226     -7.5270      5.4870      6.1990      1.7700     78.3900
    227     -8.4940      5.5450      6.7460      0.0100     78.3900
    228     -7.3170      6.4970      5.7840      0.0100     78.3900
    229     -6.4210      5.1600      7.2090      1.7700     78.3900
    230     -6.3520      5.9350      8.0000      0.0100     78.3900
    231     -6.7000      3.8910      7.8650      1.5900     78.3900
    232     -5.4810      3.1790      8.0440      1.7700     78.3900
    233     -5.4060      2.9740      9.1380      0.0100     78.3900
    234     -5.4570      1.8880      7.2990      1.6800     78.3900
    235     -6.3030      1.6840      6.2340      1.7700     78.3900
    236     -6.9840      2.5000      6.0000      0.0100     78.3900
    237     -6.3200      0.5280      5.5610      1.7700     78.3900
    238     -7.0140      0.3410      4.7450      0.0100     78.3900
    239     -4.5410      0.9000      7.6440      1.7700     78.3900
    240     -3.7460      1.1110      8.5720      1.5900     78.3900
    241     -4.5320     -0.2720      6.9690      1.6800     78.3900
    242     -5.3920     -0.4750      5.9550      1.7700     78.3900
    243     -5.3820     -1.6470      5.3260      1.6800     78.3900
    244     -4.7290     -2.3550      5.6050      0.0100     78.3900
    245     -6.0160     -1.8530      4.5810      0.0100     78.3900
    246     -4.3450      4.1020      7.6330      1.7700     78.3900
    247     -3.4950      3.5450      7.1830      0.0100     78.3900
    248     -3.8950      4.8570      8.7480      1.5900     78.3900
    249     -3.2440      5.5140      8.4400      0.0100     78.3900
    250     -5.0330      4.9730      6.5890      1.7700     78.3900
    251     -5.1480      4.4120      5.6380      0.0100     78.3900
    252     -4.4040      6.2470      6.3620      1.5900     78.3900
    253     -3.5590      6.1180      5.8910      0.0100     78.3900

 CREATION OF A NEW CAVITY WITH THE ORIGINAL SPHERE
 SIZES FOR THE COMPUTATION OF THE CAVITATION ENERGY.

     INPUT FOR CAVITY DEFINITION 
     ---------------------------
   ATOM               COORDINATES                RADIUS       EPS
      1      1.2830     -9.7980      8.7770      0.0100     78.3900
      2      1.0720     -8.9120      9.1230      1.5900     78.3900
      3      2.1400     -8.5510     10.0110      1.7700     78.3900
      4      3.1100     -8.6110      9.4660      0.0100     78.3900
      5      2.1630     -9.2790     10.8530      0.0100     78.3900
      6      1.9820     -7.1440     10.5930      1.7700     78.3900
      7      2.8150     -6.9030     11.2850      0.0100     78.3900
      8      2.0060     -6.1550      9.5270      1.5900     78.3900
      9      1.0720     -5.1300      9.8270      1.7700     78.3900
     10      1.6400     -4.1740      9.8180      0.0100     78.3900
     11      0.0030     -5.0600      8.8260      1.6800     78.3900
     12     -0.8290     -3.9940      8.6090      1.7700     78.3900
     13     -1.9100     -0.8060      9.4100      1.6800     78.3900
     14     -1.3260     -0.5590     10.1780      0.0100     78.3900
     15     -2.6100     -0.1570      9.1000      0.0100     78.3900
     16     -0.8230     -2.8320      9.2900      1.6800     78.3900
     17     -1.7420     -1.9820      8.8400      1.7700     78.3900
     18     -2.5660     -2.2570      7.7790      1.6800     78.3900
     19     -3.2270     -1.5500      7.4990      0.0100     78.3900
     20     -2.5770     -3.4320      7.0400      1.7700     78.3900
     21     -3.3530     -3.5950      6.0920      1.5900     78.3900
     22     -1.6360     -4.3670      7.5490      1.7700     78.3900
     23     -1.3360     -5.6560      7.1270      1.6800     78.3900
     24     -0.3540     -6.0310      7.9150      1.7700     78.3900
     25      0.1670     -6.9920      7.8680      0.0100     78.3900
     26      0.5460     -5.3790     11.2240      1.7700     78.3900
     27     -0.5020     -5.0410     11.3520      0.0100     78.3900
     28      1.3760     -4.7290     12.1690      1.5900     78.3900
     29      1.0480     -4.9720     13.0430      0.0100     78.3900
     30      0.6540     -6.8970     11.3220      1.7700     78.3900
     31     -0.1440     -7.3800     10.7120      0.0100     78.3900
     32      0.7310     -7.4250     12.6630      1.5900     78.3900
     33     -0.5920     -7.8350     13.4090      2.1000     78.3900
     34     -1.4190     -8.6740     12.5210      1.5900     78.3900
     35     -0.2240     -8.4110     14.7200      1.5900     78.3900
     36     -1.3280     -6.4670     13.6380      1.5900     78.3900
     37     -0.8360     -5.5360     14.6320      1.7700     78.3900
     38      0.2450     -5.3040     14.4780      0.0100     78.3900
     39     -0.9230     -5.9730     15.6530      0.0100     78.3900
     40     -1.6440     -4.2290     14.6100      1.7700     78.3900
     41     -1.2360     -3.4980     15.3420      0.0100     78.3900
     42     -1.5660     -3.6150     13.2910      1.5900     78.3900
     43     -2.8090     -2.9940     12.9880      1.7700     78.3900
     44     -2.5660     -1.9210     12.8150      0.0100     78.3900
     45     -3.4550     -3.5450     11.7640      1.6800     78.3900
     46     -3.1560     -4.8190     11.3420      1.7700     78.3900
     47     -2.4490     -5.3700     11.9600      0.0100     78.3900
     48     -3.6830     -5.3260     10.2210      1.7700     78.3900
     49     -3.4230     -6.3140      9.8480      0.0100     78.3900
     50     -4.3760     -2.7820     11.0500      1.7700     78.3900
     51     -4.6530     -1.6380     11.4430      1.5900     78.3900
     52     -4.9340     -3.2880      9.9260      1.6800     78.3900
     53     -4.5970     -4.5120      9.4940      1.7700     78.3900
     54     -5.1340     -4.9620      8.3640      1.6800     78.3900
     55     -5.8070     -4.3970      7.8790      0.0100     78.3900
     56     -4.8920     -5.8500      7.9720      0.0100     78.3900
     57     -3.6890     -3.1100     14.2160      1.7700     78.3900
     58     -4.7560     -3.2230     13.9530      0.0100     78.3900
     59     -3.5160     -1.9850     15.0580      1.5900     78.3900
     60     -4.0010     -2.1650     15.8790      0.0100     78.3900
     61     -3.1530     -4.3810     14.8670      1.7700     78.3900
     62     -3.4870     -5.2810     14.3020      0.0100     78.3900
     63     -3.4070     -4.4910     16.2830      1.5900     78.3900
     64     -4.7750     -5.0810     16.7940      2.1000     78.3900
     65     -5.0570     -6.3260     16.0470      1.5900     78.3900
     66     -4.7160     -5.1650     18.2730      1.5900     78.3900
     67     -5.8530     -4.0040     16.4020      1.5900     78.3900
     68     -7.2430     -4.3830     16.2040      1.7700     78.3900
     69     -7.8030     -4.2810     17.1620      0.0100     78.3900
     70     -7.3530     -5.4470     15.8720      0.0100     78.3900
     71     -7.9410     -3.5020     15.1520      1.7700     78.3900
     72     -8.1500     -2.4870     15.5470      0.0100     78.3900
     73     -7.0690     -3.3420     13.9970      1.5900     78.3900
     74     -7.7790     -3.5490     12.8050      1.7700     78.3900
     75     -7.5270     -2.6860     12.1460      0.0100     78.3900
     76     -7.3790     -4.8220     12.1320      1.6800     78.3900
     77     -6.5710     -5.7480     12.7680      1.7700     78.3900
     78     -6.2800     -5.5050     13.7950      0.0100     78.3900
     79     -7.7770     -5.0150     10.8260      1.7700     78.3900
     80     -8.4560     -4.1990     10.2110      1.5900     78.3900
     81     -7.3510     -6.1880     10.2590      1.6800     78.3900
     82     -7.6060     -6.3200      9.2900      0.0100     78.3900
     83     -6.5110     -7.1310     10.8120      1.7700     78.3900
     84     -6.1450     -8.0950     10.1440      1.5900     78.3900
     85     -6.1370     -6.8670     12.1700      1.7700     78.3900
     86     -5.4810     -7.5720     12.6780      0.0100     78.3900
     87     -9.2450     -3.5050     13.1770      1.7700     78.3900
     88     -9.8600     -4.1260     12.5070      0.0100     78.3900
     89     -9.7110     -2.1640     13.1780      1.5900     78.3900
     90     -9.4250     -1.7190     12.3710      0.0100     78.3900
     91     -9.2350     -4.1040     14.5780      1.7700     78.3900
     92     -9.0840     -5.2060     14.5220      0.0100     78.3900
     93    -10.3640     -3.7400     15.4020      1.5900     78.3900
     94    -11.6330     -4.6630     15.5150      2.1000     78.3900
     95    -11.2210     -5.9100     16.1930      1.5900     78.3900
     96    -12.7310     -3.9050     16.1550      1.5900     78.3900
     97    -12.0600     -5.0450     14.0490      1.5900     78.3900
     98    -12.6940     -4.1080     13.1510      1.7700     78.3900
     99    -12.1130     -3.1590     13.0900      0.0100     78.3900
    100    -13.7080     -3.8520     13.5270      0.0100     78.3900
    101    -12.8320     -4.6690     11.7160      1.7700     78.3900
    102    -13.3050     -3.9050     11.0600      0.0100     78.3900
    103    -11.5160     -4.9490     11.1680      1.5900     78.3900
    104    -11.5240     -6.1150     10.3810      1.7700     78.3900
    105    -11.1250     -5.8020      9.3850      0.0100     78.3900
    106    -10.6510     -7.1720     10.9450      1.6800     78.3900
    107    -10.2550     -7.1360     12.2600      1.7700     78.3900
    108    -10.6570     -6.3140     12.8470      0.0100     78.3900
    109    -10.2020     -8.1600     10.1020      1.7700     78.3900
    110    -10.5100     -8.2030      8.9150      1.5900     78.3900
    111     -9.3720     -9.0840     10.6850      1.6800     78.3900
    112     -9.0330     -9.8140     10.0800      0.0100     78.3900
    113     -8.9160     -9.0960     11.9860      1.7700     78.3900
    114     -8.1440     -9.9740     12.3660      1.5900     78.3900
    115     -9.4140     -8.0280     12.7950      1.7700     78.3900
    116     -9.1020     -7.9620     13.8350      0.0100     78.3900
    117    -12.9640     -6.5400     10.2420      1.7700     78.3900
    118    -13.0940     -7.6430     10.1710      0.0100     78.3900
    119    -13.4850     -5.9050      9.0920      1.5900     78.3900
    120    -13.7030     -5.0000      9.3210      0.0100     78.3900
    121    -13.5860     -5.9870     11.5360      1.7700     78.3900
    122    -13.3160     -6.6350     12.4000      0.0100     78.3900
    123    -15.0030     -5.7200     11.5070      1.5900     78.3900
    124    -15.9880     -6.8830     11.1130      2.1000     78.3900
    125    -15.3640     -8.1950     11.4110      1.5900     78.3900
    126    -17.2990     -6.6060     11.7410      1.5900     78.3900
    127    -16.1360     -6.7020      9.5690      1.5900     78.3900
    128    -16.5770     -7.7420      8.6780      1.7700     78.3900
    129    -17.1270     -8.5540      9.2110      0.0100     78.3900
    130    -15.6930     -8.2090      8.1930      0.0100     78.3900
    131    -17.4800     -7.1590      7.5840      1.7700     78.3900
    132    -17.9050     -7.9640      6.9510      0.0100     78.3900
    133    -18.6010     -6.4500      8.2020      1.5900     78.3900
    134    -18.8520     -5.2580      7.4770      1.7700     78.3900
    135    -19.9300     -5.2910      7.1970      0.0100     78.3900
    136    -18.6110     -4.0600      8.2880      1.6800     78.3900
    137    -18.7120     -2.0100      9.0770      1.7700     78.3900
    138    -17.8250     -2.6960      9.8960      1.6800     78.3900
    139    -17.7980     -3.9030      9.3850      1.7700     78.3900
    140    -17.2230     -4.7320      9.7870      0.0100     78.3900
    141    -20.0980     -0.3310      8.1400      1.6800     78.3900
    142    -20.4610     -1.2440      7.2330      1.7700     78.3900
    143    -21.1700     -0.8990      6.4760      0.0100     78.3900
    144    -20.0780     -2.5210      7.1210      1.6800     78.3900
    145    -19.1970     -2.8410      8.0830      1.7700     78.3900
    146    -19.2050     -0.6870      9.1000      1.7700     78.3900
    147    -18.8510      0.2290     10.0230      1.6800     78.3900
    148    -18.1990      0.0180     10.7530      0.0100     78.3900
    149    -19.2020      1.1670      9.9490      0.0100     78.3900
    150    -18.0090     -5.2880      6.2170      1.7700     78.3900
    151    -17.6890     -4.2750      5.8900      0.0100     78.3900
    152    -18.7310     -5.9320      5.1800      1.5900     78.3900
    153    -18.1250     -6.0690      4.4350      0.0100     78.3900
    154    -16.8070     -6.1170      6.6630      1.7700     78.3900
    155    -16.1260     -5.5090      7.3040      0.0100     78.3900
    156    -16.1010     -6.7770      5.5880      1.5900     78.3900
    157    -14.9220     -6.0560      4.8220      2.1000     78.3900
    158    -13.7690     -5.8640      5.7240      1.5900     78.3900
    159    -14.6450     -6.8200      3.5880      1.5900     78.3900
    160    -15.4850     -4.6500      4.3820      1.5900     78.3900
    161    -14.5620     -3.5720      4.0620      1.7700     78.3900
    162    -14.5450     -3.4110      2.9620      0.0100     78.3900
    163    -13.5110     -3.7760      4.3810      0.0100     78.3900
    164    -14.9870     -2.2580      4.7270      1.7700     78.3900
    165    -15.9410     -1.8920      4.2920      0.0100     78.3900
    166    -15.2300     -2.4940      6.1440      1.5900     78.3900
    167    -14.8180     -1.3700      6.8910      1.7700     78.3900
    168    -15.7190     -1.0440      7.4610      0.0100     78.3900
    169    -13.7080     -1.6860      7.8300      1.6800     78.3900
    170    -12.7960     -2.6730      7.5220      1.7700     78.3900
    171    -12.9850     -3.2380      6.6050      0.0100     78.3900
    172    -11.7700     -2.9480      8.3390      1.7700     78.3900
    173    -11.0430     -3.7280      8.1220      0.0100     78.3900
    174    -13.5670     -0.9500      9.0060      1.7700     78.3900
    175    -14.3930     -0.0630      9.2620      1.5900     78.3900
    176    -12.5400     -1.2150      9.8430      1.6800     78.3900
    177    -11.6500     -2.1680      9.5240      1.7700     78.3900
    178    -10.6510     -2.3740     10.3640      1.6800     78.3900
    179    -10.1500     -3.2410     10.2860      0.0100     78.3900
    180    -10.8100     -2.0390     11.2880      0.0100     78.3900
    181    -14.4350     -0.2890      5.9010      1.7700     78.3900
    182    -13.6270      0.3370      6.2950      0.0100     78.3900
    183    -15.5460      0.5280      5.5810      1.5900     78.3900
    184    -15.3080      1.0440      4.7970      0.0100     78.3900
    185    -13.9650     -1.1030      4.7030      1.7700     78.3900
    186    -12.9680     -1.5580      4.9070      0.0100     78.3900
    187    -14.0140     -0.3760      3.4520      1.5900     78.3900
    188    -12.6940      0.0790      2.7220      2.1000     78.3900
    189    -11.8980     -1.1280      2.4130      1.5900     78.3900
    190    -13.0620      0.9260      1.5690      1.5900     78.3900
    191    -11.9150      0.9630      3.7650      1.5900     78.3900
    192    -12.4500      2.2290      4.2230      1.7700     78.3900
    193    -13.5420      2.1610      4.4410      0.0100     78.3900
    194    -12.3110      3.0120      3.4430      0.0100     78.3900
    195    -11.7550      2.6960      5.5190      1.7700     78.3900
    196    -12.2360      3.6170      5.9110      0.0100     78.3900
    197    -11.8720      1.6720      6.5460      1.5900     78.3900
    198    -10.6610      1.5530      7.2620      1.7700     78.3900
    199    -10.9150      1.6130      8.3470      0.0100     78.3900
    200     -9.9950      0.2650      6.9910      1.6800     78.3900
    201     -8.9500     -0.2680      7.6940      1.7700     78.3900
    202     -6.6500     -0.0510     10.2680      1.6800     78.3900
    203     -6.8660      0.8340     10.6750      0.0100     78.3900
    204     -5.9040     -0.6010     10.6520      0.0100     78.3900
    205     -8.3410      0.2970      8.7460      1.6800     78.3900
    206     -7.3660     -0.4630      9.2370      1.7700     78.3900
    207     -7.0370     -1.6870      8.7200      1.6800     78.3900
    208     -6.2950     -2.2090      9.1600      0.0100     78.3900
    209     -7.6570     -2.3030      7.6420      1.7700     78.3900
    210     -7.2950     -3.4110      7.2330      1.5900     78.3900
    211     -8.6770     -1.4830      7.0950      1.7700     78.3900
    212     -9.5210     -1.7040      6.0170      1.6800     78.3900
    213    -10.2920     -0.6440      6.0000      1.7700     78.3900
    214    -11.1030     -0.4710      5.2960      0.0100     78.3900
    215     -9.8140      2.7320      6.8680      1.7700     78.3900
    216     -8.7290      2.5240      6.9480      0.0100     78.3900
    217    -10.1510      3.8400      7.6820      1.5900     78.3900
    218     -9.6520      4.5940      7.3480      0.0100     78.3900
[...]
   201    7   6.0   0.00    0.0    0.000000    0.711458    0.717805
   202    7   7.0  12.10   23.7   -0.091882   -0.972658   -1.051581
   203    7   1.0   0.00    0.0    0.000000    0.444518    0.441316
   204    7   1.0   0.00    0.0    0.000000    0.474628    0.522385
   205    7   7.0   4.25    8.3    0.066705   -0.748297   -0.753097
   206    7   6.0   0.00    0.0    0.000000    0.963064    0.969770
   207    7   7.0   0.00    0.0    0.000836   -0.924112   -1.015984
   208    7   1.0   0.00    0.0    0.000000    0.481964    0.547164
   209    7   6.0   0.01    0.0    0.000840    0.891722    0.901233
   210    7   8.0  10.02   21.9    0.165371   -0.766015   -0.757519
   211    7   6.0   0.00    0.0    0.000000   -0.059412   -0.053126
   212    7   7.0  10.01   19.6    0.162371   -0.598452   -0.609486
   213    7   6.0   2.69    4.7    0.011768    0.285407    0.263053
   214    7   1.0   0.00    0.0    0.000000    0.267015    0.296038
   215    7   6.0   0.11    0.2    0.004574    0.133794    0.094876
   216    7   1.0   0.00    0.0    0.000000    0.195381    0.233442
   217    7   8.0  16.83   36.8    0.085301   -0.825365   -0.845767
   218    7   1.0   0.00    0.0    0.000000    0.500952    0.529176
   219    7   6.0   0.94    1.7   -0.021495    0.132124    0.099978
   220    7   1.0   0.00    0.0    0.000000    0.249340    0.252248
   221    7   8.0   4.57   10.0    0.061547   -0.788638   -0.796195
   222    7  15.0  12.55   15.7    0.166146    1.596429    1.651169
   223    7   8.0  15.01   32.8    0.314280   -0.895053   -0.893357
   224    7   8.0  17.68   38.6    0.346900   -0.890216   -0.887105
   225    7   8.0   1.68    3.7    0.022821   -0.973034   -0.789211
   226    8   6.0  11.37   20.0   -0.092888    0.213398   -0.032191
   227    8   1.0   0.00    0.0    0.000000    0.138180    0.171090
   228    8   1.0   0.00    0.0    0.000000    0.245982    0.231449
   229    8   6.0   7.25   12.8   -0.051772    0.089738    0.150377
   230    8   1.0   0.00    0.0    0.000000    0.256983    0.228497
   231    8   8.0   3.90    8.5    0.048579   -0.729530   -0.737485
   232    8   6.0   4.15    7.3   -0.047705    0.423299    0.421861
   233    8   1.0   0.00    0.0    0.000000    0.255969    0.249894
   234    8   7.0   0.06    0.1   -0.001531   -0.823703   -0.834153
   235    8   6.0   2.01    3.5   -0.002072    0.199738    0.181074
   236    8   1.0   0.00    0.0    0.000000    0.299348    0.328095
   237    8   6.0   8.19   14.4   -0.048282   -0.393920   -0.403809
   238    8   1.0   0.00    0.0    0.000000    0.274455    0.279109
   239    8   6.0   2.51    4.4   -0.007462    1.064234    1.079656
   240    8   8.0   9.17   20.1    0.143164   -0.797348   -0.770903
   241    8   7.0   2.19    4.3    0.021031   -0.868594   -0.866173
   242    8   6.0   2.71    4.8   -0.002204    0.717838    0.731388
   243    8   7.0  14.46   28.3   -0.097923   -0.946449   -1.000198
   244    8   1.0   0.00    0.0    0.000000    0.462498    0.498778
   245    8   1.0   0.00    0.0    0.000000    0.451603    0.450159
   246    8   6.0   5.69   10.0   -0.053696    0.119652    0.120838
   247    8   1.0   0.00    0.0    0.000000    0.224347    0.222761
   248    8   8.0  20.80   45.5    0.049471   -0.837344   -0.840383
   249    8   1.0   0.00    0.0    0.000000    0.501607    0.502527
   250    8   6.0   5.47    9.7   -0.061029    0.161146    0.145834
   251    8   1.0   0.00    0.0    0.000000    0.222448    0.225787
   252    8   8.0  21.37   46.7   -0.027168   -0.851035   -0.854071
   253    8   1.0   0.00    0.0    0.000000    0.509886    0.509753

 Done with FMO properties.
 CPU     0: STEP CPU TIME=     0.01 TOTAL CPU TIME=      12147.1 (    202.5 MIN)
 TOTAL WALL CLOCK TIME=      29511.6 SECONDS, CPU UTILIZATION IS    41.16%
 CPU     0: STEP CPU TIME=     0.00 TOTAL CPU TIME=      12147.1 (    202.5 MIN)
 TOTAL WALL CLOCK TIME=      29511.6 SECONDS, CPU UTILIZATION IS    41.16%

 Total timing statistics in pairs (CPU,wall) for each rank, sec

    Rank   total     SCF    corr     DFT    CPHF     EFP    solv     ESP    geom
 -------------------------------------------------------------------------------
       1   12147.1   3542.7   4327.7      0.0    0.0   0.0   89.4  4010.9    0.0
       1   29511.6   7645.4  12986.2      0.0    0.0   0.0  258.1  8175.6    0.0
       2   13569.0   3543.2   5639.4      0.0    0.0   0.0   89.0  4110.7    0.0
       2   29511.7   7644.3  12981.4      0.0    0.0   0.0  258.3  8175.1    0.0
       3   12996.4   3598.1   5094.8      0.0    0.0   0.0   90.0  4046.7    0.0
       3   29511.6   7644.1  12981.4      0.0    0.0   0.0  258.4  8175.3    0.0
       4   13204.7   3620.4   5338.6      0.0    0.0   0.0   89.4  3987.0    0.0
       4   29511.6   7644.5  12981.4      0.0    0.0   0.0  257.9  8175.1    0.0
       5   13407.0   3612.8   5400.0      0.0    0.0   0.0   89.1  4143.0    0.0
       5   29511.6   7644.9  12981.4      0.0    0.0   0.0  257.9  8175.2    0.0
       6   13770.3   3604.7   5598.9      0.0    0.0   0.0   88.2  4294.5    0.0
       6   29511.6   7645.1  12981.4      0.0    0.0   0.0  257.4  8175.1    0.0
       7   13046.2   3607.5   5079.6      0.0    0.0   0.0   88.9  4097.2    0.0
       7   29511.6   7645.0  12981.4      0.0    0.0   0.0  257.5  8175.1    0.0
       8   13080.9   3601.5   5111.4      0.0    0.0   0.0   88.2  4092.8    0.0
       8   29511.6   7645.3  12981.4      0.0    0.0   0.0  256.8  8175.1    0.0
       9   12576.3   3589.6   4781.7      0.0    0.0   0.0   88.1  3942.4    0.0
       9   29511.6   7645.5  12981.3      0.0    0.0   0.0  257.4  8175.1    0.0
      10   12840.0   3544.1   4917.8      0.0    0.0   0.0   88.5  4122.2    0.0
      10   29511.6   7645.5  12981.3      0.0    0.0   0.0  257.2  8175.0    0.0
      11   13160.4   3595.2   5278.7      0.0    0.0   0.0   88.3  4018.0    0.0
      11   29511.6   7645.7  12981.3      0.0    0.0   0.0  257.2  8174.9    0.0
      12   12422.1   3517.6   4607.8      0.0    0.0   0.0   87.8  4044.6    0.0
      12   29511.6   7646.0  12981.3      0.0    0.0   0.0  256.4  8174.9    0.0
      13   13055.5   3598.1   5203.3      0.0    0.0   0.0   87.4  4009.4    0.0
      13   29511.6   7646.1  12981.3      0.0    0.0   0.0  256.9  8174.8    0.0
      14   13162.5   3553.4   5357.2      0.0    0.0   0.0   87.7  3997.8    0.0
      14   29511.6   7646.4  12981.3      0.0    0.0   0.0  256.5  8174.7    0.0
      15   12961.1   3579.5   5183.6      0.0    0.0   0.0   87.5  3948.5    0.0
      15   29511.6   7646.3  12981.3      0.0    0.0   0.0  256.7  8174.7    0.0
      16   13011.2   3623.1   5172.3      0.0    0.0   0.0   87.5  3975.7    0.0
      16   29511.7   7646.6  12981.3      0.0    0.0   0.0  255.9  8174.6    0.0
averaged   13025.7   3583.2   5130.8      0.0    0.0   0.0   88.4  4052.6    0.0
averaged   29511.6   7645.4  12981.6      0.0    0.0   0.0  257.3  8175.0    0.0

  FMO  timing statistics in pairs (CPU,wall) for each rank, sec

    Rank  FMOini FMOscf1  FMOdm1 FMOsyn1 FMOscf2  FMOes2 FMOsyn2 FMOscf3 FMOsyn3
 -------------------------------------------------------------------------------
       1    1.5    4801.4    0.3    0.0    7224.4     119.5    0.0    0.0    0.0
       1    3.8   10343.3    0.4    0.1   18920.3     243.5    0.0    0.0    0.0
       2    1.1    4920.2    0.1    0.0    8514.2     133.4    0.0    0.0    0.0
       2    3.8   10343.3    0.4    0.1   18922.8     241.1    0.0    0.0    0.0
       3    1.3    4866.8    0.1    0.0    8016.2     112.1    0.0    0.0    0.0
       3    3.8   10343.3    0.4    0.1   18922.7     241.2    0.0    0.0    0.0
       4    1.1    4830.5    0.1    0.0    8257.3     115.7    0.0    0.0    0.0
       4    3.8   10343.3    0.4    0.1   18923.2     240.7    0.0    0.0    0.0
       5    1.3    5052.5    0.1    0.0    8245.9     107.0    0.0    0.0    0.0
       5    3.8   10343.3    0.4    0.1   18922.9     240.9    0.0    0.0    0.0
       6    1.2    5038.5    0.0    0.0    8599.9     130.7    0.0    0.0    0.0
       6    3.8   10343.3    0.4    0.1   18922.9     240.9    0.0    0.0    0.0
       7    1.3    5034.0    0.1    0.0    7891.1     119.6    0.0    0.0    0.0
       7    3.8   10343.3    0.4    0.1   18923.0     240.8    0.0    0.0    0.0
       8    1.1    5002.8    0.1    0.0    7942.2     134.7    0.0    0.0    0.0
       8    3.8   10343.3    0.4    0.1   18923.3     240.5    0.0    0.0    0.0
       9    1.3    4921.4    0.2    0.0    7533.2     120.2    0.0    0.0    0.0
       9    3.8   10343.3    0.4    0.1   18922.9     240.9    0.0    0.0    0.0
      10    1.1    5036.9    0.0    0.0    7686.8     115.2    0.0    0.0    0.0
      10    3.8   10343.3    0.4    0.1   18922.9     240.9    0.0    0.0    0.0
      11    1.1    4941.1    0.1    0.0    8090.8     127.1    0.0    0.0    0.0
      11    3.8   10343.3    0.4    0.1   18922.5     241.3    0.0    0.0    0.0
      12    1.0    4954.9    0.1    0.0    7353.4     112.7    0.0    0.0    0.0
      12    3.8   10343.3    0.4    0.1   18924.9     238.9    0.0    0.0    0.0
      13    1.2    4991.2    0.1    0.0    7958.2     104.6    0.0    0.0    0.0
      13    3.8   10343.3    0.4    0.1   18923.1     240.7    0.0    0.0    0.0
      14    1.0    5051.1    0.1    0.0    7995.5     114.9    0.0    0.0    0.0
      14    3.8   10343.3    0.4    0.1   18923.5     240.3    0.0    0.0    0.0
      15    1.2    4965.8    0.1    0.0    7884.1     109.9    0.0    0.0    0.0
      15    3.8   10343.3    0.4    0.1   18923.2     240.6    0.0    0.0    0.0
      16    1.1    4878.6    0.0    0.0    8030.4     101.1    0.0    0.0    0.0
      16    3.8   10343.3    0.4    0.1   18923.3     240.5    0.0    0.0    0.0
averaged    1.2    4955.5    0.1    0.0    7951.5     117.4    0.0    0.0    0.0
averaged    3.8   10343.3    0.4    0.1   18923.0     240.8    0.0    0.0    0.0
             62778412  WORDS OF DYNAMIC MEMORY USED
 EXECUTION OF GAMESS TERMINATED NORMALLY Sat Dec  7 08:16:49 2019
 DDI: 263640 bytes (0.3 MB / 0 MWords) used by master data server.

 ----------------------------------------
 CPU timing information for all processes
 ========================================
 0: 11871.77 + 276.29 = 12147.106
 1: 13248.993 + 320.45 = 13569.39
 2: 12690.572 + 305.857 = 12996.429
 3: 12908.673 + 296.99 = 13204.773
 4: 13085.254 + 321.730 = 13406.985
 5: 13442.993 + 327.290 = 13770.284
 6: 12750.813 + 295.410 = 13046.224
 7: 12783.429 + 297.499 = 13080.928
 8: 12276.886 + 299.447 = 12576.334
 9: 12574.720 + 265.307 = 12840.27
 10: 12863.640 + 296.740 = 13160.380
 11: 12156.206 + 265.911 = 12422.117
 12: 12756.36 + 299.512 = 13055.549
 13: 12868.209 + 294.350 = 13162.560
 14: 12659.869 + 301.227 = 12961.96
 15: 12720.569 + 290.673 = 13011.242
 ----------------------------------------
 ddikick.x: exited gracefully.
unset echo
----- accounting info -----
Files used on the master node gollum088.lsa.umich.edu were:
-rw-r--r-- 1 hazwong frank    13449 Dec  7 00:04 /scratch/hazwong/824127/4A4T_2/usrc/4A4T_2_fmo_input.F05
-rw-r--r-- 1 hazwong frank      634 Dec  7 08:16 /scratch/hazwong/824127/4A4T_2/usrc/4A4T_2_fmo_input.F06.001
-rw-r--r-- 1 hazwong frank      634 Dec  7 08:16 /scratch/hazwong/824127/4A4T_2/usrc/4A4T_2_fmo_input.F06.002
-rw-r--r-- 1 hazwong frank      634 Dec  7 08:16 /scratch/hazwong/824127/4A4T_2/usrc/4A4T_2_fmo_input.F06.003
-rw-r--r-- 1 hazwong frank      634 Dec  7 08:16 /scratch/hazwong/824127/4A4T_2/usrc/4A4T_2_fmo_input.F06.004
-rw-r--r-- 1 hazwong frank      634 Dec  7 08:16 /scratch/hazwong/824127/4A4T_2/usrc/4A4T_2_fmo_input.F06.005
-rw-r--r-- 1 hazwong frank      634 Dec  7 08:16 /scratch/hazwong/824127/4A4T_2/usrc/4A4T_2_fmo_input.F06.006
-rw-r--r-- 1 hazwong frank      634 Dec  7 08:16 /scratch/hazwong/824127/4A4T_2/usrc/4A4T_2_fmo_input.F06.007
-rw-r--r-- 1 hazwong frank      634 Dec  7 08:16 /scratch/hazwong/824127/4A4T_2/usrc/4A4T_2_fmo_input.F06.008
-rw-r--r-- 1 hazwong frank      634 Dec  7 08:16 /scratch/hazwong/824127/4A4T_2/usrc/4A4T_2_fmo_input.F06.009
-rw-r--r-- 1 hazwong frank      634 Dec  7 08:16 /scratch/hazwong/824127/4A4T_2/usrc/4A4T_2_fmo_input.F06.010
-rw-r--r-- 1 hazwong frank      634 Dec  7 08:16 /scratch/hazwong/824127/4A4T_2/usrc/4A4T_2_fmo_input.F06.011
-rw-r--r-- 1 hazwong frank      634 Dec  7 08:16 /scratch/hazwong/824127/4A4T_2/usrc/4A4T_2_fmo_input.F06.012
-rw-r--r-- 1 hazwong frank      634 Dec  7 08:16 /scratch/hazwong/824127/4A4T_2/usrc/4A4T_2_fmo_input.F06.013
-rw-r--r-- 1 hazwong frank      634 Dec  7 08:16 /scratch/hazwong/824127/4A4T_2/usrc/4A4T_2_fmo_input.F06.014
-rw-r--r-- 1 hazwong frank      634 Dec  7 08:16 /scratch/hazwong/824127/4A4T_2/usrc/4A4T_2_fmo_input.F06.015
-rw-r--r-- 1 hazwong frank     6172 Dec  7 08:16 /scratch/hazwong/824127/4A4T_2/usrc/4A4T_2_fmo_input.F07
-rw-r--r-- 1 hazwong frank        0 Dec  7 00:04 /scratch/hazwong/824127/4A4T_2/usrc/4A4T_2_fmo_input.F07.001
-rw-r--r-- 1 hazwong frank        0 Dec  7 00:04 /scratch/hazwong/824127/4A4T_2/usrc/4A4T_2_fmo_input.F07.002
-rw-r--r-- 1 hazwong frank        0 Dec  7 00:04 /scratch/hazwong/824127/4A4T_2/usrc/4A4T_2_fmo_input.F07.003
-rw-r--r-- 1 hazwong frank        0 Dec  7 00:04 /scratch/hazwong/824127/4A4T_2/usrc/4A4T_2_fmo_input.F07.004
-rw-r--r-- 1 hazwong frank        0 Dec  7 00:04 /scratch/hazwong/824127/4A4T_2/usrc/4A4T_2_fmo_input.F07.005
-rw-r--r-- 1 hazwong frank        0 Dec  7 00:04 /scratch/hazwong/824127/4A4T_2/usrc/4A4T_2_fmo_input.F07.006
-rw-r--r-- 1 hazwong frank        0 Dec  7 00:04 /scratch/hazwong/824127/4A4T_2/usrc/4A4T_2_fmo_input.F07.007
-rw-r--r-- 1 hazwong frank        0 Dec  7 00:04 /scratch/hazwong/824127/4A4T_2/usrc/4A4T_2_fmo_input.F07.008
-rw-r--r-- 1 hazwong frank        0 Dec  7 00:04 /scratch/hazwong/824127/4A4T_2/usrc/4A4T_2_fmo_input.F07.009
-rw-r--r-- 1 hazwong frank        0 Dec  7 00:04 /scratch/hazwong/824127/4A4T_2/usrc/4A4T_2_fmo_input.F07.010
-rw-r--r-- 1 hazwong frank        0 Dec  7 00:04 /scratch/hazwong/824127/4A4T_2/usrc/4A4T_2_fmo_input.F07.011
-rw-r--r-- 1 hazwong frank        0 Dec  7 00:04 /scratch/hazwong/824127/4A4T_2/usrc/4A4T_2_fmo_input.F07.012
-rw-r--r-- 1 hazwong frank        0 Dec  7 00:04 /scratch/hazwong/824127/4A4T_2/usrc/4A4T_2_fmo_input.F07.013
-rw-r--r-- 1 hazwong frank        0 Dec  7 00:04 /scratch/hazwong/824127/4A4T_2/usrc/4A4T_2_fmo_input.F07.014
-rw-r--r-- 1 hazwong frank        0 Dec  7 00:04 /scratch/hazwong/824127/4A4T_2/usrc/4A4T_2_fmo_input.F07.015
-rw-r--r-- 1 hazwong frank    65440 Dec  7 08:16 /scratch/hazwong/824127/4A4T_2/usrc/4A4T_2_fmo_input.F10.000
-rw-r--r-- 1 hazwong frank        0 Dec  7 00:04 /scratch/hazwong/824127/4A4T_2/usrc/4A4T_2_fmo_input.F26.000
-rw-r--r-- 1 hazwong frank        0 Dec  7 00:04 /scratch/hazwong/824127/4A4T_2/usrc/4A4T_2_fmo_input.F26.001
-rw-r--r-- 1 hazwong frank        0 Dec  7 00:04 /scratch/hazwong/824127/4A4T_2/usrc/4A4T_2_fmo_input.F26.002
-rw-r--r-- 1 hazwong frank        0 Dec  7 00:04 /scratch/hazwong/824127/4A4T_2/usrc/4A4T_2_fmo_input.F26.003
-rw-r--r-- 1 hazwong frank        0 Dec  7 00:04 /scratch/hazwong/824127/4A4T_2/usrc/4A4T_2_fmo_input.F26.004
-rw-r--r-- 1 hazwong frank        0 Dec  7 00:04 /scratch/hazwong/824127/4A4T_2/usrc/4A4T_2_fmo_input.F26.005
-rw-r--r-- 1 hazwong frank        0 Dec  7 00:04 /scratch/hazwong/824127/4A4T_2/usrc/4A4T_2_fmo_input.F26.006
-rw-r--r-- 1 hazwong frank        0 Dec  7 00:04 /scratch/hazwong/824127/4A4T_2/usrc/4A4T_2_fmo_input.F26.007
-rw-r--r-- 1 hazwong frank        0 Dec  7 00:04 /scratch/hazwong/824127/4A4T_2/usrc/4A4T_2_fmo_input.F26.008
-rw-r--r-- 1 hazwong frank        0 Dec  7 00:04 /scratch/hazwong/824127/4A4T_2/usrc/4A4T_2_fmo_input.F26.009
-rw-r--r-- 1 hazwong frank        0 Dec  7 00:04 /scratch/hazwong/824127/4A4T_2/usrc/4A4T_2_fmo_input.F26.010
-rw-r--r-- 1 hazwong frank        0 Dec  7 00:04 /scratch/hazwong/824127/4A4T_2/usrc/4A4T_2_fmo_input.F26.011
-rw-r--r-- 1 hazwong frank        0 Dec  7 00:04 /scratch/hazwong/824127/4A4T_2/usrc/4A4T_2_fmo_input.F26.012
-rw-r--r-- 1 hazwong frank        0 Dec  7 00:04 /scratch/hazwong/824127/4A4T_2/usrc/4A4T_2_fmo_input.F26.013
-rw-r--r-- 1 hazwong frank        0 Dec  7 00:04 /scratch/hazwong/824127/4A4T_2/usrc/4A4T_2_fmo_input.F26.014
-rw-r--r-- 1 hazwong frank        0 Dec  7 00:04 /scratch/hazwong/824127/4A4T_2/usrc/4A4T_2_fmo_input.F26.015
-rw-r--r-- 1 hazwong frank        0 Dec  7 00:04 /scratch/hazwong/824127/4A4T_2/usrc/4A4T_2_fmo_input.F27.000
-rw-r--r-- 1 hazwong frank        0 Dec  7 00:04 /scratch/hazwong/824127/4A4T_2/usrc/4A4T_2_fmo_input.F27.001
-rw-r--r-- 1 hazwong frank        0 Dec  7 00:04 /scratch/hazwong/824127/4A4T_2/usrc/4A4T_2_fmo_input.F27.002
-rw-r--r-- 1 hazwong frank        0 Dec  7 00:04 /scratch/hazwong/824127/4A4T_2/usrc/4A4T_2_fmo_input.F27.003
-rw-r--r-- 1 hazwong frank        0 Dec  7 00:04 /scratch/hazwong/824127/4A4T_2/usrc/4A4T_2_fmo_input.F27.004
-rw-r--r-- 1 hazwong frank        0 Dec  7 00:04 /scratch/hazwong/824127/4A4T_2/usrc/4A4T_2_fmo_input.F27.005
-rw-r--r-- 1 hazwong frank        0 Dec  7 00:04 /scratch/hazwong/824127/4A4T_2/usrc/4A4T_2_fmo_input.F27.006
-rw-r--r-- 1 hazwong frank        0 Dec  7 00:04 /scratch/hazwong/824127/4A4T_2/usrc/4A4T_2_fmo_input.F27.007
-rw-r--r-- 1 hazwong frank        0 Dec  7 00:04 /scratch/hazwong/824127/4A4T_2/usrc/4A4T_2_fmo_input.F27.008
-rw-r--r-- 1 hazwong frank        0 Dec  7 00:04 /scratch/hazwong/824127/4A4T_2/usrc/4A4T_2_fmo_input.F27.009
-rw-r--r-- 1 hazwong frank        0 Dec  7 00:04 /scratch/hazwong/824127/4A4T_2/usrc/4A4T_2_fmo_input.F27.010
-rw-r--r-- 1 hazwong frank        0 Dec  7 00:04 /scratch/hazwong/824127/4A4T_2/usrc/4A4T_2_fmo_input.F27.011
-rw-r--r-- 1 hazwong frank        0 Dec  7 00:04 /scratch/hazwong/824127/4A4T_2/usrc/4A4T_2_fmo_input.F27.012
-rw-r--r-- 1 hazwong frank        0 Dec  7 00:04 /scratch/hazwong/824127/4A4T_2/usrc/4A4T_2_fmo_input.F27.013
-rw-r--r-- 1 hazwong frank        0 Dec  7 00:04 /scratch/hazwong/824127/4A4T_2/usrc/4A4T_2_fmo_input.F27.014
-rw-r--r-- 1 hazwong frank        0 Dec  7 00:04 /scratch/hazwong/824127/4A4T_2/usrc/4A4T_2_fmo_input.F27.015
-rw-r--r-- 1 hazwong frank 15876096 Dec  7 02:57 /scratch/hazwong/824127/4A4T_2/usrc/4A4T_2_fmo_input.F40.000
-rw-r--r-- 1 hazwong frank 15876096 Dec  7 02:57 /scratch/hazwong/824127/4A4T_2/usrc/4A4T_2_fmo_input.F40.001
-rw-r--r-- 1 hazwong frank 15876096 Dec  7 02:57 /scratch/hazwong/824127/4A4T_2/usrc/4A4T_2_fmo_input.F40.002
-rw-r--r-- 1 hazwong frank 15876096 Dec  7 02:57 /scratch/hazwong/824127/4A4T_2/usrc/4A4T_2_fmo_input.F40.003
-rw-r--r-- 1 hazwong frank 15876096 Dec  7 02:57 /scratch/hazwong/824127/4A4T_2/usrc/4A4T_2_fmo_input.F40.004
-rw-r--r-- 1 hazwong frank 15876096 Dec  7 02:57 /scratch/hazwong/824127/4A4T_2/usrc/4A4T_2_fmo_input.F40.005
-rw-r--r-- 1 hazwong frank 15876096 Dec  7 02:57 /scratch/hazwong/824127/4A4T_2/usrc/4A4T_2_fmo_input.F40.006
-rw-r--r-- 1 hazwong frank 15876096 Dec  7 02:57 /scratch/hazwong/824127/4A4T_2/usrc/4A4T_2_fmo_input.F40.007
-rw-r--r-- 1 hazwong frank 15876096 Dec  7 02:57 /scratch/hazwong/824127/4A4T_2/usrc/4A4T_2_fmo_input.F40.008
-rw-r--r-- 1 hazwong frank 15876096 Dec  7 02:57 /scratch/hazwong/824127/4A4T_2/usrc/4A4T_2_fmo_input.F40.009
-rw-r--r-- 1 hazwong frank 15876096 Dec  7 02:57 /scratch/hazwong/824127/4A4T_2/usrc/4A4T_2_fmo_input.F40.010
-rw-r--r-- 1 hazwong frank 15876096 Dec  7 02:57 /scratch/hazwong/824127/4A4T_2/usrc/4A4T_2_fmo_input.F40.011
-rw-r--r-- 1 hazwong frank 15876096 Dec  7 02:57 /scratch/hazwong/824127/4A4T_2/usrc/4A4T_2_fmo_input.F40.012
-rw-r--r-- 1 hazwong frank 15876096 Dec  7 02:57 /scratch/hazwong/824127/4A4T_2/usrc/4A4T_2_fmo_input.F40.013
-rw-r--r-- 1 hazwong frank 15876096 Dec  7 02:57 /scratch/hazwong/824127/4A4T_2/usrc/4A4T_2_fmo_input.F40.014
-rw-r--r-- 1 hazwong frank 15876096 Dec  7 02:57 /scratch/hazwong/824127/4A4T_2/usrc/4A4T_2_fmo_input.F40.015
ls: No match.
ls: No match.
ls: No match.
Sat Dec  7 08:16:52 EST 2019
0.193u 0.078s 8:11:55.28 0.0%	0+0k 1408+120io 23pf+0w
