‘1MIS_3_fmo_input.inp’ -> ‘/scratch/hazwong/824899/./1MIS_3_fmo_input.inp’
‘rungms’ -> ‘/scratch/hazwong/824899/./rungms’
‘gms-files.csh’ -> ‘/scratch/hazwong/824899/./gms-files.csh’
----- GAMESS execution script 'rungms' -----
This job is running on host gollum075.lsa.umich.edu
under operating system Linux at Sat Dec 7 07:33:52 EST 2019
Available scratch disk space (Kbyte units) at beginning of the job is
Filesystem     1K-blocks     Used Available Use% Mounted on
/dev/sda4      426933580 11427748 415505832   3% /scratch
GAMESS temporary binary files will be written to /scratch/hazwong/824899/1MIS_3/usrc
GAMESS supplementary output files will be written to /scratch/hazwong/824899/1MIS_3/src
Copying input file 1MIS_3_fmo_input.inp to your run's scratch directory...
cp 1MIS_3_fmo_input.inp /scratch/hazwong/824899/1MIS_3/usrc/1MIS_3_fmo_input.F05
unset echo
setenv OUTPUT /scratch/hazwong/824899/1MIS_3/usrc/1MIS_3_fmo_input.F06
This is a GDDI run, keeping various output files on local disks
setenv PUNCH /scratch/hazwong/824899/1MIS_3/usrc/1MIS_3_fmo_input.F07
unset echo
 
Assuming a single but multicore node.
 
/export/apps/CentOS7/gamess/src/build//ddikick.x /export/apps/CentOS7/gamess/src/build//gamess.R3.x 1MIS_3_fmo_input -ddi 1 16 gollum075.lsa.umich.edu:cpus=16 -scr /scratch/hazwong/824899/1MIS_3/usrc

 Distributed Data Interface kickoff program.
 Initiating 16 compute processes on 1 nodes to run the following command:
 /export/apps/CentOS7/gamess/src/build//gamess.R3.x 1MIS_3_fmo_input 

          ******************************************************
          *         GAMESS VERSION = 30 SEP 2018 (R3)         *
          *             FROM IOWA STATE UNIVERSITY             *
          * M.W.SCHMIDT, K.K.BALDRIDGE, J.A.BOATZ, S.T.ELBERT, *
          *   M.S.GORDON, J.H.JENSEN, S.KOSEKI, N.MATSUNAGA,   *
          *          K.A.NGUYEN, S.J.SU, T.L.WINDUS,           *
          *       TOGETHER WITH M.DUPUIS, J.A.MONTGOMERY       *
          *         J.COMPUT.CHEM.  14, 1347-1363(1993)        *
          **************** 64 BIT LINUX VERSION ****************

  SINCE 1993, STUDENTS AND POSTDOCS WORKING AT IOWA STATE UNIVERSITY
  AND ALSO IN THEIR VARIOUS JOBS AFTER LEAVING ISU HAVE MADE IMPORTANT
  CONTRIBUTIONS TO THE CODE:
     IVANA ADAMOVIC, CHRISTINE AIKENS, YURI ALEXEEV, POOJA ARORA,
     ANDREY ASADCHEV, ROB BELL, PRADIPTA BANDYOPADHYAY, JONATHAN BENTZ,
     BRETT BODE, KURT BRORSEN, CALEB CARLIN, GALINA CHABAN, WEI CHEN,
     CHEOL HO CHOI, PAUL DAY, ALBERT DEFUSCO, NUWAN DESILVA, TIM DUDLEY,
     DMITRI FEDOROV, ALEX FINDLATER, GRAHAM FLETCHER, MARK FREITAG,
     KURT GLAESEMANN, ANASTASIA GUNINA,
     DAN KEMP, GRANT MERRILL, NORIYUKI MINEZAWA, JONATHAN MULLIN,
     TAKESHI NAGATA, SEAN NEDD, HEATHER NETZLOFF, BOSILJKA NJEGIC, RYAN OLSON,
     MIKE PAK, BUU PHAM,
     SPENCER PRUITT, LUKE ROSKOP, JIM SHOEMAKER, LYUDMILA SLIPCHENKO,
     TONY SMITH, SAROM SOK LEANG, JIE SONG, TETSUYA TAKETSUGU, SIMON WEBB,
     PENG XU, SOOHAENG YOO, FEDERICO ZAHARIEV

  ADDITIONAL CODE HAS BEEN PROVIDED BY COLLABORATORS IN OTHER GROUPS:
     IOWA STATE UNIVERSITY:
          JOE IVANIC, AARON WEST, LAIMUTIS BYTAUTAS, KLAUS RUEDENBERG
     UNIVERSITY OF TOKYO: KIMIHIKO HIRAO, TAKAHITO NAKAJIMA,
          TAKAO TSUNEDA, MUNEAKI KAMIYA, SUSUMU YANAGISAWA,
          KIYOSHI YAGI, MAHITO CHIBA, SEIKEN TOKURA, NAOAKI KAWAKAMI
     UNIVERSITY OF AARHUS: FRANK JENSEN
     UNIVERSITY OF IOWA: VISVALDAS KAIRYS, HUI LI
     NATIONAL INST. OF STANDARDS AND TECHNOLOGY: WALT STEVENS, DAVID GARMER
     UNIVERSITY OF PISA: BENEDETTA MENNUCCI, JACOPO TOMASI
     UNIVERSITY OF MEMPHIS: HENRY KURTZ, PRAKASHAN KORAMBATH
     UNIVERSITY OF ALBERTA: TOBY ZENG, MARIUSZ KLOBUKOWSKI
     UNIVERSITY OF NEW ENGLAND: MARK SPACKMAN
     MIE UNIVERSITY: HIROAKI UMEDA
     NAT. INST. OF ADVANCED INDUSTRIAL SCIENCE AND TECHNOLOGY: KAZUO KITAURA
     MICHIGAN STATE UNIVERSITY:
          KAROL KOWALSKI, MARTA WLOCH, JEFFREY GOUR, JESSE LUTZ,
          WEI LI, JUN SHEN, J. EMILIANO DEUSTUA, PIOTR PIECUCH
     UNIVERSITY OF MINNESOTA:
          YINAN SHU
     UNIVERSITY OF SILESIA: MONIKA MUSIAL, STANISLAW KUCHARSKI
     FACULTES UNIVERSITAIRES NOTRE-DAME DE LA PAIX:
          OLIVIER QUINET, BENOIT CHAMPAGNE
     UNIVERSITY OF CALIFORNIA - SANTA BARBARA: BERNARD KIRTMAN
     INSTITUTE FOR MOLECULAR SCIENCE:
          KAZUYA ISHIMURA, MICHIO KATOUDA, AND SHIGERU NAGASE
     UNIVERSITY OF NOTRE DAME: ANNA POMOGAEVA, DAN CHIPMAN
     KYUSHU UNIVERSITY:
          HARUYUKI NAKANO,
          FENG LONG GU, JACEK KORCHOWIEC, MARCIN MAKOWSKI, AND YURIKO AOKI,
          HIROTOSHI MORI AND EISAKU MIYOSHI
     PENNSYLVANIA STATE UNIVERSITY:
          TZVETELIN IORDANOV, CHET SWALINA, JONATHAN SKONE,
          SHARON HAMMES-SCHIFFER
     WASEDA UNIVERSITY:
          MASATO KOBAYASHI, TOMOKO AKAMA, TSUGUKI TOUMA,
          TAKESHI YOSHIKAWA, YASUHIRO IKABATA, JUNJI SEINO,
          YUYA NAKAJIMA, HIROMI NAKAI
     NANJING UNIVERSITY: SHUHUA LI
     UNIVERSITY OF NEBRASKA:
          PEIFENG SU, DEJUN SI, NANDUN THELLAMUREGE, YALI WANG, HUI LI
     UNIVERSITY OF ZURICH: ROBERTO PEVERATI, KIM BALDRIDGE
     N. COPERNICUS UNIVERSITY AND JACKSON STATE UNIVERSITY:
          MARIA BARYSZ
     UNIVERSITY OF COPENHAGEN: Jimmy Kromann, CASPER STEINMANN
     TOKYO INSTITUTE OF TECHNOLOGY: HIROYA NAKATA
     NAGOYA UNIVERSITY: YOSHIO NISHIMOTO, STEPHAN IRLE
     MOSCOW STATE UNIVERSITY: VLADIMIR MIRONOV


 PARALLEL VERSION RUNNING ON       16 PROCESSORS IN        1 NODES.

 EXECUTION OF GAMESS BEGUN Sat Dec  7 07:33:52 2019

            ECHO OF THE FIRST FEW INPUT CARDS -
 INPUT CARD>!*** FMO 5.3 (Gamess) INPUT generated by Facio 22.1.1.32 ***                    
 INPUT CARD> $CONTRL RUNTYP=ENERGY NPRINT=-5 ISPHER=1 MAXIT=200 $END                        
 INPUT CARD> $SYSTEM MWORDS=63 MEMDDI=63 $END                                               
 INPUT CARD> $GDDI NGROUP=1 $END                                                            
 INPUT CARD> $SCF DIRSCF=.TRUE. NPUNCH=0 $END                                               
 INPUT CARD>!*** NumCPU : 2  MemPerNode : 512MB                                             
 INPUT CARD> $PCM SOLVNT=WATER IEF=-10 ICOMP=2 ICAV=1 IDISP=1 IFMO=-1 $END                  
 INPUT CARD> $PCMCAV RADII=SUAHF $END                                                       
 INPUT CARD> $TESCAV NTSALL=60 $END                                                         
 INPUT CARD> $FMOPRP                                                                        
 INPUT CARD>    NAODIR=200                                                                  
 INPUT CARD>    NGRFMO(1)=1, 1, 0, 0, 0,   0, 0, 0, 0, 0                                    
 INPUT CARD>    IPIEDA=1                                                                    
 INPUT CARD>    NPRINT=9                                                                    
 INPUT CARD> $END                                                                           
 INPUT CARD> $FMO                                                                           
 INPUT CARD>      SCFTYP(1)=RHF                                                             
 INPUT CARD>      MODGRD=10                                                                 
 INPUT CARD>      MODMUL=0                                                                  
 INPUT CARD>      MAXCAO=5                                                                  
 INPUT CARD>      MAXBND=14                                                                 
 INPUT CARD>      NLAYER=1                                                                  
 INPUT CARD>      MPLEVL(1)=2                                                               
 INPUT CARD>      NFRAG=12                                                                  
 INPUT CARD>      ICHARG(1)=-1, -1, -1, -1, -1, 0, -1, -1, -1, -1, -1, 0                    
 INPUT CARD>      FRGNAM(1)=F1, F2, F3, F4, F5, F6, F7, F8, F9, F10, F11, F12               
 INPUT CARD>      indat(1)=0                                                                
 INPUT CARD>               1   -33   0                                                      
 INPUT CARD>               34   -67   0                                                     
 INPUT CARD>               68   -101   0                                                    
 INPUT CARD>               102   -134   0                                                   
 INPUT CARD>               135   -165   0                                                   
 INPUT CARD>               166   -198   0                                                   
 INPUT CARD>               199   -229   0                                                   
 INPUT CARD>               230   -263   0                                                   
 INPUT CARD>               264   -297   0                                                   
 INPUT CARD>               298   -330   0                                                   
 INPUT CARD>               331   -361   0                                                   
 INPUT CARD>               362   -392   0                                                   
 INPUT CARD> $END                                                                           
 INPUT CARD>                                                                                
 INPUT CARD> $FMOBND                                                                        
 INPUT CARD>   -34   33       6-31G*    MINI                                                
 INPUT CARD>   -68   67       6-31G*    MINI                                                
 INPUT CARD>   -102   101       6-31G*    MINI                                              
 INPUT CARD>   -135   134       6-31G*    MINI                                              
 INPUT CARD>   -166   165       6-31G*    MINI                                              
 INPUT CARD>   -199   198       6-31G*    MINI                                              
 INPUT CARD>   -230   229       6-31G*    MINI                                              
 INPUT CARD>   -264   263       6-31G*    MINI                                              


 -------------------------------------------------------------
 GROUP DDI, PROGRAMMED BY: RYAN M. OLSON AND DMITRI G. FEDOROV
        FEDOROV ET AL., J. COMPUT. CHEM., 25 (2004) 872.
 -------------------------------------------------------------

 -------------------------------------------------------
 GDDI: INITIALIZATION COMPLETED FOR GROUP     1 OF     1
 WITH    16 PROCESSES BALTYP=DLB   global rank=        0
 -------------------------------------------------------

   63000000 WORDS OF MEMORY AVAILABLE


     RUN TITLE
     ---------
  FMO calculation                                                                

 THE POINT GROUP OF THE MOLECULE IS C1      
 THE ORDER OF THE PRINCIPAL AXIS IS     0

 ATOM   ATOMIC CHARGE
 H.1-1       1.0
 O.1-1       8.0
 C.1-1       6.0
 N.1-1       7.0
 P.1-1      15.0

     ATOMIC BASIS SET LIBRARY
     ----------------
 THE CONTRACTED PRIMITIVE FUNCTIONS HAVE BEEN UNNORMALIZED
 THE CONTRACTED BASIS FUNCTIONS ARE NOW NORMALIZED TO UNITY

  SHELL TYPE  PRIMITIVE        EXPONENT          CONTRACTION COEFFICIENT(S)

 H.1-1     

      1   S       1            18.7311370    0.033494604338
      1   S       2             2.8253944    0.234726953484
      1   S       3             0.6401217    0.813757326146

      2   S       4             0.1612778    1.000000000000

 O.1-1     

      3   S       5          5484.6716600    0.001831074430
      3   S       6           825.2349460    0.013950172200
      3   S       7           188.0469580    0.068445078098
      3   S       8            52.9645000    0.232714335992
      3   S       9            16.8975704    0.470192897984
      3   S      10             5.7996353    0.358520852987

      4   L      11            15.5396162   -0.110777549525    0.070874268231
      4   L      12             3.5999336   -0.148026262701    0.339752839147
      4   L      13             1.0137618    1.130767015354    0.727158577316

      5   L      14             0.2700058    1.000000000000    1.000000000000

      6   D      15             0.8000000    1.000000000000

 C.1-1     

      7   S      16          3047.5248800    0.001834737132
      7   S      17           457.3695180    0.014037322813
      7   S      18           103.9486850    0.068842622264
      7   S      19            29.2101553    0.232184443216
      7   S      20             9.2866630    0.467941348435
      7   S      21             3.1639270    0.362311985337

      8   L      22             7.8682723   -0.119332419775    0.068999066591
      8   L      23             1.8812885   -0.160854151696    0.316423960957
      8   L      24             0.5442493    1.143456437840    0.744308290898

      9   L      25             0.1687145    1.000000000000    1.000000000000

     10   D      26             0.8000000    1.000000000000

 N.1-1     

     11   S      27          4173.5114600    0.001834772160
     11   S      28           627.4579110    0.013994627002
     11   S      29           142.9020930    0.068586551812
     11   S      30            40.2343293    0.232240873040
     11   S      31            12.8202129    0.469069948082
     11   S      32             4.3904370    0.360455199063

     12   L      33            11.6263619   -0.114961181702    0.067579743878
     12   L      34             2.7162798   -0.169117478561    0.323907295893
     12   L      35             0.7722184    1.145851947027    0.740895139755

     13   L      36             0.2120315    1.000000000000    1.000000000000

     14   D      37             0.8000000    1.000000000000

 P.1-1     

     15   S      38         19413.3000000    0.001851598923
     15   S      39          2909.4200000    0.014206191735
     15   S      40           661.3640000    0.069999459277
     15   S      41           185.7590000    0.240078860331
     15   S      42            59.1943000    0.484761717984
     15   S      43            20.0310000    0.335199804993

     16   L      44           339.4780000   -0.002782170105    0.004564616191
     16   L      45            81.0101000   -0.036049901354    0.033693571881
     16   L      46            25.8780000   -0.116631004382    0.139754883368
     16   L      47             9.4522100    0.096832803638    0.339361716786
     16   L      48             3.6656600    0.614418023082    0.450920623685
     16   L      49             1.4674600    0.403798015170    0.238585800889

     17   L      50             2.1562300   -0.252924113863   -0.017765312733
     17   L      51             0.7489970    0.032851844678    0.274058196433
     17   L      52             0.2831450    1.081254761783    0.785421562957

     18   L      53             0.0998317    1.000000000000    1.000000000000

     19   D      54             0.5500000    1.000000000000

 TOTAL NUMBER OF BASIS SET SHELLS             =   19
 NUMBER OF CARTESIAN GAUSSIAN BASIS FUNCTIONS =   66

     $CONTRL OPTIONS
     ---------------
 SCFTYP=RHF          RUNTYP=ENERGY       EXETYP=RUN     
 MPLEVL=       0     CITYP =NONE         CCTYP =NONE         VBTYP =NONE    
 DFTTYP=NONE         TDDFT =NONE    
 MULT  =       1     ICHARG=       0     NZVAR =       0     COORD =UNIQUE  
 PP    =NONE         RELWFN=NONE         LOCAL =NONE         NUMGRD=       F
 ISPHER=       1     NOSYM =       0     MAXIT =     200     UNITS =ANGS    
 PLTORB=       F     MOLPLT=       F     AIMPAC=       F     FRIEND=        
 NPRINT=      -5     IREST =       0     GEOM  =INPUT   
 NORMF =       0     NORMP =       0     ITOL  =      24     ICUT  =      12
 INTTYP=BEST         GRDTYP=BEST         QMTTOL= 1.0E-06

     $SYSTEM OPTIONS
     ---------------
  REPLICATED MEMORY=    63000000 WORDS (ON EVERY NODE).
 DISTRIBUTED MEMDDI=          63 MILLION WORDS IN AGGREGATE,
 MEMDDI DISTRIBUTED OVER  16 PROCESSORS IS     3937500 WORDS/PROCESSOR.
 TOTAL MEMORY REQUESTED ON EACH PROCESSOR=    66937500 WORDS.
 TIMLIM=      525600.00 MINUTES, OR     365.0 DAYS.
 PARALL= T  BALTYP=  DLB     KDIAG=    0  COREFL= F
 MXSEQ2=     300 MXSEQ3=     150  mem10=         0

 ** LOOKING UP INTERNALLY STORED DATA FOR SOLVENT=WATER    **
 OPTICAL AND PHYSICAL CONSTANTS:
 EPS= 78.390; EPSINF=  1.776; RSOLV=  1.385 A; VMOL=  18.070 ML/MOL;
 TCE= .25700E-03 1/K; STEN= 71.810 DYN/CM;  DSTEN=  0.6500; CMF=  1.2770


     -----------------------------------
     INPUT FOR PCM SOLVATION CALCULATION 
     -----------------------------------
     IEF   =     -10
     ICOMP =       2     IFIELD=       0     ICAV  =       1
     IDISP =       1     IREP  =       0     IDP   =       0

     SOLVNT=WATER        EPS   = 78.3900     EPSINF=  1.7760
     VMOL  = 18.0700     TCE   =  0.00025700 STEN  = 71.8100
     DSTEN =  0.6500     CMF   =  1.2770     RSOLV =  1.3850

     NESFP =       0
     OMEGA = 40.0000     RET   =100.0000     FRO   =  0.7000

     TABS  =298.0000     IPRINT=       0

     --------------------------------
     INPUT FOR ITERATIVE C-PCM METHOD 
     --------------------------------
     IPCMIT  =         1     MXDIIS  =        50
     MXITR1  =       200     MXITR2  =       200
     THRES   = 0.100E-09     IMUL    =         3
     RCUT(1) =   20.0000     RCUT(2) =   50.0000

     IDIRCT  =         1
     IMGABI  =         0     RABI    =    4.0000
     IMGASC  =         0     RASC    =   20.0000
     THRSLS  = 0.500E-03     DENSLS  =    0.0100
     IEFPOL  =         1     REFPOL  =    0.0000

     INPUT FOR ISOTROPIC DIELECTRICS
     -------------------------------
     EPS=    78.39

          ----------------
          PROPERTIES INPUT
          ----------------

     MOMENTS            FIELD           POTENTIAL          DENSITY
 IEMOM =       1   IEFLD =       0   IEPOT =       0   IEDEN =       0
 WHERE =COMASS     WHERE =NUCLEI     WHERE =NUCLEI     WHERE =NUCLEI  
 OUTPUT=BOTH       OUTPUT=BOTH       OUTPUT=NONE       OUTPUT=BOTH    
 IEMINT=       0   IEFINT=       0                     IEDINT=       0
                                                       MORB  =       0
          EXTRAPOLATION IN EFFECT
          SOSCF IN EFFECT
 ORBITAL PRINTING OPTION: NPREO=     1 32767     2     1

     -------------------------------
     INTEGRAL TRANSFORMATION OPTIONS
     -------------------------------
     NWORD  =            0
     CUTOFF = 1.0E-10     MPTRAN =       0
     DIRTRF =       T     AOINTS =DUP     

          ----------------------
          INTEGRAL INPUT OPTIONS
          ----------------------
 NOPK  =       1 NORDER=       0 SCHWRZ=       T

 ..... DONE SETTING UP THE RUN .....
 CPU     0: STEP CPU TIME=     0.04 TOTAL CPU TIME=          0.0 (      0.0 MIN)
 TOTAL WALL CLOCK TIME=          0.1 SECONDS, CPU UTILIZATION IS    71.43%
 CPU     0: STEP CPU TIME=     0.00 TOTAL CPU TIME=          0.0 (      0.0 MIN)
 TOTAL WALL CLOCK TIME=          0.1 SECONDS, CPU UTILIZATION IS    71.43%

                    ----------------------
                    AO INTEGRAL TECHNOLOGY
                    ----------------------
     S,P,L SHELL ROTATED AXIS INTEGRALS, REPROGRAMMED BY
        KAZUYA ISHIMURA (IMS) AND JOSE SIERRA (SYNSTAR).
     S,P,D,L SHELL ROTATED AXIS INTEGRALS PROGRAMMED BY
        KAZUYA ISHIMURA (INSTITUTE FOR MOLECULAR SCIENCE).
     S,P,D,F,G SHELL TO TOTAL QUARTET ANGULAR MOMENTUM SUM 5,
        ERIC PROGRAM BY GRAHAM FLETCHER (ELORET AND NASA ADVANCED
        SUPERCOMPUTING DIVISION, AMES RESEARCH CENTER).
     S,P,D,F,G,L SHELL GENERAL RYS QUADRATURE PROGRAMMED BY
        MICHEL DUPUIS (PACIFIC NORTHWEST NATIONAL LABORATORY).
 Setting modorb=1 flag...
 Setting modorb=1 flag...

          -----------------------
          MP2 CONTROL INFORMATION
          -----------------------
          NACORE =        8  NBCORE =        8
          LMOMP2 =        F  AOINTS = DUP     
          METHOD =        2  NWORD  =               0
          MP2PRP =        F  OSPT   = NONE    
          CUTOFF = 1.00E-12  CPHFBS = BASISAO 
          CODE   = IMS     

          NUMBER OF CORE -A-  ORBITALS =     8
          NUMBER OF CORE -B-  ORBITALS =     8
          NUMBER OF OCC. -A-  ORBITALS =    18
          NUMBER OF OCC. -B-  ORBITALS =    18
          NUMBER OF MOLECULAR ORBITALS =    66
          NUMBER OF   BASIS  FUNCTIONS =    66

 CPU     0: STEP CPU TIME=     0.02 TOTAL CPU TIME=          0.1 (      0.0 MIN)
 TOTAL WALL CLOCK TIME=          0.1 SECONDS, CPU UTILIZATION IS    63.64%
 CPU     0: STEP CPU TIME=     0.00 TOTAL CPU TIME=          0.1 (      0.0 MIN)
 TOTAL WALL CLOCK TIME=          0.1 SECONDS, CPU UTILIZATION IS    63.64%

     INPUT FOR CAVITY DEFINITION 
     ---------------------------
   ATOM               COORDINATES                RADIUS       EPS
      1    -40.3700    111.7150    -50.1070      0.0100     78.3900
      2    -40.2270    112.4080    -50.7790      1.5900     78.3900
      3    -39.0410    113.1170    -50.3910      1.7700     78.3900
      4    -38.2150    112.3880    -50.2340      0.0100     78.3900
      5    -39.2300    113.6310    -49.4220      0.0100     78.3900
      6    -38.5840    114.1580    -51.4180      1.7700     78.3900
      7    -37.7000    114.7160    -51.0450      0.0100     78.3900
      8    -38.1920    113.4970    -52.6550      1.5900     78.3900
      9    -38.6170    114.2870    -53.7600      1.7700     78.3900
     10    -37.7000    114.4790    -54.3660      0.0100     78.3900
     11    -39.6200    113.5950    -54.6160      1.6800     78.3900
     12    -40.3230    112.5160    -54.1290      1.7700     78.3900
     13    -40.1000    112.2150    -53.1040      0.0100     78.3900
     14    -41.2080    111.8580    -54.8890      1.7700     78.3900
     15    -41.7530    110.9910    -54.5260      0.0100     78.3900
     16    -39.8600    114.0430    -55.9130      1.7700     78.3900
     17    -39.2390    115.0300    -56.3340      1.5900     78.3900
     18    -40.7370    113.3840    -56.7000      1.6800     78.3900
     19    -41.4000    112.3140    -56.2240      1.7700     78.3900
     20    -42.2370    111.6630    -57.0290      1.6800     78.3900
     21    -42.4160    112.0140    -57.9500      0.0100     78.3900
     22    -42.7400    110.8570    -56.7170      0.0100     78.3900
     23    -39.1220    115.6020    -53.2050      1.7700     78.3900
     24    -39.9180    116.0560    -53.8320      0.0100     78.3900
     25    -38.0390    116.5020    -53.0720      1.5900     78.3900
     26    -38.3800    117.2810    -52.6170      0.0100     78.3900
     27    -39.6550    115.1720    -51.8420      1.7700     78.3900
     28    -40.6090    114.6070    -51.9630      0.0100     78.3900
     29    -39.7450    116.2200    -50.8530      1.5900     78.3900
     30    -41.0690    117.0670    -50.7340      2.1000     78.3900
     31    -42.2200    116.1620    -50.5340      1.5900     78.3900
     32    -40.8660    118.1120    -49.7080      1.5900     78.3900
     33    -41.2040    117.7530    -52.1450      1.5900     78.3900
     34    -40.3770    118.9000    -52.4560      1.7700     78.3900
     35    -39.2970    118.6350    -52.4380      0.0100     78.3900
     36    -40.5310    119.7220    -51.7130      0.0100     78.3900
     37    -40.6960    119.4550    -53.8450      1.7700     78.3900
     38    -40.0210    120.3000    -54.1040      0.0100     78.3900
     39    -40.5130    118.4270    -54.8550      1.5900     78.3900
     40    -41.5200    118.5710    -55.8410      1.7700     78.3900
     41    -40.9900    118.6940    -56.8050      0.0100     78.3900
     42    -42.3660    117.3800    -55.9350      1.6800     78.3900
     43    -43.1250    117.0190    -57.0150      1.7700     78.3900
     44    -44.3000    117.6360    -60.2190      1.6800     78.3900
     45    -43.8680    118.5010    -60.4580      0.0100     78.3900
     46    -44.9490    117.2120    -60.8580      0.0100     78.3900
     47    -43.2320    117.7000    -58.1750      1.6800     78.3900
     48    -44.0530    117.1030    -59.0330      1.7700     78.3900
     49    -44.6590    115.9030    -58.7790      1.6800     78.3900
     50    -45.2660    115.5190    -59.4860      0.0100     78.3900
     51    -44.5460    115.1650    -57.6070      1.7700     78.3900
     52    -45.1260    114.0840    -57.4620      1.5900     78.3900
     53    -43.7150    115.8190    -56.6610      1.7700     78.3900
     54    -43.3490    115.4440    -55.3700      1.6800     78.3900
     55    -42.5430    116.4050    -54.9810      1.7700     78.3900
     56    -42.0350    116.4610    -54.0170      0.0100     78.3900
     57    -42.3090    119.8290    -55.5300      1.7700     78.3900
     58    -43.3840    119.7510    -55.8100      0.0100     78.3900
     59    -41.7130    120.9370    -56.1840      1.5900     78.3900
     60    -42.1860    121.7280    -55.8840      0.0100     78.3900
     61    -42.1450    119.9260    -54.0170      1.7700     78.3900
     62    -42.7950    119.1760    -53.5100      0.0100     78.3900
     63    -42.2910    121.2540    -53.4670      1.5900     78.3900
     64    -43.7290    121.8200    -53.1730      2.1000     78.3900
     65    -44.5100    120.7720    -52.4790      1.5900     78.3900
     66    -43.5710    123.1150    -52.4770      1.5900     78.3900
     67    -44.3590    122.1090    -54.5890      1.5900     78.3900
     68    -45.8100    122.1980    -54.6960      1.7700     78.3900
     69    -46.1930    123.0790    -54.1300      0.0100     78.3900
     70    -46.3010    121.3020    -54.2580      0.0100     78.3900
     71    -46.2790    122.3360    -56.1620      1.7700     78.3900
     72    -45.9550    123.3160    -56.5770      0.0100     78.3900
     73    -45.6630    121.3110    -56.9990      1.5900     78.3900
     74    -46.6150    120.8050    -57.9220      1.7700     78.3900
     75    -46.1280    120.8880    -58.9170      0.0100     78.3900
     76    -46.9610    119.3870    -57.6710      1.6800     78.3900
     77    -46.8560    118.6510    -56.5070      1.7700     78.3900
     78    -45.9380    118.4630    -53.1770      1.6800     78.3900
     79    -45.9620    117.8110    -52.4220      0.0100     78.3900
     80    -45.4980    119.3580    -53.0390      0.0100     78.3900
     81    -46.4110    119.0930    -55.3200      1.6800     78.3900
     82    -46.3810    118.1670    -54.3880      1.7700     78.3900
     83    -46.8350    116.8930    -54.5900      1.6800     78.3900
     84    -46.8080    116.2500    -53.8200      0.0100     78.3900
     85    -47.3370    116.4060    -55.7940      1.7700     78.3900
     86    -47.7410    115.2400    -55.8930      1.5900     78.3900
     87    -47.3120    117.3910    -56.8170      1.7700     78.3900
     88    -47.6870    117.3200    -58.1520      1.6800     78.3900
     89    -47.4720    118.5240    -58.6140      1.7700     78.3900
     90    -47.6670    118.8370    -59.6410      0.0100     78.3900
     91    -47.8230    121.7130    -57.8600      1.7700     78.3900
     92    -48.7700    121.1840    -58.0890      0.0100     78.3900
     93    -47.6600    122.8010    -58.7520      1.5900     78.3900
     94    -48.3300    123.4550    -58.5100      0.0100     78.3900
     95    -47.7960    122.1740    -56.4040      1.7700     78.3900
     96    -48.1240    121.3430    -55.7360      0.0100     78.3900
     97    -48.4970    123.4240    -56.1580      1.5900     78.3900
     98    -50.0040    123.3710    -55.6880      2.1000     78.3900
     99    -50.1140    122.4080    -54.5720      1.5900     78.3900
    100    -50.4770    124.7480    -55.4270      1.5900     78.3900
    101    -50.7870    122.7920    -56.9200      1.5900     78.3900
    102    -51.0020    123.5620    -58.1240      1.7700     78.3900
    103    -50.0330    123.8630    -58.5830      0.0100     78.3900
    104    -51.5750    124.4910    -57.9000      0.0100     78.3900
    105    -51.7890    122.7430    -59.1610      1.7700     78.3900
    106    -51.9310    123.3190    -60.1010      0.0100     78.3900
    107    -51.0360    121.5390    -59.4930      1.5900     78.3900
    108    -51.9210    120.4380    -59.5970      1.7700     78.3900
    109    -51.7460    119.9910    -60.6060      0.0100     78.3900
    110    -51.6390    119.4340    -58.5630      1.6800     78.3900
    111    -51.5480    117.5530    -57.4310      1.7700     78.3900
    112    -50.8150    118.4760    -56.6990      1.6800     78.3900
    113    -50.8920    119.5710    -57.4160      1.7700     78.3900
    114    -50.4250    120.5190    -57.1550      0.0100     78.3900
    115    -52.6580    115.5790    -58.1210      1.6800     78.3900
    116    -53.1140    116.2960    -59.1470      1.7700     78.3900
    117    -53.7740    115.7650    -59.8380      0.0100     78.3900
    118    -52.8690    117.5610    -59.4800      1.6800     78.3900
    119    -52.0690    118.1350    -58.5740      1.7700     78.3900
    120    -51.8520    116.1930    -57.2100      1.7700     78.3900
    121    -51.3870    115.5140    -56.1410      1.6800     78.3900
    122    -50.7570    115.9460    -55.4920      0.0100     78.3900
    123    -51.5060    114.5210    -56.0700      0.0100     78.3900
    124    -53.3360    120.9710    -59.5260      1.7700     78.3900
    125    -54.0440    120.2610    -59.0440      0.0100     78.3900
    126    -53.7920    121.2890    -60.8270      1.5900     78.3900
    127    -54.6560    121.7140    -60.7200      0.0100     78.3900
    128    -53.1570    122.2270    -58.6800      1.7700     78.3900
    129    -53.0300    121.9520    -57.6070      0.0100     78.3900
    130    -54.1710    123.2450    -58.8740      1.5900     78.3900
    131    -55.5410    123.0820    -58.1060      2.1000     78.3900
    132    -55.2580    122.6140    -56.7300      1.5900     78.3900
    133    -56.3090    124.3460    -58.2340      1.5900     78.3900
    134    -56.3180    121.9530    -58.8940      1.5900     78.3900
    135    -57.3590    121.2190    -58.1930      1.7700     78.3900
    136    -58.3030    121.8090    -58.1840      0.0100     78.3900
    137    -57.0830    121.0060    -57.1300      0.0100     78.3900
    138    -57.6390    119.8580    -58.8460      1.7700     78.3900
    139    -58.0160    119.9790    -59.8800      0.0100     78.3900
    140    -56.4060    119.0870    -58.9180      1.5900     78.3900
    141    -56.6720    117.7310    -58.5980      1.7700     78.3900
    142    -56.2740    117.1400    -59.4540      0.0100     78.3900
    143    -55.9880    117.2910    -57.3470      1.6800     78.3900
    144    -55.5360    118.2240    -56.4380      1.7700     78.3900
    145    -55.7130    119.2740    -56.6860      0.0100     78.3900
    146    -54.8900    117.8560    -55.3250      1.7700     78.3900
    147    -54.5100    118.5860    -54.6110      0.0100     78.3900
    148    -55.8000    115.9320    -57.0920      1.7700     78.3900
    149    -56.2130    115.0990    -57.9130      1.5900     78.3900
    150    -55.1600    115.5430    -55.9670      1.6800     78.3900
    151    -54.6910    116.4620    -55.1020      1.7700     78.3900
    152    -54.0070    116.0520    -54.0340      1.6800     78.3900
    153    -53.8820    115.0700    -53.8910      0.0100     78.3900
    154    -53.7090    116.6810    -53.3130      0.0100     78.3900
    155    -58.1800    117.5690    -58.5400      1.7700     78.3900
    156    -58.4980    116.7710    -57.8390      0.0100     78.3900
    157    -58.6860    117.2920    -59.8330      1.5900     78.3900
    158    -59.6480    117.3630    -59.7850      0.0100     78.3900
    159    -58.6060    118.9520    -58.0630      1.7700     78.3900
    160    -58.3430    119.0770    -56.9860      0.0100     78.3900
    161    -59.9760    119.3080    -58.3640      1.5900     78.3900
    162    -61.0640    119.1580    -57.2320      2.1000     78.3900
    163    -60.5360    119.7060    -55.9660      1.5900     78.3900
    164    -62.3510    119.7090    -57.7050      1.5900     78.3900
    165    -61.2050    117.5950    -57.0950      1.5900     78.3900
    166    -61.9130    116.8770    -58.1360      1.7700     78.3900
    167    -61.4390    117.0340    -59.1340      0.0100     78.3900
    168    -62.9730    117.2200    -58.2020      0.0100     78.3900
    169    -61.9410    115.3750    -57.8450      1.7700     78.3900
    170    -62.4890    114.8360    -58.6480      0.0100     78.3900
    171    -60.5880    114.8410    -57.8170      1.5900     78.3900
    172    -60.4920    113.8600    -56.7950      1.7700     78.3900
    173    -60.1270    112.9250    -57.2820      0.0100     78.3900
    174    -59.5290    114.2620    -55.7590      1.6800     78.3900
    175    -58.9220    113.4340    -54.8550      1.7700     78.3900
    176    -58.4400    110.2690    -53.5330      1.6800     78.3900
    177    -59.0850    109.7150    -54.0560      0.0100     78.3900
    178    -57.9040    109.8370    -52.8020      0.0100     78.3900
    179    -59.1260    112.1080    -54.7400      1.6800     78.3900
    180    -58.3750    111.5650    -53.7850      1.7700     78.3900
    181    -57.4970    112.2830    -53.0200      1.6800     78.3900
    182    -56.9930    111.7980    -52.2930      0.0100     78.3900
    183    -57.2910    113.6570    -53.0920      1.7700     78.3900
    184    -56.4890    114.2240    -52.3440      1.5900     78.3900
    185    -58.0880    114.2440    -54.1100      1.7700     78.3900
    186    -58.1930    115.5690    -54.5170      1.6800     78.3900
    187    -59.0630    115.5320    -55.4950      1.7700     78.3900
    188    -59.4110    116.3960    -56.0630      0.0100     78.3900
    189    -61.8860    113.6300    -56.2360      1.7700     78.3900
    190    -61.8690    113.4030    -55.1470      0.0100     78.3900
    191    -62.5260    112.5710    -56.9330      1.5900     78.3900
    192    -62.6580    112.8240    -57.8630      0.0100     78.3900
    193    -62.5430    114.9850    -56.4900      1.7700     78.3900
    194    -62.2020    115.7270    -55.7360      0.0100     78.3900
    195    -63.9790    114.9580    -56.5720      1.5900     78.3900
    196    -64.3430    114.6420    -55.7290      0.0100     78.3900
    197    -51.9380    107.4410    -46.6640      0.0100     78.3900
    198    -52.4950    107.4150    -47.4650      1.5900     78.3900
    199    -53.2080    106.1700    -47.4270      1.7700     78.3900
    200    -53.7220    106.0750    -46.4430      0.0100     78.3900
    201    -52.4760    105.3370    -47.5100      0.0100     78.3900
    202    -54.2390    106.0100    -48.5510      1.7700     78.3900
    203    -54.6750    104.9870    -48.5410      0.0100     78.3900
    204    -55.3330    106.9490    -48.3560      1.5900     78.3900
    205    -55.7610    107.4430    -49.6170      1.7700     78.3900
    206    -56.8510    107.2100    -49.6840      0.0100     78.3900
    207    -55.5550    108.9070    -49.7700      1.6800     78.3900
    208    -54.6390    109.5620    -48.9810      1.7700     78.3900
    209    -54.1230    108.9550    -48.2330      0.0100     78.3900
    210    -54.4350    110.8800    -49.0970      1.7700     78.3900
    211    -53.7310    111.4190    -48.4650      0.0100     78.3900
    212    -56.2410    109.6080    -50.7580      1.7700     78.3900
    213    -57.0290    108.9970    -51.4970      1.5900     78.3900
    214    -56.0570    110.9410    -50.8860      1.6800     78.3900
    215    -55.1760    111.5790    -50.0920      1.7700     78.3900
    216    -55.0070    112.8920    -50.2390      1.6800     78.3900
    217    -55.5000    113.3760    -50.9650      0.0100     78.3900
    218    -54.4020    113.4160    -49.6320      0.0100     78.3900
    219    -55.0290    106.6520    -50.6810      1.7700     78.3900
    220    -54.8420    107.2410    -51.6030      0.0100     78.3900
    221    -55.7610    105.4880    -51.0010      1.5900     78.3900
    222    -55.2140    105.0080    -51.6290      0.0100     78.3900
    223    -53.7260    106.3070    -49.9680      1.7700     78.3900
    224    -53.0740    107.2080    -49.9000      0.0100     78.3900
    225    -53.0300    105.1500    -50.4780      1.5900     78.3900
    226    -51.9360    105.3170    -51.5970      2.1000     78.3900
    227    -51.0450    106.4430    -51.2440      1.5900     78.3900
    228    -51.2950    104.0020    -51.8050      1.5900     78.3900
    229    -52.7720    105.7140    -52.8630      1.5900     78.3900
    230    -53.6880    104.7800    -53.4800      1.7700     78.3900
    231    -54.4020    104.3370    -52.7500      0.0100     78.3900
    232    -53.1300    103.9180    -53.9070      0.0100     78.3900
    233    -54.4480    105.4520    -54.6320      1.7700     78.3900
    234    -55.1350    104.7400    -55.1360      0.0100     78.3900
    235    -55.2590    106.5630    -54.1530      1.5900     78.3900
    236    -55.2480    107.6070    -55.1230      1.7700     78.3900
    237    -56.3080    107.8000    -55.4070      0.0100     78.3900
    238    -54.6650    108.8460    -54.5750      1.6800     78.3900
    239    -54.8460    110.1280    -55.0320      1.7700     78.3900
    240    -56.2740    112.3750    -57.2570      1.6800     78.3900
    241    -56.7730    111.7840    -57.8890      0.0100     78.3900
    242    -56.2790    113.3690    -57.4090      0.0100     78.3900
    243    -55.5890    110.4980    -56.0940      1.6800     78.3900
    244    -55.6060    111.8200    -56.2620      1.7700     78.3900
    245    -54.9330    112.6890    -55.4500      1.6800     78.3900
    246    -54.9880    113.6780    -55.6470      0.0100     78.3900
    247    -54.1560    112.3420    -54.3520      1.7700     78.3900
    248    -53.5940    113.2040    -53.6730      1.5900     78.3900
    249    -54.1270    110.9340    -54.1680      1.7700     78.3900
    250    -53.4840    110.1720    -53.2020      1.6800     78.3900
    251    -53.8260    108.9390    -53.4890      1.7700     78.3900
    252    -53.5020    108.0500    -52.9460      0.0100     78.3900
    253    -54.4840    107.0950    -56.3280      1.7700     78.3900
    254    -53.9250    107.9070    -56.8330      0.0100     78.3900
    255    -55.3640    106.4830    -57.2500      1.5900     78.3900
    256    -54.8080    106.0370    -57.9100      0.0100     78.3900
    257    -53.5370    106.0770    -55.6880      1.7700     78.3900
    258    -52.7240    106.6400    -55.1720      0.0100     78.3900
    259    -53.0530    105.0490    -56.5800      1.5900     78.3900
    260    -51.6020    104.4550    -56.4030      2.1000     78.3900
    261    -50.6810    105.4780    -55.8330      1.5900     78.3900
    262    -51.7070    103.1790    -55.6780      1.5900     78.3900
    263    -51.1300    104.0820    -57.8680      1.5900     78.3900
    264    -50.4010    105.0440    -58.6750      1.7700     78.3900
    265    -49.6730    104.4940    -59.3110      0.0100     78.3900
    266    -49.8000    105.7550    -58.0620      0.0100     78.3900
    267    -51.3170    105.8590    -59.6040      1.7700     78.3900
    268    -51.8510    105.1760    -60.2930      0.0100     78.3900
    269    -52.3380    106.5440    -58.8360      1.5900     78.3900
    270    -52.5080    107.8530    -59.3090      1.7700     78.3900
    271    -53.6030    107.9960    -59.4480      0.0100     78.3900
    272    -52.0200    108.8360    -58.3360      1.6800     78.3900
    273    -52.2780    110.1720    -58.3730      1.7700     78.3900
    274    -53.7180    112.8870    -59.9470      1.6800     78.3900
    275    -53.9050    113.8450    -59.7550      0.0100     78.3900
    276    -54.1940    112.4400    -60.7020      0.0100     78.3900
    277    -52.9910    110.8070    -59.3170      1.6800     78.3900
    278    -53.0700    112.1110    -59.0950      1.7700     78.3900
    279    -52.5380    112.7210    -57.9910      1.6800     78.3900
    280    -52.6010    113.7270    -57.9240      0.0100     78.3900
    281    -51.7980    112.0850    -56.9960      1.7700     78.3900
    282    -51.3450    112.7020    -56.0290      1.5900     78.3900
    283    -51.6740    110.6970    -57.2490      1.7700     78.3900
    284    -51.0370    109.7020    -56.5180      1.6800     78.3900
    285    -51.2730    108.6070    -57.1990      1.7700     78.3900
    286    -50.9420    107.6040    -56.9200      0.0100     78.3900
    287    -51.8040    107.9300    -60.6340      1.7700     78.3900
    288    -51.4480    108.9530    -60.8700      0.0100     78.3900
    289    -52.6740    107.4790    -61.6570      1.5900     78.3900
    290    -52.1200    107.3390    -62.4350      0.0100     78.3900
    291    -50.6440    106.9600    -60.4240      1.7700     78.3900
    292    -49.8690    107.4130    -59.7620      0.0100     78.3900
    293    -50.0960    106.3940    -61.6360      1.5900     78.3900
    294    -48.9540    107.1800    -62.3780      2.1000     78.3900
    295    -47.9420    107.5770    -61.3760      1.5900     78.3900
    296    -48.4800    106.3420    -63.5000      1.5900     78.3900
    297    -49.6790    108.4710    -62.9170      1.5900     78.3900
    298    -50.5150    108.4180    -64.0950      1.7700     78.3900
    299    -51.4630    107.8770    -63.8810      0.0100     78.3900
    300    -49.9970    107.8890    -64.9280      0.0100     78.3900
    301    -50.8760    109.8200    -64.5970      1.7700     78.3900
    302    -51.5450    109.7680    -65.4830      0.0100     78.3900
    303    -51.5830    110.5540    -63.5580      1.5900     78.3900
    304    -51.1760    111.9150    -63.5850      1.7700     78.3900
    305    -52.1010    112.5190    -63.7320      0.0100     78.3900
    306    -50.5530    112.3120    -62.3210      1.6800     78.3900
    307    -49.7420    113.4810    -60.6480      1.7700     78.3900
    308    -49.6710    112.1470    -60.2620      1.6800     78.3900
    309    -50.1600    111.4970    -61.2900      1.7700     78.3900
    310    -50.2580    110.4140    -61.3700      0.0100     78.3900
    311    -49.5640    115.8400    -60.6870      1.6800     78.3900
    312    -50.0720    115.7850    -61.9160      1.7700     78.3900
    313    -50.1800    116.7570    -62.4110      0.0100     78.3900
    314    -50.4810    114.7190    -62.6120      1.6800     78.3900
    315    -50.2810    113.5910    -61.9170      1.7700     78.3900
    316    -49.3820    114.6790    -60.0040      1.7700     78.3900
    317    -48.8730    114.7220    -58.7660      1.6800     78.3900
    318    -48.6700    113.9030    -58.2300      0.0100     78.3900
    319    -48.4790    115.5980    -58.4650      0.0100     78.3900
    320    -50.2610    112.1010    -64.7750      1.7700     78.3900
    321    -49.4630    112.8510    -64.5920      0.0100     78.3900
    322    -51.0310    112.4820    -65.8970      1.5900     78.3900
    323    -50.4710    112.3770    -66.6800      0.0100     78.3900
    324    -49.6720    110.7040    -64.9440      1.7700     78.3900
    325    -48.8990    110.5110    -64.1630      0.0100     78.3900
    326    -49.2100    110.3990    -66.2780      1.5900     78.3900
    327    -47.7000    110.5970    -66.6600      2.1000     78.3900
    328    -46.8820    109.7230    -65.7970      1.5900     78.3900
    329    -47.5590    110.4300    -68.1270      1.5900     78.3900
    330    -47.4060    112.0870    -66.2670      1.5900     78.3900
    331    -47.7590    113.1820    -67.1370      1.7700     78.3900
    332    -48.8600    113.2330    -67.2860      0.0100     78.3900
    333    -47.2800    113.0650    -68.1340      0.0100     78.3900
    334    -47.3120    114.5270    -66.5510      1.7700     78.3900
    335    -47.6040    115.3620    -67.2230      0.0100     78.3900
    336    -47.9760    114.7550    -65.2750      1.5900     78.3900
    337    -47.0810    115.4230    -64.3940      1.7700     78.3900
    338    -47.6040    116.3640    -64.1030      0.0100     78.3900
    339    -46.7770    114.6360    -63.1680      1.6800     78.3900
    340    -46.8630    113.2620    -63.1840      1.7700     78.3900
    341    -47.2040    112.8190    -64.1190      0.0100     78.3900
    342    -46.5890    112.5330    -62.0930      1.7700     78.3900
    343    -46.6740    111.4460    -62.0750      0.0100     78.3900
    344    -46.3020    115.2830    -62.0290      1.7700     78.3900
    345    -46.1160    116.5100    -62.0600      1.5900     78.3900
    346    -46.0500    114.5670    -60.9120      1.6800     78.3900
    347    -46.1910    113.2300    -60.9150      1.7700     78.3900
    348    -45.9820    112.5540    -59.7860      1.6800     78.3900
    349    -45.6800    113.0560    -58.9740      0.0100     78.3900
    350    -46.0450    111.5570    -59.7470      0.0100     78.3900
    351    -45.8340    115.7800    -65.1870      1.7700     78.3900
    352    -44.9150    115.7580    -64.5660      0.0100     78.3900
    353    -45.9750    117.0610    -65.7800      1.5900     78.3900
    354    -45.2580    117.1560    -66.4260      0.0100     78.3900
    355    -45.8180    114.6710    -66.2310      1.7700     78.3900
    356    -45.5020    113.7110    -65.7570      0.0100     78.3900
    357    -45.0880    114.9950    -67.4300      1.5900     78.3900
    358    -43.7780    114.2130    -67.8100      2.1000     78.3900
    359    -43.8730    112.7980    -67.3990      1.5900     78.3900
    360    -43.4790    114.4690    -69.2370      1.5900     78.3900
    361    -42.6980    114.9190    -66.9050      1.5900     78.3900
    362    -42.2550    116.2470    -67.2700      1.7700     78.3900
    363    -43.1170    116.9460    -67.3840      0.0100     78.3900
    364    -41.7070    116.2200    -68.2460      0.0100     78.3900
    365    -41.3160    116.8270    -66.2090      1.7700     78.3900
    366    -40.9000    117.8040    -66.5450      0.0100     78.3900
    367    -42.0520    117.0610    -64.9750      1.5900     78.3900
    368    -41.2140    116.7560    -63.8690      1.7700     78.3900
    369    -41.1770    117.6670    -63.2320      0.0100     78.3900
    370    -41.7620    115.6460    -63.0760      1.6800     78.3900
    371    -41.4310    115.3370    -61.7860      1.7700     78.3900
    372    -39.5910    115.9840    -58.9240      1.6800     78.3900
    373    -39.0390    116.7670    -59.1990      0.0100     78.3900
    374    -39.5080    115.6240    -57.9910      0.0100     78.3900
    375    -40.5310    115.9890    -61.0280      1.6800     78.3900
    376    -40.4380    115.4760    -59.8030      1.7700     78.3900
    377    -41.1800    114.4070    -59.3780      1.6800     78.3900
    378    -41.0360    114.0720    -58.4370      0.0100     78.3900
    379    -42.1120    113.7090    -60.1400      1.7700     78.3900
    380    -42.7310    112.7500    -59.6700      1.5900     78.3900
    381    -42.2090    114.2450    -61.4540      1.7700     78.3900
    382    -43.0060    113.8600    -62.5270      1.6800     78.3900
    383    -42.7020    114.7190    -63.4710      1.7700     78.3900
    384    -43.1210    114.7360    -64.4800      0.0100     78.3900
    385    -39.8220    116.4510    -64.4050      1.7700     78.3900
    386    -39.3080    115.6780    -63.7970      0.0100     78.3900
    387    -39.0350    117.6370    -64.4380      1.5900     78.3900
    388    -38.2400    117.4720    -64.9750      0.0100     78.3900
    389    -40.1480    115.9220    -65.7980      1.7700     78.3900
    390    -40.5220    114.8780    -65.7330      0.0100     78.3900
    391    -39.0690    116.0230    -66.7430      1.5900     78.3900
    392    -38.3580    115.4000    -66.5050      0.0100     78.3900

     ----------------------------
     INPUT FOR TESSERA DEFINITION
     ----------------------------
     NTSALL  =        60     MTHALL  =         4
     MTHAUT  =         0     AUTFRE  =    2.0000
     NTSFRZ  =        60     KEEPSM  =         0
     AREAKP  =   10.0000     BONDRY  =    1.0000
     AREATL  =    0.0100

     SPHERE     INITS       METHOD
          1        60       FIXPVA
          2        60       FIXPVA
          3        60       FIXPVA
          4        60       FIXPVA
          5        60       FIXPVA
          6        60       FIXPVA
          7        60       FIXPVA
          8        60       FIXPVA
          9        60       FIXPVA
         10        60       FIXPVA
         11        60       FIXPVA
         12        60       FIXPVA
         13        60       FIXPVA
         14        60       FIXPVA
         15        60       FIXPVA
         16        60       FIXPVA
         17        60       FIXPVA
         18        60       FIXPVA
         19        60       FIXPVA
         20        60       FIXPVA
         21        60       FIXPVA
         22        60       FIXPVA
         23        60       FIXPVA
         24        60       FIXPVA
         25        60       FIXPVA
         26        60       FIXPVA
         27        60       FIXPVA
         28        60       FIXPVA
         29        60       FIXPVA
         30        60       FIXPVA
         31        60       FIXPVA
         32        60       FIXPVA
         33        60       FIXPVA
         34        60       FIXPVA
         35        60       FIXPVA
         36        60       FIXPVA
         37        60       FIXPVA
         38        60       FIXPVA
         39        60       FIXPVA
         40        60       FIXPVA
         41        60       FIXPVA
         42        60       FIXPVA
         43        60       FIXPVA
         44        60       FIXPVA
         45        60       FIXPVA
         46        60       FIXPVA
         47        60       FIXPVA
         48        60       FIXPVA
         49        60       FIXPVA
         50        60       FIXPVA
         51        60       FIXPVA
         52        60       FIXPVA
         53        60       FIXPVA
         54        60       FIXPVA
         55        60       FIXPVA
         56        60       FIXPVA
         57        60       FIXPVA
         58        60       FIXPVA
         59        60       FIXPVA
         60        60       FIXPVA
         61        60       FIXPVA
         62        60       FIXPVA
         63        60       FIXPVA
         64        60       FIXPVA
         65        60       FIXPVA
         66        60       FIXPVA
         67        60       FIXPVA
         68        60       FIXPVA
         69        60       FIXPVA
         70        60       FIXPVA
         71        60       FIXPVA
         72        60       FIXPVA
         73        60       FIXPVA
         74        60       FIXPVA
         75        60       FIXPVA
         76        60       FIXPVA
         77        60       FIXPVA
         78        60       FIXPVA
         79        60       FIXPVA
         80        60       FIXPVA
         81        60       FIXPVA
         82        60       FIXPVA
         83        60       FIXPVA
         84        60       FIXPVA
         85        60       FIXPVA
         86        60       FIXPVA
         87        60       FIXPVA
         88        60       FIXPVA
         89        60       FIXPVA
         90        60       FIXPVA
         91        60       FIXPVA
         92        60       FIXPVA
         93        60       FIXPVA
         94        60       FIXPVA
         95        60       FIXPVA
         96        60       FIXPVA
         97        60       FIXPVA
         98        60       FIXPVA
         99        60       FIXPVA
        100        60       FIXPVA
        101        60       FIXPVA
        102        60       FIXPVA
        103        60       FIXPVA
        104        60       FIXPVA
        105        60       FIXPVA
        106        60       FIXPVA
        107        60       FIXPVA
        108        60       FIXPVA
        109        60       FIXPVA
        110        60       FIXPVA
        111        60       FIXPVA
        112        60       FIXPVA
        113        60       FIXPVA
        114        60       FIXPVA
        115        60       FIXPVA
        116        60       FIXPVA
        117        60       FIXPVA
        118        60       FIXPVA
        119        60       FIXPVA
        120        60       FIXPVA
        121        60       FIXPVA
        122        60       FIXPVA
        123        60       FIXPVA
        124        60       FIXPVA
        125        60       FIXPVA
        126        60       FIXPVA
        127        60       FIXPVA
        128        60       FIXPVA
        129        60       FIXPVA
        130        60       FIXPVA
        131        60       FIXPVA
        132        60       FIXPVA
        133        60       FIXPVA
        134        60       FIXPVA
        135        60       FIXPVA
        136        60       FIXPVA
        137        60       FIXPVA
        138        60       FIXPVA
        139        60       FIXPVA
        140        60       FIXPVA
        141        60       FIXPVA
        142        60       FIXPVA
        143        60       FIXPVA
        144        60       FIXPVA
        145        60       FIXPVA
        146        60       FIXPVA
        147        60       FIXPVA
        148        60       FIXPVA
        149        60       FIXPVA
        150        60       FIXPVA
        151        60       FIXPVA
        152        60       FIXPVA
        153        60       FIXPVA
        154        60       FIXPVA
        155        60       FIXPVA
        156        60       FIXPVA
        157        60       FIXPVA
        158        60       FIXPVA
        159        60       FIXPVA
        160        60       FIXPVA
        161        60       FIXPVA
        162        60       FIXPVA
        163        60       FIXPVA
        164        60       FIXPVA
        165        60       FIXPVA
        166        60       FIXPVA
        167        60       FIXPVA
        168        60       FIXPVA
        169        60       FIXPVA
        170        60       FIXPVA
        171        60       FIXPVA
        172        60       FIXPVA
        173        60       FIXPVA
        174        60       FIXPVA
        175        60       FIXPVA
        176        60       FIXPVA
        177        60       FIXPVA
        178        60       FIXPVA
        179        60       FIXPVA
        180        60       FIXPVA
        181        60       FIXPVA
        182        60       FIXPVA
        183        60       FIXPVA
        184        60       FIXPVA
        185        60       FIXPVA
        186        60       FIXPVA
        187        60       FIXPVA
        188        60       FIXPVA
        189        60       FIXPVA
        190        60       FIXPVA
        191        60       FIXPVA
        192        60       FIXPVA
        193        60       FIXPVA
        194        60       FIXPVA
        195        60       FIXPVA
        196        60       FIXPVA
        197        60       FIXPVA
        198        60       FIXPVA
        199        60       FIXPVA
        200        60       FIXPVA
        201        60       FIXPVA
        202        60       FIXPVA
        203        60       FIXPVA
        204        60       FIXPVA
        205        60       FIXPVA
        206        60       FIXPVA
        207        60       FIXPVA
        208        60       FIXPVA
        209        60       FIXPVA
        210        60       FIXPVA
        211        60       FIXPVA
        212        60       FIXPVA
        213        60       FIXPVA
        214        60       FIXPVA
        215        60       FIXPVA
        216        60       FIXPVA
        217        60       FIXPVA
        218        60       FIXPVA
        219        60       FIXPVA
        220        60       FIXPVA
        221        60       FIXPVA
        222        60       FIXPVA
        223        60       FIXPVA
        224        60       FIXPVA
        225        60       FIXPVA
        226        60       FIXPVA
        227        60       FIXPVA
        228        60       FIXPVA
        229        60       FIXPVA
        230        60       FIXPVA
        231        60       FIXPVA
        232        60       FIXPVA
        233        60       FIXPVA
        234        60       FIXPVA
        235        60       FIXPVA
        236        60       FIXPVA
        237        60       FIXPVA
        238        60       FIXPVA
        239        60       FIXPVA
        240        60       FIXPVA
        241        60       FIXPVA
        242        60       FIXPVA
        243        60       FIXPVA
        244        60       FIXPVA
        245        60       FIXPVA
        246        60       FIXPVA
        247        60       FIXPVA
        248        60       FIXPVA
        249        60       FIXPVA
        250        60       FIXPVA
        251        60       FIXPVA
        252        60       FIXPVA
        253        60       FIXPVA
        254        60       FIXPVA
        255        60       FIXPVA
        256        60       FIXPVA
        257        60       FIXPVA
        258        60       FIXPVA
        259        60       FIXPVA
        260        60       FIXPVA
        261        60       FIXPVA
        262        60       FIXPVA
        263        60       FIXPVA
        264        60       FIXPVA
        265        60       FIXPVA
        266        60       FIXPVA
        267        60       FIXPVA
        268        60       FIXPVA
        269        60       FIXPVA
        270        60       FIXPVA
        271        60       FIXPVA
        272        60       FIXPVA
        273        60       FIXPVA
        274        60       FIXPVA
        275        60       FIXPVA
        276        60       FIXPVA
        277        60       FIXPVA
        278        60       FIXPVA
        279        60       FIXPVA
        280        60       FIXPVA
        281        60       FIXPVA
        282        60       FIXPVA
        283        60       FIXPVA
        284        60       FIXPVA
        285        60       FIXPVA
        286        60       FIXPVA
        287        60       FIXPVA
        288        60       FIXPVA
        289        60       FIXPVA
        290        60       FIXPVA
        291        60       FIXPVA
        292        60       FIXPVA
        293        60       FIXPVA
        294        60       FIXPVA
        295        60       FIXPVA
        296        60       FIXPVA
        297        60       FIXPVA
        298        60       FIXPVA
        299        60       FIXPVA
        300        60       FIXPVA
        301        60       FIXPVA
        302        60       FIXPVA
        303        60       FIXPVA
        304        60       FIXPVA
        305        60       FIXPVA
        306        60       FIXPVA
        307        60       FIXPVA
        308        60       FIXPVA
        309        60       FIXPVA
        310        60       FIXPVA
        311        60       FIXPVA
        312        60       FIXPVA
        313        60       FIXPVA
        314        60       FIXPVA
        315        60       FIXPVA
        316        60       FIXPVA
        317        60       FIXPVA
        318        60       FIXPVA
        319        60       FIXPVA
        320        60       FIXPVA
        321        60       FIXPVA
        322        60       FIXPVA
        323        60       FIXPVA
        324        60       FIXPVA
        325        60       FIXPVA
        326        60       FIXPVA
        327        60       FIXPVA
        328        60       FIXPVA
        329        60       FIXPVA
        330        60       FIXPVA
        331        60       FIXPVA
        332        60       FIXPVA
        333        60       FIXPVA
        334        60       FIXPVA
        335        60       FIXPVA
        336        60       FIXPVA
        337        60       FIXPVA
        338        60       FIXPVA
        339        60       FIXPVA
        340        60       FIXPVA
        341        60       FIXPVA
        342        60       FIXPVA
        343        60       FIXPVA
        344        60       FIXPVA
        345        60       FIXPVA
        346        60       FIXPVA
        347        60       FIXPVA
        348        60       FIXPVA
        349        60       FIXPVA
        350        60       FIXPVA
        351        60       FIXPVA
        352        60       FIXPVA
        353        60       FIXPVA
        354        60       FIXPVA
        355        60       FIXPVA
        356        60       FIXPVA
        357        60       FIXPVA
        358        60       FIXPVA
        359        60       FIXPVA
        360        60       FIXPVA
        361        60       FIXPVA
        362        60       FIXPVA
        363        60       FIXPVA
        364        60       FIXPVA
        365        60       FIXPVA
        366        60       FIXPVA
        367        60       FIXPVA
        368        60       FIXPVA
        369        60       FIXPVA
        370        60       FIXPVA
        371        60       FIXPVA
        372        60       FIXPVA
        373        60       FIXPVA
        374        60       FIXPVA
        375        60       FIXPVA
        376        60       FIXPVA
        377        60       FIXPVA
        378        60       FIXPVA
        379        60       FIXPVA
        380        60       FIXPVA
        381        60       FIXPVA
        382        60       FIXPVA
        383        60       FIXPVA
        384        60       FIXPVA
        385        60       FIXPVA
        386        60       FIXPVA
        387        60       FIXPVA
        388        60       FIXPVA
        389        60       FIXPVA
        390        60       FIXPVA
        391        60       FIXPVA
        392        60       FIXPVA

     ------------------------------
      FIXPVA TESSELLATION FOR PCM
         PEIFENG SU AND HUI LI
     UNIVERSITY OF NEBRASKA-LINCOLN
     ------------------------------


 PCM DIMENSIONS: MXSP=   392, MXTS=     15680, MEMORY=        161115

     INPUT FOR CAVITY DEFINITION 
     ---------------------------
   ATOM               COORDINATES                RADIUS       EPS
      1    -40.3700    111.7150    -50.1070      0.0100     78.3900
      2    -40.2270    112.4080    -50.7790      1.5900     78.3900
      3    -39.0410    113.1170    -50.3910      1.7700     78.3900
      4    -38.2150    112.3880    -50.2340      0.0100     78.3900
      5    -39.2300    113.6310    -49.4220      0.0100     78.3900
      6    -38.5840    114.1580    -51.4180      1.7700     78.3900
      7    -37.7000    114.7160    -51.0450      0.0100     78.3900
      8    -38.1920    113.4970    -52.6550      1.5900     78.3900
      9    -38.6170    114.2870    -53.7600      1.7700     78.3900
     10    -37.7000    114.4790    -54.3660      0.0100     78.3900
     11    -39.6200    113.5950    -54.6160      1.6800     78.3900
     12    -40.3230    112.5160    -54.1290      1.7700     78.3900
     13    -40.1000    112.2150    -53.1040      0.0100     78.3900
     14    -41.2080    111.8580    -54.8890      1.7700     78.3900
     15    -41.7530    110.9910    -54.5260      0.0100     78.3900
     16    -39.8600    114.0430    -55.9130      1.7700     78.3900
     17    -39.2390    115.0300    -56.3340      1.5900     78.3900
     18    -40.7370    113.3840    -56.7000      1.6800     78.3900
     19    -41.4000    112.3140    -56.2240      1.7700     78.3900
     20    -42.2370    111.6630    -57.0290      1.6800     78.3900
     21    -42.4160    112.0140    -57.9500      0.0100     78.3900
     22    -42.7400    110.8570    -56.7170      0.0100     78.3900
     23    -39.1220    115.6020    -53.2050      1.7700     78.3900
     24    -39.9180    116.0560    -53.8320      0.0100     78.3900
     25    -38.0390    116.5020    -53.0720      1.5900     78.3900
     26    -38.3800    117.2810    -52.6170      0.0100     78.3900
     27    -39.6550    115.1720    -51.8420      1.7700     78.3900
     28    -40.6090    114.6070    -51.9630      0.0100     78.3900
     29    -39.7450    116.2200    -50.8530      1.5900     78.3900
     30    -41.0690    117.0670    -50.7340      2.1000     78.3900
     31    -42.2200    116.1620    -50.5340      1.5900     78.3900
     32    -40.8660    118.1120    -49.7080      1.5900     78.3900
     33    -41.2040    117.7530    -52.1450      1.5900     78.3900
     34    -40.3770    118.9000    -52.4560      1.7700     78.3900
     35    -39.2970    118.6350    -52.4380      0.0100     78.3900
     36    -40.5310    119.7220    -51.7130      0.0100     78.3900
     37    -40.6960    119.4550    -53.8450      1.7700     78.3900
     38    -40.0210    120.3000    -54.1040      0.0100     78.3900
     39    -40.5130    118.4270    -54.8550      1.5900     78.3900
     40    -41.5200    118.5710    -55.8410      1.7700     78.3900
     41    -40.9900    118.6940    -56.8050      0.0100     78.3900
     42    -42.3660    117.3800    -55.9350      1.6800     78.3900
     43    -43.1250    117.0190    -57.0150      1.7700     78.3900
     44    -44.3000    117.6360    -60.2190      1.6800     78.3900
     45    -43.8680    118.5010    -60.4580      0.0100     78.3900
     46    -44.9490    117.2120    -60.8580      0.0100     78.3900
     47    -43.2320    117.7000    -58.1750      1.6800     78.3900
     48    -44.0530    117.1030    -59.0330      1.7700     78.3900
     49    -44.6590    115.9030    -58.7790      1.6800     78.3900
     50    -45.2660    115.5190    -59.4860      0.0100     78.3900
     51    -44.5460    115.1650    -57.6070      1.7700     78.3900
     52    -45.1260    114.0840    -57.4620      1.5900     78.3900
     53    -43.7150    115.8190    -56.6610      1.7700     78.3900
     54    -43.3490    115.4440    -55.3700      1.6800     78.3900
     55    -42.5430    116.4050    -54.9810      1.7700     78.3900
     56    -42.0350    116.4610    -54.0170      0.0100     78.3900
     57    -42.3090    119.8290    -55.5300      1.7700     78.3900
     58    -43.3840    119.7510    -55.8100      0.0100     78.3900
     59    -41.7130    120.9370    -56.1840      1.5900     78.3900
     60    -42.1860    121.7280    -55.8840      0.0100     78.3900
     61    -42.1450    119.9260    -54.0170      1.7700     78.3900
     62    -42.7950    119.1760    -53.5100      0.0100     78.3900
     63    -42.2910    121.2540    -53.4670      1.5900     78.3900
     64    -43.7290    121.8200    -53.1730      2.1000     78.3900
     65    -44.5100    120.7720    -52.4790      1.5900     78.3900
     66    -43.5710    123.1150    -52.4770      1.5900     78.3900
     67    -44.3590    122.1090    -54.5890      1.5900     78.3900
     68    -45.8100    122.1980    -54.6960      1.7700     78.3900
     69    -46.1930    123.0790    -54.1300      0.0100     78.3900
     70    -46.3010    121.3020    -54.2580      0.0100     78.3900
     71    -46.2790    122.3360    -56.1620      1.7700     78.3900
     72    -45.9550    123.3160    -56.5770      0.0100     78.3900
     73    -45.6630    121.3110    -56.9990      1.5900     78.3900
     74    -46.6150    120.8050    -57.9220      1.7700     78.3900
     75    -46.1280    120.8880    -58.9170      0.0100     78.3900
     76    -46.9610    119.3870    -57.6710      1.6800     78.3900
     77    -46.8560    118.6510    -56.5070      1.7700     78.3900
     78    -45.9380    118.4630    -53.1770      1.6800     78.3900
     79    -45.9620    117.8110    -52.4220      0.0100     78.3900
     80    -45.4980    119.3580    -53.0390      0.0100     78.3900
     81    -46.4110    119.0930    -55.3200      1.6800     78.3900
     82    -46.3810    118.1670    -54.3880      1.7700     78.3900
     83    -46.8350    116.8930    -54.5900      1.6800     78.3900
     84    -46.8080    116.2500    -53.8200      0.0100     78.3900
     85    -47.3370    116.4060    -55.7940      1.7700     78.3900
     86    -47.7410    115.2400    -55.8930      1.5900     78.3900
     87    -47.3120    117.3910    -56.8170      1.7700     78.3900
     88    -47.6870    117.3200    -58.1520      1.6800     78.3900
     89    -47.4720    118.5240    -58.6140      1.7700     78.3900
     90    -47.6670    118.8370    -59.6410      0.0100     78.3900
     91    -47.8230    121.7130    -57.8600      1.7700     78.3900
     92    -48.7700    121.1840    -58.0890      0.0100     78.3900
     93    -47.6600    122.8010    -58.7520      1.5900     78.3900
     94    -48.3300    123.4550    -58.5100      0.0100     78.3900
     95    -47.7960    122.1740    -56.4040      1.7700     78.3900
     96    -48.1240    121.3430    -55.7360      0.0100     78.3900
     97    -48.4970    123.4240    -56.1580      1.5900     78.3900
     98    -50.0040    123.3710    -55.6880      2.1000     78.3900
     99    -50.1140    122.4080    -54.5720      1.5900     78.3900
    100    -50.4770    124.7480    -55.4270      1.5900     78.3900
    101    -50.7870    122.7920    -56.9200      1.5900     78.3900
    102    -51.0020    123.5620    -58.1240      1.7700     78.3900
    103    -50.0330    123.8630    -58.5830      0.0100     78.3900
    104    -51.5750    124.4910    -57.9000      0.0100     78.3900
    105    -51.7890    122.7430    -59.1610      1.7700     78.3900
    106    -51.9310    123.3190    -60.1010      0.0100     78.3900
    107    -51.0360    121.5390    -59.4930      1.5900     78.3900
    108    -51.9210    120.4380    -59.5970      1.7700     78.3900
    109    -51.7460    119.9910    -60.6060      0.0100     78.3900
    110    -51.6390    119.4340    -58.5630      1.6800     78.3900
    111    -51.5480    117.5530    -57.4310      1.7700     78.3900
    112    -50.8150    118.4760    -56.6990      1.6800     78.3900
    113    -50.8920    119.5710    -57.4160      1.7700     78.3900
    114    -50.4250    120.5190    -57.1550      0.0100     78.3900
    115    -52.6580    115.5790    -58.1210      1.6800     78.3900
    116    -53.1140    116.2960    -59.1470      1.7700     78.3900
    117    -53.7740    115.7650    -59.8380      0.0100     78.3900
    118    -52.8690    117.5610    -59.4800      1.6800     78.3900
    119    -52.0690    118.1350    -58.5740      1.7700     78.3900
    120    -51.8520    116.1930    -57.2100      1.7700     78.3900
    121    -51.3870    115.5140    -56.1410      1.6800     78.3900
    122    -50.7570    115.9460    -55.4920      0.0100     78.3900
    123    -51.5060    114.5210    -56.0700      0.0100     78.3900
    124    -53.3360    120.9710    -59.5260      1.7700     78.3900
    125    -54.0440    120.2610    -59.0440      0.0100     78.3900
    126    -53.7920    121.2890    -60.8270      1.5900     78.3900
    127    -54.6560    121.7140    -60.7200      0.0100     78.3900
    128    -53.1570    122.2270    -58.6800      1.7700     78.3900
    129    -53.0300    121.9520    -57.6070      0.0100     78.3900
    130    -54.1710    123.2450    -58.8740      1.5900     78.3900
    131    -55.5410    123.0820    -58.1060      2.1000     78.3900
    132    -55.2580    122.6140    -56.7300      1.5900     78.3900
    133    -56.3090    124.3460    -58.2340      1.5900     78.3900
    134    -56.3180    121.9530    -58.8940      1.5900     78.3900
    135    -57.3590    121.2190    -58.1930      1.7700     78.3900
    136    -58.3030    121.8090    -58.1840      0.0100     78.3900
    137    -57.0830    121.0060    -57.1300      0.0100     78.3900
    138    -57.6390    119.8580    -58.8460      1.7700     78.3900
    139    -58.0160    119.9790    -59.8800      0.0100     78.3900
    140    -56.4060    119.0870    -58.9180      1.5900     78.3900
    141    -56.6720    117.7310    -58.5980      1.7700     78.3900
    142    -56.2740    117.1400    -59.4540      0.0100     78.3900
    143    -55.9880    117.2910    -57.3470      1.6800     78.3900
    144    -55.5360    118.2240    -56.4380      1.7700     78.3900
    145    -55.7130    119.2740    -56.6860      0.0100     78.3900
    146    -54.8900    117.8560    -55.3250      1.7700     78.3900
    147    -54.5100    118.5860    -54.6110      0.0100     78.3900
    148    -55.8000    115.9320    -57.0920      1.7700     78.3900
    149    -56.2130    115.0990    -57.9130      1.5900     78.3900
    150    -55.1600    115.5430    -55.9670      1.6800     78.3900
    151    -54.6910    116.4620    -55.1020      1.7700     78.3900
    152    -54.0070    116.0520    -54.0340      1.6800     78.3900
    153    -53.8820    115.0700    -53.8910      0.0100     78.3900
    154    -53.7090    116.6810    -53.3130      0.0100     78.3900
    155    -58.1800    117.5690    -58.5400      1.7700     78.3900
    156    -58.4980    116.7710    -57.8390      0.0100     78.3900
    157    -58.6860    117.2920    -59.8330      1.5900     78.3900
    158    -59.6480    117.3630    -59.7850      0.0100     78.3900
    159    -58.6060    118.9520    -58.0630      1.7700     78.3900
    160    -58.3430    119.0770    -56.9860      0.0100     78.3900
    161    -59.9760    119.3080    -58.3640      1.5900     78.3900
    162    -61.0640    119.1580    -57.2320      2.1000     78.3900
    163    -60.5360    119.7060    -55.9660      1.5900     78.3900
    164    -62.3510    119.7090    -57.7050      1.5900     78.3900
    165    -61.2050    117.5950    -57.0950      1.5900     78.3900
    166    -61.9130    116.8770    -58.1360      1.7700     78.3900
    167    -61.4390    117.0340    -59.1340      0.0100     78.3900
    168    -62.9730    117.2200    -58.2020      0.0100     78.3900
    169    -61.9410    115.3750    -57.8450      1.7700     78.3900
    170    -62.4890    114.8360    -58.6480      0.0100     78.3900
    171    -60.5880    114.8410    -57.8170      1.5900     78.3900
    172    -60.4920    113.8600    -56.7950      1.7700     78.3900
    173    -60.1270    112.9250    -57.2820      0.0100     78.3900
    174    -59.5290    114.2620    -55.7590      1.6800     78.3900
    175    -58.9220    113.4340    -54.8550      1.7700     78.3900
    176    -58.4400    110.2690    -53.5330      1.6800     78.3900
    177    -59.0850    109.7150    -54.0560      0.0100     78.3900
    178    -57.9040    109.8370    -52.8020      0.0100     78.3900
    179    -59.1260    112.1080    -54.7400      1.6800     78.3900
    180    -58.3750    111.5650    -53.7850      1.7700     78.3900
    181    -57.4970    112.2830    -53.0200      1.6800     78.3900
    182    -56.9930    111.7980    -52.2930      0.0100     78.3900
    183    -57.2910    113.6570    -53.0920      1.7700     78.3900
    184    -56.4890    114.2240    -52.3440      1.5900     78.3900
    185    -58.0880    114.2440    -54.1100      1.7700     78.3900
    186    -58.1930    115.5690    -54.5170      1.6800     78.3900
    187    -59.0630    115.5320    -55.4950      1.7700     78.3900
    188    -59.4110    116.3960    -56.0630      0.0100     78.3900
    189    -61.8860    113.6300    -56.2360      1.7700     78.3900
    190    -61.8690    113.4030    -55.1470      0.0100     78.3900
    191    -62.5260    112.5710    -56.9330      1.5900     78.3900
    192    -62.6580    112.8240    -57.8630      0.0100     78.3900
    193    -62.5430    114.9850    -56.4900      1.7700     78.3900
    194    -62.2020    115.7270    -55.7360      0.0100     78.3900
    195    -63.9790    114.9580    -56.5720      1.5900     78.3900
    196    -64.3430    114.6420    -55.7290      0.0100     78.3900
    197    -51.9380    107.4410    -46.6640      0.0100     78.3900
    198    -52.4950    107.4150    -47.4650      1.5900     78.3900
    199    -53.2080    106.1700    -47.4270      1.7700     78.3900
    200    -53.7220    106.0750    -46.4430      0.0100     78.3900
    201    -52.4760    105.3370    -47.5100      0.0100     78.3900
    202    -54.2390    106.0100    -48.5510      1.7700     78.3900
    203    -54.6750    104.9870    -48.5410      0.0100     78.3900
    204    -55.3330    106.9490    -48.3560      1.5900     78.3900
    205    -55.7610    107.4430    -49.6170      1.7700     78.3900
    206    -56.8510    107.2100    -49.6840      0.0100     78.3900
    207    -55.5550    108.9070    -49.7700      1.6800     78.3900
    208    -54.6390    109.5620    -48.9810      1.7700     78.3900
    209    -54.1230    108.9550    -48.2330      0.0100     78.3900
    210    -54.4350    110.8800    -49.0970      1.7700     78.3900
    211    -53.7310    111.4190    -48.4650      0.0100     78.3900
    212    -56.2410    109.6080    -50.7580      1.7700     78.3900
    213    -57.0290    108.9970    -51.4970      1.5900     78.3900
    214    -56.0570    110.9410    -50.8860      1.6800     78.3900
    215    -55.1760    111.5790    -50.0920      1.7700     78.3900
    216    -55.0070    112.8920    -50.2390      1.6800     78.3900
    217    -55.5000    113.3760    -50.9650      0.0100     78.3900
    218    -54.4020    113.4160    -49.6320      0.0100     78.3900
    219    -55.0290    106.6520    -50.6810      1.7700     78.3900
    220    -54.8420    107.2410    -51.6030      0.0100     78.3900
    221    -55.7610    105.4880    -51.0010      1.5900     78.3900
    222    -55.2140    105.0080    -51.6290      0.0100     78.3900
    223    -53.7260    106.3070    -49.9680      1.7700     78.3900
    224    -53.0740    107.2080    -49.9000      0.0100     78.3900
    225    -53.0300    105.1500    -50.4780      1.5900     78.3900
    226    -51.9360    105.3170    -51.5970      2.1000     78.3900
    227    -51.0450    106.4430    -51.2440      1.5900     78.3900
    228    -51.2950    104.0020    -51.8050      1.5900     78.3900
    229    -52.7720    105.7140    -52.8630      1.5900     78.3900
    230    -53.6880    104.7800    -53.4800      1.7700     78.3900
    231    -54.4020    104.3370    -52.7500      0.0100     78.3900
    232    -53.1300    103.9180    -53.9070      0.0100     78.3900
    233    -54.4480    105.4520    -54.6320      1.7700     78.3900
    234    -55.1350    104.7400    -55.1360      0.0100     78.3900
    235    -55.2590    106.5630    -54.1530      1.5900     78.3900
    236    -55.2480    107.6070    -55.1230      1.7700     78.3900
    237    -56.3080    107.8000    -55.4070      0.0100     78.3900
    238    -54.6650    108.8460    -54.5750      1.6800     78.3900
    239    -54.8460    110.1280    -55.0320      1.7700     78.3900
    240    -56.2740    112.3750    -57.2570      1.6800     78.3900
    241    -56.7730    111.7840    -57.8890      0.0100     78.3900
    242    -56.2790    113.3690    -57.4090      0.0100     78.3900
    243    -55.5890    110.4980    -56.0940      1.6800     78.3900
    244    -55.6060    111.8200    -56.2620      1.7700     78.3900
    245    -54.9330    112.6890    -55.4500      1.6800     78.3900
    246    -54.9880    113.6780    -55.6470      0.0100     78.3900
    247    -54.1560    112.3420    -54.3520      1.7700     78.3900
    248    -53.5940    113.2040    -53.6730      1.5900     78.3900
    249    -54.1270    110.9340    -54.1680      1.7700     78.3900
    250    -53.4840    110.1720    -53.2020      1.6800     78.3900
    251    -53.8260    108.9390    -53.4890      1.7700     78.3900
    252    -53.5020    108.0500    -52.9460      0.0100     78.3900
    253    -54.4840    107.0950    -56.3280      1.7700     78.3900
    254    -53.9250    107.9070    -56.8330      0.0100     78.3900
    255    -55.3640    106.4830    -57.2500      1.5900     78.3900
    256    -54.8080    106.0370    -57.9100      0.0100     78.3900
    257    -53.5370    106.0770    -55.6880      1.7700     78.3900
    258    -52.7240    106.6400    -55.1720      0.0100     78.3900
    259    -53.0530    105.0490    -56.5800      1.5900     78.3900
    260    -51.6020    104.4550    -56.4030      2.1000     78.3900
    261    -50.6810    105.4780    -55.8330      1.5900     78.3900
    262    -51.7070    103.1790    -55.6780      1.5900     78.3900
    263    -51.1300    104.0820    -57.8680      1.5900     78.3900
[...]
   340   11   6.0   1.91    3.4   -0.000219    0.177878    0.164810
   341   11   1.0   0.00    0.0    0.000000    0.305717    0.325996
   342   11   6.0   8.57   15.1   -0.020755   -0.392086   -0.401186
   343   11   1.0   0.00    0.0    0.000000    0.261498    0.265491
   344   11   6.0   0.00    0.0    0.000000    1.081587    1.096718
   345   11   8.0   6.22   13.6    0.125036   -0.801157   -0.779517
   346   11   7.0   0.00    0.0    0.000813   -0.861650   -0.859838
   347   11   6.0   0.03    0.1    0.003483    0.759541    0.774666
   348   11   7.0  12.31   24.1   -0.082829   -0.950014   -1.006284
   349   11   1.0   0.00    0.0    0.000000    0.466552    0.505888
   350   11   1.0   0.00    0.0    0.000000    0.438066    0.436069
   351   11   6.0   0.92    1.6    0.005311    0.150351    0.127145
   352   11   1.0   0.00    0.0    0.000000    0.191316    0.215450
   353   11   8.0  17.54   38.3    0.085116   -0.826907   -0.837457
   354   11   1.0   0.00    0.0    0.000000    0.492609    0.503258
   355   11   6.0   0.90    1.6   -0.011369    0.140919    0.111124
   356   11   1.0   0.00    0.0    0.000000    0.242367    0.244878
   357   11   8.0   3.39    7.4    0.046891   -0.797765   -0.805505
   358   11  15.0   8.00   10.0    0.121486    1.605484    1.657193
   359   11   8.0  11.08   24.2    0.291182   -0.888143   -0.883725
   360   11   8.0  18.17   39.7    0.369016   -0.901570   -0.893962
   361   11   8.0   1.47    3.2    0.028672   -0.967129   -0.780951
   362   12   6.0  13.82   24.4   -0.081541    0.184912   -0.012735
   363   12   1.0   0.00    0.0    0.000000    0.197824    0.187753
   364   12   1.0   0.00    0.0    0.000000    0.228240    0.210072
   365   12   6.0   7.19   12.7   -0.044535    0.096235    0.155253
   366   12   1.0   0.00    0.0    0.000000    0.242578    0.213362
   367   12   8.0   5.34   11.7    0.059936   -0.727581   -0.733828
   368   12   6.0   4.20    7.4   -0.046769    0.418130    0.420397
   369   12   1.0   0.00    0.0    0.000000    0.251366    0.245083
   370   12   7.0   0.21    0.4    0.000515   -0.797057   -0.805357
   371   12   6.0   1.93    3.4    0.004956    0.708467    0.710163
   372   12   7.0  16.02   31.4   -0.081735   -0.971424   -1.056898
   373   12   1.0   0.00    0.0    0.000000    0.444997    0.437116
   374   12   1.0   0.00    0.0    0.000000    0.476500    0.525022
   375   12   7.0   7.75   15.2    0.115592   -0.758002   -0.761038
   376   12   6.0   2.06    3.6   -0.003433    0.977445    0.974346
   377   12   7.0   1.70    3.3    0.007994   -0.937749   -1.028918
   378   12   1.0   0.00    0.0    0.000000    0.485600    0.544979
   379   12   6.0   2.24    4.0    0.004037    0.872751    0.875485
   380   12   8.0   7.55   16.5    0.126438   -0.748529   -0.729491
   381   12   6.0   1.38    2.4    0.008003   -0.052090   -0.044575
   382   12   7.0   6.96   13.6    0.116480   -0.586129   -0.589622
   383   12   6.0   5.42    9.6    0.014539    0.270140    0.267089
   384   12   1.0   0.00    0.0    0.000000    0.260835    0.279819
   385   12   6.0   7.46   13.2   -0.056345    0.118040    0.118447
   386   12   1.0   0.00    0.0    0.000000    0.224259    0.223025
   387   12   8.0  21.52   47.1    0.054853   -0.844330   -0.847719
   388   12   1.0   0.00    0.0    0.000000    0.505292    0.504839
   389   12   6.0   5.56    9.8   -0.032727    0.167615    0.149922
   390   12   1.0   0.00    0.0    0.000000    0.215603    0.218339
   391   12   8.0  22.11   48.3   -0.023270   -0.849096   -0.853009
   392   12   1.0   0.00    0.0    0.000000    0.507480    0.506605

 Done with FMO properties.
 CPU     0: STEP CPU TIME=     0.02 TOTAL CPU TIME=      21466.4 (    357.8 MIN)
 TOTAL WALL CLOCK TIME=      47940.6 SECONDS, CPU UTILIZATION IS    44.78%
 CPU     0: STEP CPU TIME=     0.00 TOTAL CPU TIME=      21466.4 (    357.8 MIN)
 TOTAL WALL CLOCK TIME=      47940.6 SECONDS, CPU UTILIZATION IS    44.78%

 Total timing statistics in pairs (CPU,wall) for each rank, sec

    Rank   total     SCF    corr     DFT    CPHF     EFP    solv     ESP    geom
 -------------------------------------------------------------------------------
       1   21466.4   5986.3   8176.7      0.0    0.0   0.0  197.6  6673.2    0.0
       1   47940.7  12841.6  20320.0      0.0    0.0   0.0  542.6 13281.4    0.0
       2   21065.6   5963.8   7849.5      0.0    0.0   0.0  200.1  6649.5    0.0
       2   47940.6  12840.4  20320.1      0.0    0.0   0.0  542.6 13280.4    0.0
       3   21548.2   5942.6   8354.6      0.0    0.0   0.0  199.7  6616.0    0.0
       3   47940.7  12840.0  20320.2      0.0    0.0   0.0  543.0 13280.7    0.0
       4   21490.1   5988.6   8264.6      0.0    0.0   0.0  199.4  6619.8    0.0
       4   47940.6  12841.0  20320.1      0.0    0.0   0.0  541.8 13280.5    0.0
       5   21799.7   5993.0   8528.5      0.0    0.0   0.0  197.2  6662.8    0.0
       5   47940.7  12840.9  20320.1      0.0    0.0   0.0  542.5 13280.7    0.0
       6   21958.9   5965.0   8712.9      0.0    0.0   0.0  197.2  6648.0    0.0
       6   47940.7  12841.2  20320.1      0.0    0.0   0.0  541.3 13280.6    0.0
       7   21893.6   5955.5   8771.4      0.0    0.0   0.0  197.1  6537.4    0.0
       7   47940.7  12841.6  20320.1      0.0    0.0   0.0  541.3 13280.4    0.0
       8   21163.6   5981.2   8028.4      0.0    0.0   0.0  197.9  6548.6    0.0
       8   47940.7  12841.5  20320.1      0.0    0.0   0.0  540.5 13280.5    0.0
       9   20725.2   5949.1   7609.0      0.0    0.0   0.0  194.1  6580.4    0.0
       9   47940.7  12841.9  20320.0      0.0    0.0   0.0  541.3 13280.7    0.0
      10   21595.1   5995.0   8296.0      0.0    0.0   0.0  196.2  6695.2    0.0
      10   47940.7  12841.9  20320.0      0.0    0.0   0.0  540.9 13280.6    0.0
      11   22140.7   6024.4   8891.1      0.0    0.0   0.0  194.9  6602.6    0.0
      11   47940.7  12842.5  20320.0      0.0    0.0   0.0  540.4 13280.6    0.0
      12   21040.6   5979.8   7925.3      0.0    0.0   0.0  195.5  6542.6    0.0
      12   47940.7  12842.3  20320.0      0.0    0.0   0.0  539.8 13280.5    0.0
      13   21512.7   5992.8   8408.1      0.0    0.0   0.0  194.0  6523.2    0.0
      13   47940.7  12843.3  20320.0      0.0    0.0   0.0  539.9 13280.7    0.0
      14   21553.5   5966.9   8549.6      0.0    0.0   0.0  196.7  6432.4    0.0
      14   47940.7  12842.5  20320.0      0.0    0.0   0.0  539.8 13280.6    0.0
      15   20939.7   5923.5   7930.1      0.0    0.0   0.0  194.5  6475.4    0.0
      15   47940.7  12843.2  20320.0      0.0    0.0   0.0  539.6 13280.5    0.0
      16   21504.0   5957.9   8433.8      0.0    0.0   0.0  195.1  6510.4    0.0
      16   47940.7  12843.5  20320.0      0.0    0.0   0.0  538.6 13280.5    0.0
averaged   21462.3   5972.8   8295.6      0.0    0.0   0.0  196.7  6582.3    0.0
averaged   47940.7  12841.8  20320.0      0.0    0.0   0.0  541.0 13280.6    0.0

  FMO  timing statistics in pairs (CPU,wall) for each rank, sec

    Rank  FMOini FMOscf1  FMOdm1 FMOsyn1 FMOscf2  FMOes2 FMOsyn2 FMOscf3 FMOsyn3
 -------------------------------------------------------------------------------
       1    2.6    8168.5    0.4    0.0   12985.2     309.7    0.0    0.0    0.0
       1    6.8   17005.3    5.4    0.0   30314.6     608.2    0.0    0.0    0.0
       2    1.9    8073.0    0.1    0.0   12705.5     285.0    0.0    0.0    0.0
       2    6.8   17005.3    5.4    0.0   30316.6     606.2    0.0    0.0    0.0
       3    2.1    8136.0    0.2    0.0   13094.3     315.6    0.0    0.0    0.0
       3    6.8   17005.3    5.4    0.0   30313.3     609.4    0.0    0.0    0.0
       4    1.9    8080.1    0.1    0.0   13108.1     299.8    0.0    0.0    0.0
       4    6.8   17005.3    5.4    0.0   30313.8     609.0    0.0    0.0    0.0
       5    2.3    8123.1    0.2    0.0   13373.2     300.9    0.0    0.0    0.0
       5    6.8   17005.3    5.4    0.0   30314.9     607.9    0.0    0.0    0.0
       6    2.0    8148.3    0.1    0.0   13488.6     319.9    0.0    0.0    0.0
       6    6.8   17005.3    5.4    0.0   30314.1     608.7    0.0    0.0    0.0
       7    2.1    8062.8    0.1    0.0   13512.8     315.7    0.0    0.0    0.0
       7    6.8   17005.3    5.4    0.0   30315.8     607.0    0.0    0.0    0.0
       8    1.8    8049.2    0.1    0.0   12821.5     290.9    0.0    0.0    0.0
       8    6.8   17005.3    5.4    0.0   30313.5     609.3    0.0    0.0    0.0
       9    2.3    8118.0    0.3    0.0   12327.3     277.3    0.0    0.0    0.0
       9    6.8   17005.3    5.4    0.0   30316.1     606.6    0.0    0.0    0.0
      10    1.8    8123.1    0.1    0.0   13171.4     298.6    0.0    0.0    0.0
      10    6.8   17005.3    5.4    0.0   30316.0     606.8    0.0    0.0    0.0
      11    1.9    8093.2    0.1    0.0   13733.7     311.7    0.0    0.0    0.0
      11    6.8   17005.3    5.4    0.0   30313.9     608.9    0.0    0.0    0.0
      12    1.7    8097.1    0.1    0.0   12657.4     284.3    0.0    0.0    0.0
      12    6.8   17005.3    5.4    0.0   30316.3     606.5    0.0    0.0    0.0
      13    2.1    8070.2    0.2    0.0   13159.7     280.5    0.0    0.0    0.0
      13    6.8   17005.3    5.4    0.0   30316.7     606.1    0.0    0.0    0.0
      14    1.7    8062.3    0.1    0.0   13195.4     294.0    0.0    0.0    0.0
      14    6.8   17005.3    5.4    0.0   30316.6     606.2    0.0    0.0    0.0
      15    1.9    8013.1    0.2    0.0   12622.4     302.0    0.0    0.0    0.0
      15    6.8   17005.3    5.4    0.0   30313.0     609.8    0.0    0.0    0.0
      16    1.7    8010.3    0.1    0.0   13197.5     294.4    0.0    0.0    0.0
      16    6.8   17005.3    5.4    0.0   30316.7     606.1    0.0    0.0    0.0
averaged    2.0    8089.3    0.2    0.0   13072.1     298.8    0.0    0.0    0.0
averaged    6.8   17005.3    5.4    0.0   30315.1     607.7    0.0    0.0    0.0
             62740124  WORDS OF DYNAMIC MEMORY USED
 EXECUTION OF GAMESS TERMINATED NORMALLY Sat Dec  7 20:52:53 2019
 DDI: 263640 bytes (0.3 MB / 0 MWords) used by master data server.

 ----------------------------------------
 CPU timing information for all processes
 ========================================
 0: 20971.620 + 494.856 = 21466.477
 1: 20620.913 + 444.686 = 21065.600
 2: 21065.157 + 483.89 = 21548.247
 3: 21034.602 + 455.537 = 21490.140
 4: 21321.87 + 478.714 = 21799.801
 5: 21491.435 + 467.486 = 21958.922
 6: 21395.945 + 497.668 = 21893.613
 7: 20738.967 + 424.707 = 21163.674
 8: 20271.120 + 454.91 = 20725.211
 9: 21160.737 + 434.407 = 21595.144
 10: 21660.130 + 480.643 = 22140.774
 11: 20609.423 + 431.202 = 21040.626
 12: 21022.51 + 490.678 = 21512.730
 13: 21090.576 + 462.973 = 21553.550
 14: 20498.629 + 441.65 = 20939.695
 15: 21065.727 + 438.334 = 21504.62
 ----------------------------------------
 ddikick.x: exited gracefully.
unset echo
----- accounting info -----
Files used on the master node gollum075.lsa.umich.edu were:
-rw-r--r-- 1 hazwong frank    21017 Dec  7 07:33 /scratch/hazwong/824899/1MIS_3/usrc/1MIS_3_fmo_input.F05
-rw-r--r-- 1 hazwong frank      634 Dec  7 20:52 /scratch/hazwong/824899/1MIS_3/usrc/1MIS_3_fmo_input.F06.001
-rw-r--r-- 1 hazwong frank      634 Dec  7 20:52 /scratch/hazwong/824899/1MIS_3/usrc/1MIS_3_fmo_input.F06.002
-rw-r--r-- 1 hazwong frank      634 Dec  7 20:52 /scratch/hazwong/824899/1MIS_3/usrc/1MIS_3_fmo_input.F06.003
-rw-r--r-- 1 hazwong frank      634 Dec  7 20:52 /scratch/hazwong/824899/1MIS_3/usrc/1MIS_3_fmo_input.F06.004
-rw-r--r-- 1 hazwong frank      634 Dec  7 20:52 /scratch/hazwong/824899/1MIS_3/usrc/1MIS_3_fmo_input.F06.005
-rw-r--r-- 1 hazwong frank      634 Dec  7 20:52 /scratch/hazwong/824899/1MIS_3/usrc/1MIS_3_fmo_input.F06.006
-rw-r--r-- 1 hazwong frank      634 Dec  7 20:52 /scratch/hazwong/824899/1MIS_3/usrc/1MIS_3_fmo_input.F06.007
-rw-r--r-- 1 hazwong frank      634 Dec  7 20:52 /scratch/hazwong/824899/1MIS_3/usrc/1MIS_3_fmo_input.F06.008
-rw-r--r-- 1 hazwong frank      634 Dec  7 20:52 /scratch/hazwong/824899/1MIS_3/usrc/1MIS_3_fmo_input.F06.009
-rw-r--r-- 1 hazwong frank      634 Dec  7 20:52 /scratch/hazwong/824899/1MIS_3/usrc/1MIS_3_fmo_input.F06.010
-rw-r--r-- 1 hazwong frank      634 Dec  7 20:52 /scratch/hazwong/824899/1MIS_3/usrc/1MIS_3_fmo_input.F06.011
-rw-r--r-- 1 hazwong frank      634 Dec  7 20:52 /scratch/hazwong/824899/1MIS_3/usrc/1MIS_3_fmo_input.F06.012
-rw-r--r-- 1 hazwong frank      634 Dec  7 20:52 /scratch/hazwong/824899/1MIS_3/usrc/1MIS_3_fmo_input.F06.013
-rw-r--r-- 1 hazwong frank      634 Dec  7 20:52 /scratch/hazwong/824899/1MIS_3/usrc/1MIS_3_fmo_input.F06.014
-rw-r--r-- 1 hazwong frank      634 Dec  7 20:52 /scratch/hazwong/824899/1MIS_3/usrc/1MIS_3_fmo_input.F06.015
-rw-r--r-- 1 hazwong frank    12735 Dec  7 20:52 /scratch/hazwong/824899/1MIS_3/usrc/1MIS_3_fmo_input.F07
-rw-r--r-- 1 hazwong frank        0 Dec  7 07:33 /scratch/hazwong/824899/1MIS_3/usrc/1MIS_3_fmo_input.F07.001
-rw-r--r-- 1 hazwong frank        0 Dec  7 07:33 /scratch/hazwong/824899/1MIS_3/usrc/1MIS_3_fmo_input.F07.002
-rw-r--r-- 1 hazwong frank        0 Dec  7 07:33 /scratch/hazwong/824899/1MIS_3/usrc/1MIS_3_fmo_input.F07.003
-rw-r--r-- 1 hazwong frank        0 Dec  7 07:33 /scratch/hazwong/824899/1MIS_3/usrc/1MIS_3_fmo_input.F07.004
-rw-r--r-- 1 hazwong frank        0 Dec  7 07:33 /scratch/hazwong/824899/1MIS_3/usrc/1MIS_3_fmo_input.F07.005
-rw-r--r-- 1 hazwong frank        0 Dec  7 07:33 /scratch/hazwong/824899/1MIS_3/usrc/1MIS_3_fmo_input.F07.006
-rw-r--r-- 1 hazwong frank        0 Dec  7 07:33 /scratch/hazwong/824899/1MIS_3/usrc/1MIS_3_fmo_input.F07.007
-rw-r--r-- 1 hazwong frank        0 Dec  7 07:33 /scratch/hazwong/824899/1MIS_3/usrc/1MIS_3_fmo_input.F07.008
-rw-r--r-- 1 hazwong frank        0 Dec  7 07:33 /scratch/hazwong/824899/1MIS_3/usrc/1MIS_3_fmo_input.F07.009
-rw-r--r-- 1 hazwong frank        0 Dec  7 07:33 /scratch/hazwong/824899/1MIS_3/usrc/1MIS_3_fmo_input.F07.010
-rw-r--r-- 1 hazwong frank        0 Dec  7 07:33 /scratch/hazwong/824899/1MIS_3/usrc/1MIS_3_fmo_input.F07.011
-rw-r--r-- 1 hazwong frank        0 Dec  7 07:33 /scratch/hazwong/824899/1MIS_3/usrc/1MIS_3_fmo_input.F07.012
-rw-r--r-- 1 hazwong frank        0 Dec  7 07:33 /scratch/hazwong/824899/1MIS_3/usrc/1MIS_3_fmo_input.F07.013
-rw-r--r-- 1 hazwong frank        0 Dec  7 07:33 /scratch/hazwong/824899/1MIS_3/usrc/1MIS_3_fmo_input.F07.014
-rw-r--r-- 1 hazwong frank        0 Dec  7 07:33 /scratch/hazwong/824899/1MIS_3/usrc/1MIS_3_fmo_input.F07.015
-rw-r--r-- 1 hazwong frank    65440 Dec  7 20:52 /scratch/hazwong/824899/1MIS_3/usrc/1MIS_3_fmo_input.F10.000
-rw-r--r-- 1 hazwong frank        0 Dec  7 07:33 /scratch/hazwong/824899/1MIS_3/usrc/1MIS_3_fmo_input.F26.000
-rw-r--r-- 1 hazwong frank        0 Dec  7 07:33 /scratch/hazwong/824899/1MIS_3/usrc/1MIS_3_fmo_input.F26.001
-rw-r--r-- 1 hazwong frank        0 Dec  7 07:33 /scratch/hazwong/824899/1MIS_3/usrc/1MIS_3_fmo_input.F26.002
-rw-r--r-- 1 hazwong frank        0 Dec  7 07:33 /scratch/hazwong/824899/1MIS_3/usrc/1MIS_3_fmo_input.F26.003
-rw-r--r-- 1 hazwong frank        0 Dec  7 07:33 /scratch/hazwong/824899/1MIS_3/usrc/1MIS_3_fmo_input.F26.004
-rw-r--r-- 1 hazwong frank        0 Dec  7 07:33 /scratch/hazwong/824899/1MIS_3/usrc/1MIS_3_fmo_input.F26.005
-rw-r--r-- 1 hazwong frank        0 Dec  7 07:33 /scratch/hazwong/824899/1MIS_3/usrc/1MIS_3_fmo_input.F26.006
-rw-r--r-- 1 hazwong frank        0 Dec  7 07:33 /scratch/hazwong/824899/1MIS_3/usrc/1MIS_3_fmo_input.F26.007
-rw-r--r-- 1 hazwong frank        0 Dec  7 07:33 /scratch/hazwong/824899/1MIS_3/usrc/1MIS_3_fmo_input.F26.008
-rw-r--r-- 1 hazwong frank        0 Dec  7 07:33 /scratch/hazwong/824899/1MIS_3/usrc/1MIS_3_fmo_input.F26.009
-rw-r--r-- 1 hazwong frank        0 Dec  7 07:33 /scratch/hazwong/824899/1MIS_3/usrc/1MIS_3_fmo_input.F26.010
-rw-r--r-- 1 hazwong frank        0 Dec  7 07:33 /scratch/hazwong/824899/1MIS_3/usrc/1MIS_3_fmo_input.F26.011
-rw-r--r-- 1 hazwong frank        0 Dec  7 07:33 /scratch/hazwong/824899/1MIS_3/usrc/1MIS_3_fmo_input.F26.012
-rw-r--r-- 1 hazwong frank        0 Dec  7 07:33 /scratch/hazwong/824899/1MIS_3/usrc/1MIS_3_fmo_input.F26.013
-rw-r--r-- 1 hazwong frank        0 Dec  7 07:33 /scratch/hazwong/824899/1MIS_3/usrc/1MIS_3_fmo_input.F26.014
-rw-r--r-- 1 hazwong frank        0 Dec  7 07:33 /scratch/hazwong/824899/1MIS_3/usrc/1MIS_3_fmo_input.F26.015
-rw-r--r-- 1 hazwong frank        0 Dec  7 07:33 /scratch/hazwong/824899/1MIS_3/usrc/1MIS_3_fmo_input.F27.000
-rw-r--r-- 1 hazwong frank        0 Dec  7 07:33 /scratch/hazwong/824899/1MIS_3/usrc/1MIS_3_fmo_input.F27.001
-rw-r--r-- 1 hazwong frank        0 Dec  7 07:33 /scratch/hazwong/824899/1MIS_3/usrc/1MIS_3_fmo_input.F27.002
-rw-r--r-- 1 hazwong frank        0 Dec  7 07:33 /scratch/hazwong/824899/1MIS_3/usrc/1MIS_3_fmo_input.F27.003
-rw-r--r-- 1 hazwong frank        0 Dec  7 07:33 /scratch/hazwong/824899/1MIS_3/usrc/1MIS_3_fmo_input.F27.004
-rw-r--r-- 1 hazwong frank        0 Dec  7 07:33 /scratch/hazwong/824899/1MIS_3/usrc/1MIS_3_fmo_input.F27.005
-rw-r--r-- 1 hazwong frank        0 Dec  7 07:33 /scratch/hazwong/824899/1MIS_3/usrc/1MIS_3_fmo_input.F27.006
-rw-r--r-- 1 hazwong frank        0 Dec  7 07:33 /scratch/hazwong/824899/1MIS_3/usrc/1MIS_3_fmo_input.F27.007
-rw-r--r-- 1 hazwong frank        0 Dec  7 07:33 /scratch/hazwong/824899/1MIS_3/usrc/1MIS_3_fmo_input.F27.008
-rw-r--r-- 1 hazwong frank        0 Dec  7 07:33 /scratch/hazwong/824899/1MIS_3/usrc/1MIS_3_fmo_input.F27.009
-rw-r--r-- 1 hazwong frank        0 Dec  7 07:33 /scratch/hazwong/824899/1MIS_3/usrc/1MIS_3_fmo_input.F27.010
-rw-r--r-- 1 hazwong frank        0 Dec  7 07:33 /scratch/hazwong/824899/1MIS_3/usrc/1MIS_3_fmo_input.F27.011
-rw-r--r-- 1 hazwong frank        0 Dec  7 07:33 /scratch/hazwong/824899/1MIS_3/usrc/1MIS_3_fmo_input.F27.012
-rw-r--r-- 1 hazwong frank        0 Dec  7 07:33 /scratch/hazwong/824899/1MIS_3/usrc/1MIS_3_fmo_input.F27.013
-rw-r--r-- 1 hazwong frank        0 Dec  7 07:33 /scratch/hazwong/824899/1MIS_3/usrc/1MIS_3_fmo_input.F27.014
-rw-r--r-- 1 hazwong frank        0 Dec  7 07:33 /scratch/hazwong/824899/1MIS_3/usrc/1MIS_3_fmo_input.F27.015
-rw-r--r-- 1 hazwong frank 25116672 Dec  7 12:17 /scratch/hazwong/824899/1MIS_3/usrc/1MIS_3_fmo_input.F40.000
-rw-r--r-- 1 hazwong frank 25116672 Dec  7 12:17 /scratch/hazwong/824899/1MIS_3/usrc/1MIS_3_fmo_input.F40.001
-rw-r--r-- 1 hazwong frank 25116672 Dec  7 12:17 /scratch/hazwong/824899/1MIS_3/usrc/1MIS_3_fmo_input.F40.002
-rw-r--r-- 1 hazwong frank 25116672 Dec  7 12:17 /scratch/hazwong/824899/1MIS_3/usrc/1MIS_3_fmo_input.F40.003
-rw-r--r-- 1 hazwong frank 25116672 Dec  7 12:17 /scratch/hazwong/824899/1MIS_3/usrc/1MIS_3_fmo_input.F40.004
-rw-r--r-- 1 hazwong frank 25116672 Dec  7 12:17 /scratch/hazwong/824899/1MIS_3/usrc/1MIS_3_fmo_input.F40.005
-rw-r--r-- 1 hazwong frank 25116672 Dec  7 12:17 /scratch/hazwong/824899/1MIS_3/usrc/1MIS_3_fmo_input.F40.006
-rw-r--r-- 1 hazwong frank 25116672 Dec  7 12:17 /scratch/hazwong/824899/1MIS_3/usrc/1MIS_3_fmo_input.F40.007
-rw-r--r-- 1 hazwong frank 25116672 Dec  7 12:17 /scratch/hazwong/824899/1MIS_3/usrc/1MIS_3_fmo_input.F40.008
-rw-r--r-- 1 hazwong frank 25116672 Dec  7 12:17 /scratch/hazwong/824899/1MIS_3/usrc/1MIS_3_fmo_input.F40.009
-rw-r--r-- 1 hazwong frank 25116672 Dec  7 12:17 /scratch/hazwong/824899/1MIS_3/usrc/1MIS_3_fmo_input.F40.010
-rw-r--r-- 1 hazwong frank 25116672 Dec  7 12:17 /scratch/hazwong/824899/1MIS_3/usrc/1MIS_3_fmo_input.F40.011
-rw-r--r-- 1 hazwong frank 25116672 Dec  7 12:17 /scratch/hazwong/824899/1MIS_3/usrc/1MIS_3_fmo_input.F40.012
-rw-r--r-- 1 hazwong frank 25116672 Dec  7 12:17 /scratch/hazwong/824899/1MIS_3/usrc/1MIS_3_fmo_input.F40.013
-rw-r--r-- 1 hazwong frank 25116672 Dec  7 12:17 /scratch/hazwong/824899/1MIS_3/usrc/1MIS_3_fmo_input.F40.014
-rw-r--r-- 1 hazwong frank 25116672 Dec  7 12:17 /scratch/hazwong/824899/1MIS_3/usrc/1MIS_3_fmo_input.F40.015
ls: No match.
ls: No match.
ls: No match.
Sat Dec  7 20:52:56 EST 2019
0.192u 0.099s 13:19:04.21 0.0%	0+0k 1512+160io 26pf+0w
