‘1MIS_1_fmo_input.inp’ -> ‘/scratch/hazwong/824881/./1MIS_1_fmo_input.inp’
‘rungms’ -> ‘/scratch/hazwong/824881/./rungms’
‘gms-files.csh’ -> ‘/scratch/hazwong/824881/./gms-files.csh’
----- GAMESS execution script 'rungms' -----
This job is running on host gollum047.lsa.umich.edu
under operating system Linux at Sat Dec 7 07:21:52 EST 2019
Available scratch disk space (Kbyte units) at beginning of the job is
Filesystem     1K-blocks    Used Available Use% Mounted on
/dev/sda4      426933580 4085712 422847868   1% /scratch
GAMESS temporary binary files will be written to /scratch/hazwong/824881/1MIS_1/usrc
GAMESS supplementary output files will be written to /scratch/hazwong/824881/1MIS_1/src
Copying input file 1MIS_1_fmo_input.inp to your run's scratch directory...
cp 1MIS_1_fmo_input.inp /scratch/hazwong/824881/1MIS_1/usrc/1MIS_1_fmo_input.F05
unset echo
setenv OUTPUT /scratch/hazwong/824881/1MIS_1/usrc/1MIS_1_fmo_input.F06
This is a GDDI run, keeping various output files on local disks
setenv PUNCH /scratch/hazwong/824881/1MIS_1/usrc/1MIS_1_fmo_input.F07
unset echo
 
Assuming a single but multicore node.
 
/export/apps/CentOS7/gamess/src/build//ddikick.x /export/apps/CentOS7/gamess/src/build//gamess.R3.x 1MIS_1_fmo_input -ddi 1 16 gollum047.lsa.umich.edu:cpus=16 -scr /scratch/hazwong/824881/1MIS_1/usrc

 Distributed Data Interface kickoff program.
 Initiating 16 compute processes on 1 nodes to run the following command:
 /export/apps/CentOS7/gamess/src/build//gamess.R3.x 1MIS_1_fmo_input 

          ******************************************************
          *         GAMESS VERSION = 30 SEP 2018 (R3)         *
          *             FROM IOWA STATE UNIVERSITY             *
          * M.W.SCHMIDT, K.K.BALDRIDGE, J.A.BOATZ, S.T.ELBERT, *
          *   M.S.GORDON, J.H.JENSEN, S.KOSEKI, N.MATSUNAGA,   *
          *          K.A.NGUYEN, S.J.SU, T.L.WINDUS,           *
          *       TOGETHER WITH M.DUPUIS, J.A.MONTGOMERY       *
          *         J.COMPUT.CHEM.  14, 1347-1363(1993)        *
          **************** 64 BIT LINUX VERSION ****************

  SINCE 1993, STUDENTS AND POSTDOCS WORKING AT IOWA STATE UNIVERSITY
  AND ALSO IN THEIR VARIOUS JOBS AFTER LEAVING ISU HAVE MADE IMPORTANT
  CONTRIBUTIONS TO THE CODE:
     IVANA ADAMOVIC, CHRISTINE AIKENS, YURI ALEXEEV, POOJA ARORA,
     ANDREY ASADCHEV, ROB BELL, PRADIPTA BANDYOPADHYAY, JONATHAN BENTZ,
     BRETT BODE, KURT BRORSEN, CALEB CARLIN, GALINA CHABAN, WEI CHEN,
     CHEOL HO CHOI, PAUL DAY, ALBERT DEFUSCO, NUWAN DESILVA, TIM DUDLEY,
     DMITRI FEDOROV, ALEX FINDLATER, GRAHAM FLETCHER, MARK FREITAG,
     KURT GLAESEMANN, ANASTASIA GUNINA,
     DAN KEMP, GRANT MERRILL, NORIYUKI MINEZAWA, JONATHAN MULLIN,
     TAKESHI NAGATA, SEAN NEDD, HEATHER NETZLOFF, BOSILJKA NJEGIC, RYAN OLSON,
     MIKE PAK, BUU PHAM,
     SPENCER PRUITT, LUKE ROSKOP, JIM SHOEMAKER, LYUDMILA SLIPCHENKO,
     TONY SMITH, SAROM SOK LEANG, JIE SONG, TETSUYA TAKETSUGU, SIMON WEBB,
     PENG XU, SOOHAENG YOO, FEDERICO ZAHARIEV

  ADDITIONAL CODE HAS BEEN PROVIDED BY COLLABORATORS IN OTHER GROUPS:
     IOWA STATE UNIVERSITY:
          JOE IVANIC, AARON WEST, LAIMUTIS BYTAUTAS, KLAUS RUEDENBERG
     UNIVERSITY OF TOKYO: KIMIHIKO HIRAO, TAKAHITO NAKAJIMA,
          TAKAO TSUNEDA, MUNEAKI KAMIYA, SUSUMU YANAGISAWA,
          KIYOSHI YAGI, MAHITO CHIBA, SEIKEN TOKURA, NAOAKI KAWAKAMI
     UNIVERSITY OF AARHUS: FRANK JENSEN
     UNIVERSITY OF IOWA: VISVALDAS KAIRYS, HUI LI
     NATIONAL INST. OF STANDARDS AND TECHNOLOGY: WALT STEVENS, DAVID GARMER
     UNIVERSITY OF PISA: BENEDETTA MENNUCCI, JACOPO TOMASI
     UNIVERSITY OF MEMPHIS: HENRY KURTZ, PRAKASHAN KORAMBATH
     UNIVERSITY OF ALBERTA: TOBY ZENG, MARIUSZ KLOBUKOWSKI
     UNIVERSITY OF NEW ENGLAND: MARK SPACKMAN
     MIE UNIVERSITY: HIROAKI UMEDA
     NAT. INST. OF ADVANCED INDUSTRIAL SCIENCE AND TECHNOLOGY: KAZUO KITAURA
     MICHIGAN STATE UNIVERSITY:
          KAROL KOWALSKI, MARTA WLOCH, JEFFREY GOUR, JESSE LUTZ,
          WEI LI, JUN SHEN, J. EMILIANO DEUSTUA, PIOTR PIECUCH
     UNIVERSITY OF MINNESOTA:
          YINAN SHU
     UNIVERSITY OF SILESIA: MONIKA MUSIAL, STANISLAW KUCHARSKI
     FACULTES UNIVERSITAIRES NOTRE-DAME DE LA PAIX:
          OLIVIER QUINET, BENOIT CHAMPAGNE
     UNIVERSITY OF CALIFORNIA - SANTA BARBARA: BERNARD KIRTMAN
     INSTITUTE FOR MOLECULAR SCIENCE:
          KAZUYA ISHIMURA, MICHIO KATOUDA, AND SHIGERU NAGASE
     UNIVERSITY OF NOTRE DAME: ANNA POMOGAEVA, DAN CHIPMAN
     KYUSHU UNIVERSITY:
          HARUYUKI NAKANO,
          FENG LONG GU, JACEK KORCHOWIEC, MARCIN MAKOWSKI, AND YURIKO AOKI,
          HIROTOSHI MORI AND EISAKU MIYOSHI
     PENNSYLVANIA STATE UNIVERSITY:
          TZVETELIN IORDANOV, CHET SWALINA, JONATHAN SKONE,
          SHARON HAMMES-SCHIFFER
     WASEDA UNIVERSITY:
          MASATO KOBAYASHI, TOMOKO AKAMA, TSUGUKI TOUMA,
          TAKESHI YOSHIKAWA, YASUHIRO IKABATA, JUNJI SEINO,
          YUYA NAKAJIMA, HIROMI NAKAI
     NANJING UNIVERSITY: SHUHUA LI
     UNIVERSITY OF NEBRASKA:
          PEIFENG SU, DEJUN SI, NANDUN THELLAMUREGE, YALI WANG, HUI LI
     UNIVERSITY OF ZURICH: ROBERTO PEVERATI, KIM BALDRIDGE
     N. COPERNICUS UNIVERSITY AND JACKSON STATE UNIVERSITY:
          MARIA BARYSZ
     UNIVERSITY OF COPENHAGEN: Jimmy Kromann, CASPER STEINMANN
     TOKYO INSTITUTE OF TECHNOLOGY: HIROYA NAKATA
     NAGOYA UNIVERSITY: YOSHIO NISHIMOTO, STEPHAN IRLE
     MOSCOW STATE UNIVERSITY: VLADIMIR MIRONOV


 PARALLEL VERSION RUNNING ON       16 PROCESSORS IN        1 NODES.

 EXECUTION OF GAMESS BEGUN Sat Dec  7 07:21:52 2019

            ECHO OF THE FIRST FEW INPUT CARDS -
 INPUT CARD>!*** FMO 5.3 (Gamess) INPUT generated by Facio 22.1.1.32 ***                    
 INPUT CARD> $CONTRL RUNTYP=ENERGY NPRINT=-5 ISPHER=1 MAXIT=200 $END                        
 INPUT CARD> $SYSTEM MWORDS=63 MEMDDI=63 $END                                               
 INPUT CARD> $GDDI NGROUP=1 $END                                                            
 INPUT CARD> $SCF DIRSCF=.TRUE. NPUNCH=0 $END                                               
 INPUT CARD>!*** NumCPU : 2  MemPerNode : 512MB                                             
 INPUT CARD> $PCM SOLVNT=WATER IEF=-10 ICOMP=2 ICAV=1 IDISP=1 IFMO=-1 $END                  
 INPUT CARD> $PCMCAV RADII=SUAHF $END                                                       
 INPUT CARD> $TESCAV NTSALL=60 $END                                                         
 INPUT CARD> $FMOPRP                                                                        
 INPUT CARD>    NAODIR=200                                                                  
 INPUT CARD>    NGRFMO(1)=1, 1, 0, 0, 0,   0, 0, 0, 0, 0                                    
 INPUT CARD>    IPIEDA=1                                                                    
 INPUT CARD>    NPRINT=9                                                                    
 INPUT CARD> $END                                                                           
 INPUT CARD> $FMO                                                                           
 INPUT CARD>      SCFTYP(1)=RHF                                                             
 INPUT CARD>      MODGRD=10                                                                 
 INPUT CARD>      MODMUL=0                                                                  
 INPUT CARD>      MAXCAO=5                                                                  
 INPUT CARD>      MAXBND=14                                                                 
 INPUT CARD>      NLAYER=1                                                                  
 INPUT CARD>      MPLEVL(1)=2                                                               
 INPUT CARD>      NFRAG=12                                                                  
 INPUT CARD>      ICHARG(1)=-1, -1, -1, -1, -1, 0, -1, -1, -1, -1, -1, 0                    
 INPUT CARD>      FRGNAM(1)=F1, F2, F3, F4, F5, F6, F7, F8, F9, F10, F11, F12               
 INPUT CARD>      indat(1)=0                                                                
 INPUT CARD>               1   -33   0                                                      
 INPUT CARD>               34   -67   0                                                     
 INPUT CARD>               68   -101   0                                                    
 INPUT CARD>               102   -134   0                                                   
 INPUT CARD>               135   -165   0                                                   
 INPUT CARD>               166   -198   0                                                   
 INPUT CARD>               199   -229   0                                                   
 INPUT CARD>               230   -263   0                                                   
 INPUT CARD>               264   -297   0                                                   
 INPUT CARD>               298   -330   0                                                   
 INPUT CARD>               331   -361   0                                                   
 INPUT CARD>               362   -392   0                                                   
 INPUT CARD> $END                                                                           
 INPUT CARD>                                                                                
 INPUT CARD> $FMOBND                                                                        
 INPUT CARD>   -34   33       6-31G*    MINI                                                
 INPUT CARD>   -68   67       6-31G*    MINI                                                
 INPUT CARD>   -102   101       6-31G*    MINI                                              
 INPUT CARD>   -135   134       6-31G*    MINI                                              
 INPUT CARD>   -166   165       6-31G*    MINI                                              
 INPUT CARD>   -199   198       6-31G*    MINI                                              
 INPUT CARD>   -230   229       6-31G*    MINI                                              
 INPUT CARD>   -264   263       6-31G*    MINI                                              


 -------------------------------------------------------------
 GROUP DDI, PROGRAMMED BY: RYAN M. OLSON AND DMITRI G. FEDOROV
        FEDOROV ET AL., J. COMPUT. CHEM., 25 (2004) 872.
 -------------------------------------------------------------

 -------------------------------------------------------
 GDDI: INITIALIZATION COMPLETED FOR GROUP     1 OF     1
 WITH    16 PROCESSES BALTYP=DLB   global rank=        0
 -------------------------------------------------------

   63000000 WORDS OF MEMORY AVAILABLE


     RUN TITLE
     ---------
  FMO calculation                                                                

 THE POINT GROUP OF THE MOLECULE IS C1      
 THE ORDER OF THE PRINCIPAL AXIS IS     0

 ATOM   ATOMIC CHARGE
 H.1-1       1.0
 O.1-1       8.0
 C.1-1       6.0
 N.1-1       7.0
 P.1-1      15.0

     ATOMIC BASIS SET LIBRARY
     ----------------
 THE CONTRACTED PRIMITIVE FUNCTIONS HAVE BEEN UNNORMALIZED
 THE CONTRACTED BASIS FUNCTIONS ARE NOW NORMALIZED TO UNITY

  SHELL TYPE  PRIMITIVE        EXPONENT          CONTRACTION COEFFICIENT(S)

 H.1-1     

      1   S       1            18.7311370    0.033494604338
      1   S       2             2.8253944    0.234726953484
      1   S       3             0.6401217    0.813757326146

      2   S       4             0.1612778    1.000000000000

 O.1-1     

      3   S       5          5484.6716600    0.001831074430
      3   S       6           825.2349460    0.013950172200
      3   S       7           188.0469580    0.068445078098
      3   S       8            52.9645000    0.232714335992
      3   S       9            16.8975704    0.470192897984
      3   S      10             5.7996353    0.358520852987

      4   L      11            15.5396162   -0.110777549525    0.070874268231
      4   L      12             3.5999336   -0.148026262701    0.339752839147
      4   L      13             1.0137618    1.130767015354    0.727158577316

      5   L      14             0.2700058    1.000000000000    1.000000000000

      6   D      15             0.8000000    1.000000000000

 C.1-1     

      7   S      16          3047.5248800    0.001834737132
      7   S      17           457.3695180    0.014037322813
      7   S      18           103.9486850    0.068842622264
      7   S      19            29.2101553    0.232184443216
      7   S      20             9.2866630    0.467941348435
      7   S      21             3.1639270    0.362311985337

      8   L      22             7.8682723   -0.119332419775    0.068999066591
      8   L      23             1.8812885   -0.160854151696    0.316423960957
      8   L      24             0.5442493    1.143456437840    0.744308290898

      9   L      25             0.1687145    1.000000000000    1.000000000000

     10   D      26             0.8000000    1.000000000000

 N.1-1     

     11   S      27          4173.5114600    0.001834772160
     11   S      28           627.4579110    0.013994627002
     11   S      29           142.9020930    0.068586551812
     11   S      30            40.2343293    0.232240873040
     11   S      31            12.8202129    0.469069948082
     11   S      32             4.3904370    0.360455199063

     12   L      33            11.6263619   -0.114961181702    0.067579743878
     12   L      34             2.7162798   -0.169117478561    0.323907295893
     12   L      35             0.7722184    1.145851947027    0.740895139755

     13   L      36             0.2120315    1.000000000000    1.000000000000

     14   D      37             0.8000000    1.000000000000

 P.1-1     

     15   S      38         19413.3000000    0.001851598923
     15   S      39          2909.4200000    0.014206191735
     15   S      40           661.3640000    0.069999459277
     15   S      41           185.7590000    0.240078860331
     15   S      42            59.1943000    0.484761717984
     15   S      43            20.0310000    0.335199804993

     16   L      44           339.4780000   -0.002782170105    0.004564616191
     16   L      45            81.0101000   -0.036049901354    0.033693571881
     16   L      46            25.8780000   -0.116631004382    0.139754883368
     16   L      47             9.4522100    0.096832803638    0.339361716786
     16   L      48             3.6656600    0.614418023082    0.450920623685
     16   L      49             1.4674600    0.403798015170    0.238585800889

     17   L      50             2.1562300   -0.252924113863   -0.017765312733
     17   L      51             0.7489970    0.032851844678    0.274058196433
     17   L      52             0.2831450    1.081254761783    0.785421562957

     18   L      53             0.0998317    1.000000000000    1.000000000000

     19   D      54             0.5500000    1.000000000000

 TOTAL NUMBER OF BASIS SET SHELLS             =   19
 NUMBER OF CARTESIAN GAUSSIAN BASIS FUNCTIONS =   66

     $CONTRL OPTIONS
     ---------------
 SCFTYP=RHF          RUNTYP=ENERGY       EXETYP=RUN     
 MPLEVL=       0     CITYP =NONE         CCTYP =NONE         VBTYP =NONE    
 DFTTYP=NONE         TDDFT =NONE    
 MULT  =       1     ICHARG=       0     NZVAR =       0     COORD =UNIQUE  
 PP    =NONE         RELWFN=NONE         LOCAL =NONE         NUMGRD=       F
 ISPHER=       1     NOSYM =       0     MAXIT =     200     UNITS =ANGS    
 PLTORB=       F     MOLPLT=       F     AIMPAC=       F     FRIEND=        
 NPRINT=      -5     IREST =       0     GEOM  =INPUT   
 NORMF =       0     NORMP =       0     ITOL  =      24     ICUT  =      12
 INTTYP=BEST         GRDTYP=BEST         QMTTOL= 1.0E-06

     $SYSTEM OPTIONS
     ---------------
  REPLICATED MEMORY=    63000000 WORDS (ON EVERY NODE).
 DISTRIBUTED MEMDDI=          63 MILLION WORDS IN AGGREGATE,
 MEMDDI DISTRIBUTED OVER  16 PROCESSORS IS     3937500 WORDS/PROCESSOR.
 TOTAL MEMORY REQUESTED ON EACH PROCESSOR=    66937500 WORDS.
 TIMLIM=      525600.00 MINUTES, OR     365.0 DAYS.
 PARALL= T  BALTYP=  DLB     KDIAG=    0  COREFL= F
 MXSEQ2=     300 MXSEQ3=     150  mem10=         0

 ** LOOKING UP INTERNALLY STORED DATA FOR SOLVENT=WATER    **
 OPTICAL AND PHYSICAL CONSTANTS:
 EPS= 78.390; EPSINF=  1.776; RSOLV=  1.385 A; VMOL=  18.070 ML/MOL;
 TCE= .25700E-03 1/K; STEN= 71.810 DYN/CM;  DSTEN=  0.6500; CMF=  1.2770


     -----------------------------------
     INPUT FOR PCM SOLVATION CALCULATION 
     -----------------------------------
     IEF   =     -10
     ICOMP =       2     IFIELD=       0     ICAV  =       1
     IDISP =       1     IREP  =       0     IDP   =       0

     SOLVNT=WATER        EPS   = 78.3900     EPSINF=  1.7760
     VMOL  = 18.0700     TCE   =  0.00025700 STEN  = 71.8100
     DSTEN =  0.6500     CMF   =  1.2770     RSOLV =  1.3850

     NESFP =       0
     OMEGA = 40.0000     RET   =100.0000     FRO   =  0.7000

     TABS  =298.0000     IPRINT=       0

     --------------------------------
     INPUT FOR ITERATIVE C-PCM METHOD 
     --------------------------------
     IPCMIT  =         1     MXDIIS  =        50
     MXITR1  =       200     MXITR2  =       200
     THRES   = 0.100E-09     IMUL    =         3
     RCUT(1) =   20.0000     RCUT(2) =   50.0000

     IDIRCT  =         1
     IMGABI  =         0     RABI    =    4.0000
     IMGASC  =         0     RASC    =   20.0000
     THRSLS  = 0.500E-03     DENSLS  =    0.0100
     IEFPOL  =         1     REFPOL  =    0.0000

     INPUT FOR ISOTROPIC DIELECTRICS
     -------------------------------
     EPS=    78.39

          ----------------
          PROPERTIES INPUT
          ----------------

     MOMENTS            FIELD           POTENTIAL          DENSITY
 IEMOM =       1   IEFLD =       0   IEPOT =       0   IEDEN =       0
 WHERE =COMASS     WHERE =NUCLEI     WHERE =NUCLEI     WHERE =NUCLEI  
 OUTPUT=BOTH       OUTPUT=BOTH       OUTPUT=NONE       OUTPUT=BOTH    
 IEMINT=       0   IEFINT=       0                     IEDINT=       0
                                                       MORB  =       0
          EXTRAPOLATION IN EFFECT
          SOSCF IN EFFECT
 ORBITAL PRINTING OPTION: NPREO=     1 32767     2     1

     -------------------------------
     INTEGRAL TRANSFORMATION OPTIONS
     -------------------------------
     NWORD  =            0
     CUTOFF = 1.0E-10     MPTRAN =       0
     DIRTRF =       T     AOINTS =DUP     

          ----------------------
          INTEGRAL INPUT OPTIONS
          ----------------------
 NOPK  =       1 NORDER=       0 SCHWRZ=       T

 ..... DONE SETTING UP THE RUN .....
 CPU     0: STEP CPU TIME=     0.04 TOTAL CPU TIME=          0.0 (      0.0 MIN)
 TOTAL WALL CLOCK TIME=          0.1 SECONDS, CPU UTILIZATION IS    66.67%
 CPU     0: STEP CPU TIME=     0.00 TOTAL CPU TIME=          0.0 (      0.0 MIN)
 TOTAL WALL CLOCK TIME=          0.1 SECONDS, CPU UTILIZATION IS    57.14%

                    ----------------------
                    AO INTEGRAL TECHNOLOGY
                    ----------------------
     S,P,L SHELL ROTATED AXIS INTEGRALS, REPROGRAMMED BY
        KAZUYA ISHIMURA (IMS) AND JOSE SIERRA (SYNSTAR).
     S,P,D,L SHELL ROTATED AXIS INTEGRALS PROGRAMMED BY
        KAZUYA ISHIMURA (INSTITUTE FOR MOLECULAR SCIENCE).
     S,P,D,F,G SHELL TO TOTAL QUARTET ANGULAR MOMENTUM SUM 5,
        ERIC PROGRAM BY GRAHAM FLETCHER (ELORET AND NASA ADVANCED
        SUPERCOMPUTING DIVISION, AMES RESEARCH CENTER).
     S,P,D,F,G,L SHELL GENERAL RYS QUADRATURE PROGRAMMED BY
        MICHEL DUPUIS (PACIFIC NORTHWEST NATIONAL LABORATORY).
 Setting modorb=1 flag...
 Setting modorb=1 flag...

          -----------------------
          MP2 CONTROL INFORMATION
          -----------------------
          NACORE =        8  NBCORE =        8
          LMOMP2 =        F  AOINTS = DUP     
          METHOD =        2  NWORD  =               0
          MP2PRP =        F  OSPT   = NONE    
          CUTOFF = 1.00E-12  CPHFBS = BASISAO 
          CODE   = IMS     

          NUMBER OF CORE -A-  ORBITALS =     8
          NUMBER OF CORE -B-  ORBITALS =     8
          NUMBER OF OCC. -A-  ORBITALS =    18
          NUMBER OF OCC. -B-  ORBITALS =    18
          NUMBER OF MOLECULAR ORBITALS =    66
          NUMBER OF   BASIS  FUNCTIONS =    66

 CPU     0: STEP CPU TIME=     0.03 TOTAL CPU TIME=          0.1 (      0.0 MIN)
 TOTAL WALL CLOCK TIME=          0.1 SECONDS, CPU UTILIZATION IS    63.64%
 CPU     0: STEP CPU TIME=     0.00 TOTAL CPU TIME=          0.1 (      0.0 MIN)
 TOTAL WALL CLOCK TIME=          0.1 SECONDS, CPU UTILIZATION IS    63.64%

     INPUT FOR CAVITY DEFINITION 
     ---------------------------
   ATOM               COORDINATES                RADIUS       EPS
      1    -39.9640    111.7780    -50.2590      0.0100     78.3900
      2    -39.9530    112.5150    -50.8970      1.5900     78.3900
      3    -38.9610    113.4500    -50.4500      1.7700     78.3900
      4    -37.9970    112.9190    -50.2870      0.0100     78.3900
      5    -39.2840    113.8830    -49.4780      0.0100     78.3900
      6    -38.7270    114.5990    -51.4380      1.7700     78.3900
      7    -37.9940    115.3300    -51.0300      0.0100     78.3900
      8    -38.1710    114.0840    -52.6880      1.5900     78.3900
      9    -38.7530    114.7930    -53.7770      1.7700     78.3900
     10    -37.9000    115.2140    -54.3580      0.0100     78.3900
     11    -39.5640    113.9190    -54.6740      1.6800     78.3900
     12    -40.0180    112.6960    -54.2330      1.7700     78.3900
     13    -39.7450    112.4190    -53.2130      0.0100     78.3900
     14    -40.7140    111.8770    -55.0330      1.7700     78.3900
     15    -41.0500    110.8940    -54.7090      0.0100     78.3900
     16    -39.8980    114.3490    -55.9560      1.7700     78.3900
     17    -39.5240    115.4700    -56.3330      1.5900     78.3900
     18    -40.6010    113.5380    -56.7780      1.6800     78.3900
     19    -40.9930    112.3230    -56.3560      1.7700     78.3900
     20    -41.6370    111.5220    -57.2060      1.6800     78.3900
     21    -41.8750    111.8630    -58.1180      0.0100     78.3900
     22    -41.9720    110.6210    -56.9270      0.0100     78.3900
     23    -39.5590    115.9370    -53.1920      1.7700     78.3900
     24    -40.4330    116.2010    -53.8220      0.0100     78.3900
     25    -38.7450    117.0790    -53.0080      1.5900     78.3900
     26    -39.3250    117.7410    -52.6110      0.0100     78.3900
     27    -39.9950    115.3540    -51.8500      1.7700     78.3900
     28    -40.7910    114.5890    -52.0070      0.0100     78.3900
     29    -40.3330    116.3210    -50.8240      1.5900     78.3900
     30    -41.8260    116.8270    -50.7450      2.1000     78.3900
     31    -42.7160    115.6490    -50.7180      1.5900     78.3900
     32    -41.9120    117.7650    -49.6020      1.5900     78.3900
     33    -42.0350    117.6310    -52.0830      1.5900     78.3900
     34    -41.4210    118.9330    -52.2500      1.7700     78.3900
     35    -40.3140    118.8910    -52.1320      0.0100     78.3900
     36    -41.8140    119.6530    -51.4950      0.0100     78.3900
     37    -41.7120    119.5000    -53.6440      1.7700     78.3900
     38    -41.1610    120.4540    -53.8070      0.0100     78.3900
     39    -41.2620    118.5620    -54.6620      1.5900     78.3900
     40    -42.1800    118.5640    -55.7450      1.7700     78.3900
     41    -41.5930    118.8200    -56.6570      0.0100     78.3900
     42    -42.8110    117.2440    -55.9250      1.6800     78.3900
     43    -43.4400    116.7840    -57.0530      1.7700     78.3900
     44    -44.5520    117.2820    -60.2960      1.6800     78.3900
     45    -44.2480    118.2180    -60.4880      0.0100     78.3900
     46    -45.0660    116.7810    -60.9970      0.0100     78.3900
     47    -43.6010    117.4630    -58.2050      1.6800     78.3900
     48    -44.2640    116.7590    -59.1170      1.7700     78.3900
     49    -44.6880    115.4720    -58.9100      1.6800     78.3900
     50    -45.1620    114.9970    -59.6640      0.0100     78.3900
     51    -44.5120    114.7320    -57.7460      1.7700     78.3900
     52    -44.9190    113.5690    -57.6530      1.5900     78.3900
     53    -43.8450    115.4950    -56.7500      1.7700     78.3900
     54    -43.4980    115.1610    -55.4470      1.6800     78.3900
     55    -42.8880    116.2300    -54.9980      1.7700     78.3900
     56    -42.4720    116.3430    -53.9970      0.0100     78.3900
     57    -43.2010    119.6530    -55.4830      1.7700     78.3900
     58    -44.2020    119.3850    -55.8740      0.0100     78.3900
     59    -42.7830    120.8730    -56.0600      1.5900     78.3900
     60    -43.4140    121.5480    -55.7670      0.0100     78.3900
     61    -43.1980    119.7220    -53.9620      1.7700     78.3900
     62    -43.7310    118.8280    -53.5620      0.0100     78.3900
     63    -43.6620    120.9840    -53.4180      1.5900     78.3900
     64    -44.8740    121.0360    -52.4120      2.1000     78.3900
     65    -45.3180    119.6660    -52.0800      1.5900     78.3900
     66    -44.5260    121.9210    -51.2800      1.5900     78.3900
     67    -46.0440    121.6940    -53.2330      1.5900     78.3900
     68    -45.9610    123.0050    -53.8250      1.7700     78.3900
     69    -44.9190    123.4030    -53.8440      0.0100     78.3900
     70    -46.5750    123.7110    -53.2230      0.0100     78.3900
     71    -46.4990    123.0130    -55.2650      1.7700     78.3900
     72    -46.3240    124.0040    -55.7390      0.0100     78.3900
     73    -45.7990    122.0160    -56.0650      1.5900     78.3900
     74    -46.7190    121.4110    -56.9640      1.7700     78.3900
     75    -46.2940    121.5230    -57.9870      0.0100     78.3900
     76    -46.8930    119.9750    -56.6640      1.6800     78.3900
     77    -47.3170    119.0090    -57.5350      1.7700     78.3900
     78    -48.4180    118.0680    -60.6770      1.6800     78.3900
     79    -48.4150    118.9430    -61.1680      0.0100     78.3900
     80    -48.5270    117.2310    -61.1990      0.0100     78.3900
     81    -47.6800    119.2020    -58.8140      1.6800     78.3900
     82    -48.0190    118.0670    -59.4190      1.7700     78.3900
     83    -47.9620    116.8410    -58.8050      1.6800     78.3900
     84    -48.2850    116.0300    -59.3150      0.0100     78.3900
     85    -47.5940    116.6140    -57.4850      1.7700     78.3900
     86    -47.5700    115.4770    -57.0050      1.5900     78.3900
     87    -47.2640    117.8220    -56.8260      1.7700     78.3900
     88    -46.8590    118.0410    -55.5220      1.6800     78.3900
     89    -46.6640    119.3360    -55.4650      1.7700     78.3900
     90    -46.3290    119.8740    -54.5820      0.0100     78.3900
     91    -48.0190    122.1780    -56.8710      1.7700     78.3900
     92    -48.9000    121.5410    -57.0710      0.0100     78.3900
     93    -48.0240    123.2690    -57.7710      1.5900     78.3900
     94    -48.8290    123.7640    -57.5750      0.0100     78.3900
     95    -47.9890    122.6590    -55.4270      1.7700     78.3900
     96    -48.1820    121.8090    -54.7340      0.0100     78.3900
     97    -48.8190    123.8170    -55.1590      1.5900     78.3900
     98    -50.2690    123.6010    -54.5780      2.1000     78.3900
     99    -50.2420    122.5040    -53.5880      1.5900     78.3900
    100    -50.7930    124.9030    -54.1160      1.5900     78.3900
    101    -51.1080    123.1160    -55.8140      1.5900     78.3900
    102    -51.4330    124.0060    -56.9010      1.7700     78.3900
    103    -50.5240    124.5260    -57.2850      0.0100     78.3900
    104    -52.1560    124.7830    -56.5630      0.0100     78.3900
    105    -52.0700    123.2330    -58.0610      1.7700     78.3900
    106    -52.3060    123.9080    -58.9120      0.0100     78.3900
    107    -51.1300    122.2270    -58.5400      1.5900     78.3900
    108    -51.8390    121.0560    -58.8980      1.7700     78.3900
    109    -51.5770    120.8320    -59.9590      0.0100     78.3900
    110    -51.4520    119.9210    -58.0500      1.6800     78.3900
    111    -51.0820    117.8890    -57.2980      1.7700     78.3900
    112    -50.6030    118.7520    -56.3250      1.6800     78.3900
    113    -50.8480    119.9420    -56.8170      1.7700     78.3900
    114    -50.6150    120.8840    -56.3200      0.0100     78.3900
    115    -51.7140    115.9450    -58.4890      1.6800     78.3900
    116    -52.2120    116.7690    -59.4110      1.7700     78.3900
    117    -52.6820    116.2900    -60.2720      0.0100     78.3900
    118    -52.2000    118.1000    -59.4500      1.6800     78.3900
    119    -51.6200    118.6010    -58.3550      1.7700     78.3900
    120    -51.1180    116.4800    -57.3900      1.7700     78.3900
    121    -50.5990    115.6650    -56.4520      1.6800     78.3900
    122    -50.1510    116.0180    -55.6250      0.0100     78.3900
    123    -50.6650    114.6690    -56.5610      0.0100     78.3900
    124    -53.3150    121.3720    -58.8000      1.7700     78.3900
    125    -53.9220    120.4890    -58.5140      0.0100     78.3900
    126    -53.7760    121.8960    -60.0300      1.5900     78.3900
    127    -54.6630    122.2440    -59.8700      0.0100     78.3900
    128    -53.3380    122.4330    -57.7080      1.7700     78.3900
    129    -53.1640    121.9740    -56.7080      0.0100     78.3900
    130    -54.5000    123.2940    -57.7310      1.5900     78.3900
    131    -55.7920    122.8830    -56.9210      2.1000     78.3900
    132    -55.4170    122.6560    -55.5090      1.5900     78.3900
    133    -56.8480    123.8840    -57.1840      1.5900     78.3900
    134    -56.2360    121.5070    -57.5360      1.5900     78.3900
    135    -56.9190    121.4350    -58.8090      1.7700     78.3900
    136    -56.3350    121.9370    -59.6120      0.0100     78.3900
    137    -57.9080    121.9430    -58.7510      0.0100     78.3900
    138    -57.1580    119.9840    -59.2550      1.7700     78.3900
    139    -57.5810    119.9670    -60.2810      0.0100     78.3900
    140    -55.9050    119.2440    -59.2940      1.5900     78.3900
    141    -56.1310    117.9060    -58.8680      1.7700     78.3900
    142    -55.7840    117.2630    -59.7070      0.0100     78.3900
    143    -55.3560    117.5510    -57.6420      1.6800     78.3900
    144    -54.9650    118.5410    -56.7690      1.7700     78.3900
    145    -55.2500    119.5550    -57.0420      0.0100     78.3900
    146    -54.2470    118.2690    -55.6730      1.7700     78.3900
    147    -53.9070    119.0480    -54.9930      0.0100     78.3900
    148    -55.0440    116.2230    -57.3550      1.7700     78.3900
    149    -55.4280    115.3280    -58.1260      1.5900     78.3900
    150    -54.3130    115.9280    -56.2560      1.6800     78.3900
    151    -53.9130    116.9080    -55.4250      1.7700     78.3900
    152    -53.1670    116.5960    -54.3690      1.6800     78.3900
    153    -52.9420    115.6350    -54.1980      0.0100     78.3900
    154    -52.8980    117.2750    -53.6840      0.0100     78.3900
    155    -57.6300    117.7250    -58.7060      1.7700     78.3900
    156    -57.8850    117.0090    -57.8990      0.0100     78.3900
    157    -58.2060    117.2860    -59.9250      1.5900     78.3900
    158    -59.1660    117.3300    -59.8130      0.0100     78.3900
    159    -58.0640    119.1440    -58.3530      1.7700     78.3900
    160    -57.7540    119.3860    -57.3120      0.0100     78.3900
    161    -59.4480    119.4480    -58.6330      1.5900     78.3900
    162    -60.4790    119.4820    -57.4450      2.1000     78.3900
    163    -59.8760    120.1440    -56.2690      1.5900     78.3900
    164    -61.7690    120.0200    -57.9260      1.5900     78.3900
    165    -60.6520    117.9530    -57.1210      1.5900     78.3900
    166    -61.4250    117.1290    -58.0250      1.7700     78.3900
    167    -61.0080    117.1550    -59.0610      0.0100     78.3900
    168    -62.4820    117.4840    -58.0710      0.0100     78.3900
    169    -61.4440    115.6760    -57.5460      1.7700     78.3900
    170    -62.0640    115.0430    -58.2110      0.0100     78.3900
    171    -60.0920    115.1380    -57.5640      1.5900     78.3900
    172    -59.9240    114.2750    -56.4500      1.7700     78.3900
    173    -59.6220    113.2870    -56.8600      0.0100     78.3900
    174    -58.8650    114.7600    -55.5560      1.6800     78.3900
    175    -58.1770    114.0150    -54.6370      1.7700     78.3900
    176    -57.6480    111.0200    -52.9800      1.6800     78.3900
    177    -58.3490    110.4270    -53.3730      0.0100     78.3900
    178    -57.0540    110.6620    -52.2540      0.0100     78.3900
    179    -58.3700    112.7090    -54.3750      1.6800     78.3900
    180    -57.5700    112.2670    -53.4050      1.7700     78.3900
    181    -56.6350    113.0550    -52.7860      1.6800     78.3900
    182    -56.0770    112.6430    -52.0540      0.0100     78.3900
    183    -56.3980    114.3970    -53.0540      1.7700     78.3900
    184    -55.5290    115.0300    -52.4460      1.5900     78.3900
    185    -57.2710    114.8870    -54.0610      1.7700     78.3900
    186    -57.4020    116.1630    -54.5950      1.6800     78.3900
    187    -58.3650    116.0410    -55.4740      1.7700     78.3900
    188    -58.7660    116.8480    -56.0910      0.0100     78.3900
    189    -61.2630    114.1430    -55.7480      1.7700     78.3900
    190    -61.1530    114.0460    -54.6430      0.0100     78.3900
    191    -61.9720    113.0270    -56.2640      1.5900     78.3900
    192    -62.8880    113.0580    -55.9380      0.0100     78.3900
    193    -61.9250    115.4690    -56.1030      1.7700     78.3900
    194    -61.5120    116.2880    -55.4740      0.0100     78.3900
    195    -63.3620    115.4460    -56.0440      1.5900     78.3900
    196    -63.6620    115.3510    -55.1200      0.0100     78.3900
    197    -50.5330    108.8360    -46.5480      0.0100     78.3900
    198    -51.2180    108.7300    -47.2350      1.5900     78.3900
    199    -51.9170    107.5070    -46.9570      1.7700     78.3900
    200    -52.3270    107.5450    -45.9220      0.0100     78.3900
    201    -51.1980    106.6600    -47.0120      0.0100     78.3900
    202    -53.0700    107.2340    -47.9360      1.7700     78.3900
    203    -53.5160    106.2320    -47.7560      0.0100     78.3900
    204    -54.1300    108.2200    -47.7460      1.5900     78.3900
    205    -54.6610    108.5860    -49.0150      1.7700     78.3900
    206    -55.7590    108.3970    -48.9520      0.0100     78.3900
    207    -54.4340    110.0180    -49.3610      1.6800     78.3900
    208    -53.4690    110.7510    -48.7100      1.7700     78.3900
    209    -52.9030    110.2250    -47.9380      0.0100     78.3900
    210    -53.2550    112.0410    -49.0020      1.7700     78.3900
    211    -52.5020    112.6340    -48.4880      0.0100     78.3900
    212    -55.1860    110.6190    -50.3680      1.7700     78.3900
    213    -56.0370    109.9450    -50.9690      1.5900     78.3900
    214    -55.0000    111.9250    -50.6650      1.6800     78.3900
    215    -54.0620    112.6360    -50.0140      1.7700     78.3900
    216    -53.9020    113.9240    -50.3170      1.6800     78.3900
    217    -54.4470    114.3280    -51.0550      0.0100     78.3900
    218    -53.2280    114.4970    -49.8450      0.0100     78.3900
    219    -54.0680    107.6450    -50.0440      1.7700     78.3900
    220    -53.9600    108.1170    -51.0430      0.0100     78.3900
    221    -54.8640    106.4800    -50.1570      1.5900     78.3900
    222    -54.4060    105.8920    -50.7720      0.0100     78.3900
    223    -52.7080    107.3450    -49.4240      1.7700     78.3900
    224    -52.0420    108.2340    -49.5250      0.0100     78.3900
    225    -52.0880    106.1160    -49.8670      1.5900     78.3900
    226    -51.1080    106.1770    -51.1010      2.1000     78.3900
    227    -50.1750    107.3090    -50.9260      1.5900     78.3900
    228    -50.4970    104.8450    -51.2870      1.5900     78.3900
    229    -52.0470    106.4820    -52.3160      1.5900     78.3900
    230    -52.9560    105.4820    -52.8300      1.7700     78.3900
    231    -53.6080    105.0750    -52.0230      0.0100     78.3900
    232    -52.3900    104.6210    -53.2570      0.0100     78.3900
    233    -53.8480    106.0560    -53.9400      1.7700     78.3900
    234    -54.5930    105.3040    -54.2770      0.0100     78.3900
    235    -54.5930    107.2090    -53.4450      1.5900     78.3900
    236    -54.6880    108.1870    -54.4730      1.7700     78.3900
    237    -55.7720    108.4000    -54.6180      0.0100     78.3900
    238    -53.9940    109.4360    -54.1070      1.6800     78.3900
    239    -54.1710    110.6650    -54.6900      1.7700     78.3900
    240    -55.6560    112.6770    -57.0970      1.6800     78.3900
    241    -56.2320    112.0260    -57.6000      0.0100     78.3900
    242    -55.6180    113.6330    -57.4000      0.0100     78.3900
    243    -55.0040    110.9470    -55.7120      1.6800     78.3900
    244    -54.9470    112.2270    -56.0760      1.7700     78.3900
    245    -54.1510    113.1470    -55.4500      1.6800     78.3900
    246    -54.1780    114.1030    -55.7740      0.0100     78.3900
    247    -53.2950    112.8920    -54.3860      1.7700     78.3900
    248    -52.6030    113.7820    -53.8830      1.5900     78.3900
    249    -53.3190    111.5200    -54.0190      1.7700     78.3900
    250    -52.5950    110.8380    -53.0510      1.6800     78.3900
    251    -53.0250    109.6020    -53.1420      1.7700     78.3900
    252    -52.6810    108.7680    -52.5290      0.0100     78.3900
    253    -54.1190    107.5790    -55.7380      1.7700     78.3900
    254    -53.6250    108.3430    -56.3730      0.0100     78.3900
    255    -55.1240    106.9230    -56.4890      1.5900     78.3900
    256    -54.6660    106.4750    -57.2170      0.0100     78.3900
    257    -53.1040    106.5900    -55.1780      1.7700     78.3900
    258    -52.2130    107.1460    -54.8010      0.0100     78.3900
    259    -52.7820    105.5130    -56.0840      1.5900     78.3900
    260    -51.3150    105.1520    -56.5110      2.1000     78.3900
    261    -50.3540    105.9950    -55.7760      1.5900     78.3900
    262    -51.1260    103.6850    -56.4410      1.5900     78.3900
    263    -51.2670    105.5760    -58.0310      1.5900     78.3900
    264    -52.1380    104.9710    -59.0220      1.7700     78.3900
    265    -52.9780    104.3900    -58.5690      0.0100     78.3900
    266    -51.5500    104.2560    -59.6400      0.0100     78.3900
    267    -52.7380    106.0100    -59.9790      1.7700     78.3900
    268    -53.4650    105.5360    -60.6730      0.0100     78.3900
    269    -53.4500    107.0200    -59.2130      1.5900     78.3900
    270    -53.2320    108.2920    -59.8060      1.7700     78.3900
    271    -54.2400    108.7180    -60.0040      0.0100     78.3900
    272    -52.4850    109.1860    -58.9010      1.6800     78.3900
    273    -52.4670    110.5540    -58.9380      1.7700     78.3900
    274    -53.4530    113.5270    -60.3940      1.6800     78.3900
    275    -53.4550    114.5000    -60.1990      0.0100     78.3900
    276    -54.0020    113.1940    -61.1570      0.0100     78.3900
    277    -53.1180    111.3300    -59.8240      1.6800     78.3900
    278    -52.9350    112.6240    -59.5860      1.7700     78.3900
    279    -52.2240    113.1020    -58.5150      1.6800     78.3900
    280    -52.0930    114.1000    -58.4270      0.0100     78.3900
    281    -51.5540    112.3240    -57.5800      1.7700     78.3900
    282    -50.9310    112.8290    -56.6440      1.5900     78.3900
    283    -51.6870    110.9430    -57.8640      1.7700     78.3900
    284    -51.1730    109.8410    -57.1980      1.6800     78.3900
    285    -51.6610    108.8210    -57.8560      1.7700     78.3900
    286    -51.5090    107.7790    -57.5920      0.0100     78.3900
    287    -52.5110    108.0740    -61.1170      1.7700     78.3900
    288    -51.8420    108.9170    -61.3740      0.0100     78.3900
    289    -53.4380    107.8830    -62.1700      1.5900     78.3900
    290    -52.9040    107.6960    -62.9530      0.0100     78.3900
    291    -51.7230    106.8050    -60.8300      1.7700     78.3900
    292    -50.8700    107.0250    -60.1490      0.0100     78.3900
    293    -51.3360    106.0580    -62.0140      1.5900     78.3900
    294    -49.8880    106.2640    -62.6110      2.1000     78.3900
    295    -48.9350    106.4510    -61.4980      1.5900     78.3900
    296    -49.5920    105.1510    -63.5460      1.5900     78.3900
    297    -49.9630    107.6180    -63.4070      1.5900     78.3900
    298    -50.7880    107.8020    -64.5780      1.7700     78.3900
    299    -51.8240    107.4190    -64.4150      0.0100     78.3900
    300    -50.3580    107.2570    -65.4520      0.0100     78.3900
    301    -50.8730    109.2940    -64.9410      1.7700     78.3900
    302    -51.4890    109.4440    -65.8530      0.0100     78.3900
    303    -51.5190    110.0180    -63.8520      1.5900     78.3900
    304    -50.9140    111.2950    -63.7200      1.7700     78.3900
    305    -51.7360    112.0430    -63.8110      0.0100     78.3900
    306    -50.2650    111.4560    -62.4190      1.6800     78.3900
    307    -49.3910    112.3280    -60.6000      1.7700     78.3900
    308    -49.3250    110.9530    -60.4430      1.6800     78.3900
    309    -49.8450    110.4820    -61.5510      1.7700     78.3900
    310    -49.9590    109.4230    -61.7950      0.0100     78.3900
    311    -49.1750    114.6590    -60.2630      1.6800     78.3900
    312    -49.7180    114.8040    -61.4730      1.7700     78.3900
    313    -49.8390    115.8360    -61.8140      0.0100     78.3900
    314    -50.1540    113.8720    -62.3200      1.6800     78.3900
    315    -49.9610    112.6460    -61.8190      1.7700     78.3900
    316    -48.9960    113.4040    -59.7730      1.7700     78.3900
    317    -48.4750    113.2280    -58.5450      1.6800     78.3900
    318    -48.3740    112.3160    -58.1350      0.0100     78.3900
    319    -48.2080    114.0160    -57.9830      0.0100     78.3900
    320    -49.9530    111.4710    -64.8690      1.7700     78.3900
    321    -49.0770    112.0980    -64.6020      0.0100     78.3900
    322    -50.6290    112.0360    -65.9790      1.5900     78.3900
    323    -50.0270    111.9660    -66.7310      0.0100     78.3900
    324    -49.5360    110.0330    -65.1390      1.7700     78.3900
    325    -48.8490    109.6660    -64.3420      0.0100     78.3900
    326    -49.0280    109.8060    -66.4720      1.5900     78.3900
    327    -47.4830    109.9420    -66.7360      2.1000     78.3900
    328    -46.7600    109.1230    -65.7430      1.5900     78.3900
    329    -47.2180    109.6490    -68.1660      1.5900     78.3900
    330    -47.1690    111.4510    -66.4380      1.5900     78.3900
    331    -47.5090    112.5180    -67.3470      1.7700     78.3900
    332    -48.5910    112.4980    -67.5950      0.0100     78.3900
    333    -46.9420    112.4140    -68.3010      0.0100     78.3900
    334    -47.1920    113.9050    -66.7550      1.7700     78.3900
    335    -47.5480    114.7120    -67.4330      0.0100     78.3900
    336    -47.8640    114.0910    -65.4730      1.5900     78.3900
    337    -47.0190    114.8330    -64.5970      1.7700     78.3900
    338    -47.6130    115.7330    -64.3090      0.0100     78.3900
    339    -46.6410    114.0740    -63.3670      1.6800     78.3900
    340    -46.5920    112.6990    -63.4010      1.7700     78.3900
    341    -46.8820    112.2340    -64.3420      0.0100     78.3900
    342    -46.2530    111.9800    -62.3240      1.7700     78.3900
    343    -46.2480    110.8910    -62.3300      0.0100     78.3900
    344    -46.2600    114.7430    -62.2030      1.7700     78.3900
    345    -46.2460    115.9850    -62.1910      1.5900     78.3900
    346    -45.9210    114.0340    -61.1030      1.6800     78.3900
    347    -45.9130    112.6890    -61.1360      1.7700     78.3900
    348    -45.6170    112.0140    -60.0280      1.6800     78.3900
    349    -45.3670    112.5160    -59.1980      0.0100     78.3900
    350    -45.6070    111.0140    -60.0070      0.0100     78.3900
    351    -45.8060    115.2710    -65.4000      1.7700     78.3900
    352    -44.8860    115.3200    -64.7840      0.0100     78.3900
    353    -46.0380    116.5350    -65.9960      1.5900     78.3900
    354    -45.3000    116.7000    -66.5960      0.0100     78.3900
    355    -45.7150    114.1630    -66.4480      1.7700     78.3900
    356    -45.3330    113.2270    -65.9780      0.0100     78.3900
    357    -45.0230    114.5210    -67.6650      1.5900     78.3900
    358    -43.5480    114.0240    -67.8970      2.1000     78.3900
    359    -43.4070    112.6400    -67.4070      1.5900     78.3900
    360    -43.1270    114.2840    -69.2930      1.5900     78.3900
    361    -42.7370    114.9620    -66.9320      1.5900     78.3900
    362    -42.5720    116.3560    -67.2790      1.7700     78.3900
    363    -43.5540    116.8630    -67.4100      0.0100     78.3900
    364    -42.0030    116.4630    -68.2310      0.0100     78.3900
    365    -41.7830    117.0890    -66.1940      1.7700     78.3900
    366    -41.5870    118.1410    -66.4880      0.0100     78.3900
    367    -42.5630    117.1230    -64.9630      1.5900     78.3900
    368    -41.6830    116.9600    -63.8580      1.7700     78.3900
    369    -41.8410    117.8340    -63.1880      0.0100     78.3900
    370    -41.9780    115.7280    -63.1080      1.6800     78.3900
    371    -41.6200    115.4690    -61.8110      1.7700     78.3900
    372    -40.0070    116.4120    -58.8970      1.6800     78.3900
    373    -39.6050    117.2900    -59.1450      0.0100     78.3900
    374    -39.8550    116.0420    -57.9760      0.0100     78.3900
    375    -40.9210    116.2900    -61.0060      1.6800     78.3900
    376    -40.7130    115.7640    -59.8030      1.7700     78.3900
    377    -41.2050    114.5430    -59.4260      1.6800     78.3900
    378    -40.9860    114.2070    -58.5000      0.0100     78.3900
    379    -41.9370    113.6770    -60.2290      1.7700     78.3900
    380    -42.3380    112.5940    -59.7960      1.5900     78.3900
    381    -42.1260    114.2140    -61.5310      1.7700     78.3900
    382    -42.7650    113.6770    -62.6440      1.6800     78.3900
    383    -42.6450    114.6100    -63.5580      1.7700     78.3900
    384    -43.0230    114.5500    -64.5800      0.0100     78.3900
    385    -40.2590    116.9790    -64.3900      1.7700     78.3900
    386    -39.5880    116.3150    -63.8060      0.0100     78.3900
    387    -39.7590    118.3070    -64.3790      1.5900     78.3900
    388    -38.9350    118.3400    -64.8950      0.0100     78.3900
    389    -40.4510    116.4380    -65.8020      1.7700     78.3900
    390    -40.5840    115.3310    -65.7720      0.0100     78.3900
    391    -39.4110    116.8020    -66.7290      1.5900     78.3900
    392    -38.5850    116.3380    -66.4990      0.0100     78.3900

     ----------------------------
     INPUT FOR TESSERA DEFINITION
     ----------------------------
     NTSALL  =        60     MTHALL  =         4
     MTHAUT  =         0     AUTFRE  =    2.0000
     NTSFRZ  =        60     KEEPSM  =         0
     AREAKP  =   10.0000     BONDRY  =    1.0000
     AREATL  =    0.0100

     SPHERE     INITS       METHOD
          1        60       FIXPVA
          2        60       FIXPVA
          3        60       FIXPVA
          4        60       FIXPVA
          5        60       FIXPVA
          6        60       FIXPVA
          7        60       FIXPVA
          8        60       FIXPVA
          9        60       FIXPVA
         10        60       FIXPVA
         11        60       FIXPVA
         12        60       FIXPVA
         13        60       FIXPVA
         14        60       FIXPVA
         15        60       FIXPVA
         16        60       FIXPVA
         17        60       FIXPVA
         18        60       FIXPVA
         19        60       FIXPVA
         20        60       FIXPVA
         21        60       FIXPVA
         22        60       FIXPVA
         23        60       FIXPVA
         24        60       FIXPVA
         25        60       FIXPVA
         26        60       FIXPVA
         27        60       FIXPVA
         28        60       FIXPVA
         29        60       FIXPVA
         30        60       FIXPVA
         31        60       FIXPVA
         32        60       FIXPVA
         33        60       FIXPVA
         34        60       FIXPVA
         35        60       FIXPVA
         36        60       FIXPVA
         37        60       FIXPVA
         38        60       FIXPVA
         39        60       FIXPVA
         40        60       FIXPVA
         41        60       FIXPVA
         42        60       FIXPVA
         43        60       FIXPVA
         44        60       FIXPVA
         45        60       FIXPVA
         46        60       FIXPVA
         47        60       FIXPVA
         48        60       FIXPVA
         49        60       FIXPVA
         50        60       FIXPVA
         51        60       FIXPVA
         52        60       FIXPVA
         53        60       FIXPVA
         54        60       FIXPVA
         55        60       FIXPVA
         56        60       FIXPVA
         57        60       FIXPVA
         58        60       FIXPVA
         59        60       FIXPVA
         60        60       FIXPVA
         61        60       FIXPVA
         62        60       FIXPVA
         63        60       FIXPVA
         64        60       FIXPVA
         65        60       FIXPVA
         66        60       FIXPVA
         67        60       FIXPVA
         68        60       FIXPVA
         69        60       FIXPVA
         70        60       FIXPVA
         71        60       FIXPVA
         72        60       FIXPVA
         73        60       FIXPVA
         74        60       FIXPVA
         75        60       FIXPVA
         76        60       FIXPVA
         77        60       FIXPVA
         78        60       FIXPVA
         79        60       FIXPVA
         80        60       FIXPVA
         81        60       FIXPVA
         82        60       FIXPVA
         83        60       FIXPVA
         84        60       FIXPVA
         85        60       FIXPVA
         86        60       FIXPVA
         87        60       FIXPVA
         88        60       FIXPVA
         89        60       FIXPVA
         90        60       FIXPVA
         91        60       FIXPVA
         92        60       FIXPVA
         93        60       FIXPVA
         94        60       FIXPVA
         95        60       FIXPVA
         96        60       FIXPVA
         97        60       FIXPVA
         98        60       FIXPVA
         99        60       FIXPVA
        100        60       FIXPVA
        101        60       FIXPVA
        102        60       FIXPVA
        103        60       FIXPVA
        104        60       FIXPVA
        105        60       FIXPVA
        106        60       FIXPVA
        107        60       FIXPVA
        108        60       FIXPVA
        109        60       FIXPVA
        110        60       FIXPVA
        111        60       FIXPVA
        112        60       FIXPVA
        113        60       FIXPVA
        114        60       FIXPVA
        115        60       FIXPVA
        116        60       FIXPVA
        117        60       FIXPVA
        118        60       FIXPVA
        119        60       FIXPVA
        120        60       FIXPVA
        121        60       FIXPVA
        122        60       FIXPVA
        123        60       FIXPVA
        124        60       FIXPVA
        125        60       FIXPVA
        126        60       FIXPVA
        127        60       FIXPVA
        128        60       FIXPVA
        129        60       FIXPVA
        130        60       FIXPVA
        131        60       FIXPVA
        132        60       FIXPVA
        133        60       FIXPVA
        134        60       FIXPVA
        135        60       FIXPVA
        136        60       FIXPVA
        137        60       FIXPVA
        138        60       FIXPVA
        139        60       FIXPVA
        140        60       FIXPVA
        141        60       FIXPVA
        142        60       FIXPVA
        143        60       FIXPVA
        144        60       FIXPVA
        145        60       FIXPVA
        146        60       FIXPVA
        147        60       FIXPVA
        148        60       FIXPVA
        149        60       FIXPVA
        150        60       FIXPVA
        151        60       FIXPVA
        152        60       FIXPVA
        153        60       FIXPVA
        154        60       FIXPVA
        155        60       FIXPVA
        156        60       FIXPVA
        157        60       FIXPVA
        158        60       FIXPVA
        159        60       FIXPVA
        160        60       FIXPVA
        161        60       FIXPVA
        162        60       FIXPVA
        163        60       FIXPVA
        164        60       FIXPVA
        165        60       FIXPVA
        166        60       FIXPVA
        167        60       FIXPVA
        168        60       FIXPVA
        169        60       FIXPVA
        170        60       FIXPVA
        171        60       FIXPVA
        172        60       FIXPVA
        173        60       FIXPVA
        174        60       FIXPVA
        175        60       FIXPVA
        176        60       FIXPVA
        177        60       FIXPVA
        178        60       FIXPVA
        179        60       FIXPVA
        180        60       FIXPVA
        181        60       FIXPVA
        182        60       FIXPVA
        183        60       FIXPVA
        184        60       FIXPVA
        185        60       FIXPVA
        186        60       FIXPVA
        187        60       FIXPVA
        188        60       FIXPVA
        189        60       FIXPVA
        190        60       FIXPVA
        191        60       FIXPVA
        192        60       FIXPVA
        193        60       FIXPVA
        194        60       FIXPVA
        195        60       FIXPVA
        196        60       FIXPVA
        197        60       FIXPVA
        198        60       FIXPVA
        199        60       FIXPVA
        200        60       FIXPVA
        201        60       FIXPVA
        202        60       FIXPVA
        203        60       FIXPVA
        204        60       FIXPVA
        205        60       FIXPVA
        206        60       FIXPVA
        207        60       FIXPVA
        208        60       FIXPVA
        209        60       FIXPVA
        210        60       FIXPVA
        211        60       FIXPVA
        212        60       FIXPVA
        213        60       FIXPVA
        214        60       FIXPVA
        215        60       FIXPVA
        216        60       FIXPVA
        217        60       FIXPVA
        218        60       FIXPVA
        219        60       FIXPVA
        220        60       FIXPVA
        221        60       FIXPVA
        222        60       FIXPVA
        223        60       FIXPVA
        224        60       FIXPVA
        225        60       FIXPVA
        226        60       FIXPVA
        227        60       FIXPVA
        228        60       FIXPVA
        229        60       FIXPVA
        230        60       FIXPVA
        231        60       FIXPVA
        232        60       FIXPVA
        233        60       FIXPVA
        234        60       FIXPVA
        235        60       FIXPVA
        236        60       FIXPVA
        237        60       FIXPVA
        238        60       FIXPVA
        239        60       FIXPVA
        240        60       FIXPVA
        241        60       FIXPVA
        242        60       FIXPVA
        243        60       FIXPVA
        244        60       FIXPVA
        245        60       FIXPVA
        246        60       FIXPVA
        247        60       FIXPVA
        248        60       FIXPVA
        249        60       FIXPVA
        250        60       FIXPVA
        251        60       FIXPVA
        252        60       FIXPVA
        253        60       FIXPVA
        254        60       FIXPVA
        255        60       FIXPVA
        256        60       FIXPVA
        257        60       FIXPVA
        258        60       FIXPVA
        259        60       FIXPVA
        260        60       FIXPVA
        261        60       FIXPVA
        262        60       FIXPVA
        263        60       FIXPVA
        264        60       FIXPVA
        265        60       FIXPVA
        266        60       FIXPVA
        267        60       FIXPVA
        268        60       FIXPVA
        269        60       FIXPVA
        270        60       FIXPVA
        271        60       FIXPVA
        272        60       FIXPVA
        273        60       FIXPVA
        274        60       FIXPVA
        275        60       FIXPVA
        276        60       FIXPVA
        277        60       FIXPVA
        278        60       FIXPVA
        279        60       FIXPVA
        280        60       FIXPVA
        281        60       FIXPVA
        282        60       FIXPVA
        283        60       FIXPVA
        284        60       FIXPVA
        285        60       FIXPVA
        286        60       FIXPVA
        287        60       FIXPVA
        288        60       FIXPVA
        289        60       FIXPVA
        290        60       FIXPVA
        291        60       FIXPVA
        292        60       FIXPVA
        293        60       FIXPVA
        294        60       FIXPVA
        295        60       FIXPVA
        296        60       FIXPVA
        297        60       FIXPVA
        298        60       FIXPVA
        299        60       FIXPVA
        300        60       FIXPVA
        301        60       FIXPVA
        302        60       FIXPVA
        303        60       FIXPVA
        304        60       FIXPVA
        305        60       FIXPVA
        306        60       FIXPVA
        307        60       FIXPVA
        308        60       FIXPVA
        309        60       FIXPVA
        310        60       FIXPVA
        311        60       FIXPVA
        312        60       FIXPVA
        313        60       FIXPVA
        314        60       FIXPVA
        315        60       FIXPVA
        316        60       FIXPVA
        317        60       FIXPVA
        318        60       FIXPVA
        319        60       FIXPVA
        320        60       FIXPVA
        321        60       FIXPVA
        322        60       FIXPVA
        323        60       FIXPVA
        324        60       FIXPVA
        325        60       FIXPVA
        326        60       FIXPVA
        327        60       FIXPVA
        328        60       FIXPVA
        329        60       FIXPVA
        330        60       FIXPVA
        331        60       FIXPVA
        332        60       FIXPVA
        333        60       FIXPVA
        334        60       FIXPVA
        335        60       FIXPVA
        336        60       FIXPVA
        337        60       FIXPVA
        338        60       FIXPVA
        339        60       FIXPVA
        340        60       FIXPVA
        341        60       FIXPVA
        342        60       FIXPVA
        343        60       FIXPVA
        344        60       FIXPVA
        345        60       FIXPVA
        346        60       FIXPVA
        347        60       FIXPVA
        348        60       FIXPVA
        349        60       FIXPVA
        350        60       FIXPVA
        351        60       FIXPVA
        352        60       FIXPVA
        353        60       FIXPVA
        354        60       FIXPVA
        355        60       FIXPVA
        356        60       FIXPVA
        357        60       FIXPVA
        358        60       FIXPVA
        359        60       FIXPVA
        360        60       FIXPVA
        361        60       FIXPVA
        362        60       FIXPVA
        363        60       FIXPVA
        364        60       FIXPVA
        365        60       FIXPVA
        366        60       FIXPVA
        367        60       FIXPVA
        368        60       FIXPVA
        369        60       FIXPVA
        370        60       FIXPVA
        371        60       FIXPVA
        372        60       FIXPVA
        373        60       FIXPVA
        374        60       FIXPVA
        375        60       FIXPVA
        376        60       FIXPVA
        377        60       FIXPVA
        378        60       FIXPVA
        379        60       FIXPVA
        380        60       FIXPVA
        381        60       FIXPVA
        382        60       FIXPVA
        383        60       FIXPVA
        384        60       FIXPVA
        385        60       FIXPVA
        386        60       FIXPVA
        387        60       FIXPVA
        388        60       FIXPVA
        389        60       FIXPVA
        390        60       FIXPVA
        391        60       FIXPVA
        392        60       FIXPVA

     ------------------------------
      FIXPVA TESSELLATION FOR PCM
         PEIFENG SU AND HUI LI
     UNIVERSITY OF NEBRASKA-LINCOLN
     ------------------------------


 PCM DIMENSIONS: MXSP=   392, MXTS=     15680, MEMORY=        161115

     INPUT FOR CAVITY DEFINITION 
     ---------------------------
   ATOM               COORDINATES                RADIUS       EPS
      1    -39.9640    111.7780    -50.2590      0.0100     78.3900
      2    -39.9530    112.5150    -50.8970      1.5900     78.3900
      3    -38.9610    113.4500    -50.4500      1.7700     78.3900
      4    -37.9970    112.9190    -50.2870      0.0100     78.3900
      5    -39.2840    113.8830    -49.4780      0.0100     78.3900
      6    -38.7270    114.5990    -51.4380      1.7700     78.3900
      7    -37.9940    115.3300    -51.0300      0.0100     78.3900
      8    -38.1710    114.0840    -52.6880      1.5900     78.3900
      9    -38.7530    114.7930    -53.7770      1.7700     78.3900
     10    -37.9000    115.2140    -54.3580      0.0100     78.3900
     11    -39.5640    113.9190    -54.6740      1.6800     78.3900
     12    -40.0180    112.6960    -54.2330      1.7700     78.3900
     13    -39.7450    112.4190    -53.2130      0.0100     78.3900
     14    -40.7140    111.8770    -55.0330      1.7700     78.3900
     15    -41.0500    110.8940    -54.7090      0.0100     78.3900
     16    -39.8980    114.3490    -55.9560      1.7700     78.3900
     17    -39.5240    115.4700    -56.3330      1.5900     78.3900
     18    -40.6010    113.5380    -56.7780      1.6800     78.3900
     19    -40.9930    112.3230    -56.3560      1.7700     78.3900
     20    -41.6370    111.5220    -57.2060      1.6800     78.3900
     21    -41.8750    111.8630    -58.1180      0.0100     78.3900
     22    -41.9720    110.6210    -56.9270      0.0100     78.3900
     23    -39.5590    115.9370    -53.1920      1.7700     78.3900
     24    -40.4330    116.2010    -53.8220      0.0100     78.3900
     25    -38.7450    117.0790    -53.0080      1.5900     78.3900
     26    -39.3250    117.7410    -52.6110      0.0100     78.3900
     27    -39.9950    115.3540    -51.8500      1.7700     78.3900
     28    -40.7910    114.5890    -52.0070      0.0100     78.3900
     29    -40.3330    116.3210    -50.8240      1.5900     78.3900
     30    -41.8260    116.8270    -50.7450      2.1000     78.3900
     31    -42.7160    115.6490    -50.7180      1.5900     78.3900
     32    -41.9120    117.7650    -49.6020      1.5900     78.3900
     33    -42.0350    117.6310    -52.0830      1.5900     78.3900
     34    -41.4210    118.9330    -52.2500      1.7700     78.3900
     35    -40.3140    118.8910    -52.1320      0.0100     78.3900
     36    -41.8140    119.6530    -51.4950      0.0100     78.3900
     37    -41.7120    119.5000    -53.6440      1.7700     78.3900
     38    -41.1610    120.4540    -53.8070      0.0100     78.3900
     39    -41.2620    118.5620    -54.6620      1.5900     78.3900
     40    -42.1800    118.5640    -55.7450      1.7700     78.3900
     41    -41.5930    118.8200    -56.6570      0.0100     78.3900
     42    -42.8110    117.2440    -55.9250      1.6800     78.3900
     43    -43.4400    116.7840    -57.0530      1.7700     78.3900
     44    -44.5520    117.2820    -60.2960      1.6800     78.3900
     45    -44.2480    118.2180    -60.4880      0.0100     78.3900
     46    -45.0660    116.7810    -60.9970      0.0100     78.3900
     47    -43.6010    117.4630    -58.2050      1.6800     78.3900
     48    -44.2640    116.7590    -59.1170      1.7700     78.3900
     49    -44.6880    115.4720    -58.9100      1.6800     78.3900
     50    -45.1620    114.9970    -59.6640      0.0100     78.3900
     51    -44.5120    114.7320    -57.7460      1.7700     78.3900
     52    -44.9190    113.5690    -57.6530      1.5900     78.3900
     53    -43.8450    115.4950    -56.7500      1.7700     78.3900
     54    -43.4980    115.1610    -55.4470      1.6800     78.3900
     55    -42.8880    116.2300    -54.9980      1.7700     78.3900
     56    -42.4720    116.3430    -53.9970      0.0100     78.3900
     57    -43.2010    119.6530    -55.4830      1.7700     78.3900
     58    -44.2020    119.3850    -55.8740      0.0100     78.3900
     59    -42.7830    120.8730    -56.0600      1.5900     78.3900
     60    -43.4140    121.5480    -55.7670      0.0100     78.3900
     61    -43.1980    119.7220    -53.9620      1.7700     78.3900
     62    -43.7310    118.8280    -53.5620      0.0100     78.3900
     63    -43.6620    120.9840    -53.4180      1.5900     78.3900
     64    -44.8740    121.0360    -52.4120      2.1000     78.3900
     65    -45.3180    119.6660    -52.0800      1.5900     78.3900
     66    -44.5260    121.9210    -51.2800      1.5900     78.3900
     67    -46.0440    121.6940    -53.2330      1.5900     78.3900
     68    -45.9610    123.0050    -53.8250      1.7700     78.3900
     69    -44.9190    123.4030    -53.8440      0.0100     78.3900
     70    -46.5750    123.7110    -53.2230      0.0100     78.3900
     71    -46.4990    123.0130    -55.2650      1.7700     78.3900
     72    -46.3240    124.0040    -55.7390      0.0100     78.3900
     73    -45.7990    122.0160    -56.0650      1.5900     78.3900
     74    -46.7190    121.4110    -56.9640      1.7700     78.3900
     75    -46.2940    121.5230    -57.9870      0.0100     78.3900
     76    -46.8930    119.9750    -56.6640      1.6800     78.3900
     77    -47.3170    119.0090    -57.5350      1.7700     78.3900
     78    -48.4180    118.0680    -60.6770      1.6800     78.3900
     79    -48.4150    118.9430    -61.1680      0.0100     78.3900
     80    -48.5270    117.2310    -61.1990      0.0100     78.3900
     81    -47.6800    119.2020    -58.8140      1.6800     78.3900
     82    -48.0190    118.0670    -59.4190      1.7700     78.3900
     83    -47.9620    116.8410    -58.8050      1.6800     78.3900
     84    -48.2850    116.0300    -59.3150      0.0100     78.3900
     85    -47.5940    116.6140    -57.4850      1.7700     78.3900
     86    -47.5700    115.4770    -57.0050      1.5900     78.3900
     87    -47.2640    117.8220    -56.8260      1.7700     78.3900
     88    -46.8590    118.0410    -55.5220      1.6800     78.3900
     89    -46.6640    119.3360    -55.4650      1.7700     78.3900
     90    -46.3290    119.8740    -54.5820      0.0100     78.3900
     91    -48.0190    122.1780    -56.8710      1.7700     78.3900
     92    -48.9000    121.5410    -57.0710      0.0100     78.3900
     93    -48.0240    123.2690    -57.7710      1.5900     78.3900
     94    -48.8290    123.7640    -57.5750      0.0100     78.3900
     95    -47.9890    122.6590    -55.4270      1.7700     78.3900
     96    -48.1820    121.8090    -54.7340      0.0100     78.3900
     97    -48.8190    123.8170    -55.1590      1.5900     78.3900
     98    -50.2690    123.6010    -54.5780      2.1000     78.3900
     99    -50.2420    122.5040    -53.5880      1.5900     78.3900
    100    -50.7930    124.9030    -54.1160      1.5900     78.3900
    101    -51.1080    123.1160    -55.8140      1.5900     78.3900
    102    -51.4330    124.0060    -56.9010      1.7700     78.3900
    103    -50.5240    124.5260    -57.2850      0.0100     78.3900
    104    -52.1560    124.7830    -56.5630      0.0100     78.3900
    105    -52.0700    123.2330    -58.0610      1.7700     78.3900
    106    -52.3060    123.9080    -58.9120      0.0100     78.3900
    107    -51.1300    122.2270    -58.5400      1.5900     78.3900
    108    -51.8390    121.0560    -58.8980      1.7700     78.3900
    109    -51.5770    120.8320    -59.9590      0.0100     78.3900
    110    -51.4520    119.9210    -58.0500      1.6800     78.3900
    111    -51.0820    117.8890    -57.2980      1.7700     78.3900
    112    -50.6030    118.7520    -56.3250      1.6800     78.3900
    113    -50.8480    119.9420    -56.8170      1.7700     78.3900
    114    -50.6150    120.8840    -56.3200      0.0100     78.3900
    115    -51.7140    115.9450    -58.4890      1.6800     78.3900
    116    -52.2120    116.7690    -59.4110      1.7700     78.3900
    117    -52.6820    116.2900    -60.2720      0.0100     78.3900
    118    -52.2000    118.1000    -59.4500      1.6800     78.3900
    119    -51.6200    118.6010    -58.3550      1.7700     78.3900
    120    -51.1180    116.4800    -57.3900      1.7700     78.3900
    121    -50.5990    115.6650    -56.4520      1.6800     78.3900
    122    -50.1510    116.0180    -55.6250      0.0100     78.3900
    123    -50.6650    114.6690    -56.5610      0.0100     78.3900
    124    -53.3150    121.3720    -58.8000      1.7700     78.3900
    125    -53.9220    120.4890    -58.5140      0.0100     78.3900
    126    -53.7760    121.8960    -60.0300      1.5900     78.3900
    127    -54.6630    122.2440    -59.8700      0.0100     78.3900
    128    -53.3380    122.4330    -57.7080      1.7700     78.3900
    129    -53.1640    121.9740    -56.7080      0.0100     78.3900
    130    -54.5000    123.2940    -57.7310      1.5900     78.3900
    131    -55.7920    122.8830    -56.9210      2.1000     78.3900
    132    -55.4170    122.6560    -55.5090      1.5900     78.3900
    133    -56.8480    123.8840    -57.1840      1.5900     78.3900
    134    -56.2360    121.5070    -57.5360      1.5900     78.3900
    135    -56.9190    121.4350    -58.8090      1.7700     78.3900
    136    -56.3350    121.9370    -59.6120      0.0100     78.3900
    137    -57.9080    121.9430    -58.7510      0.0100     78.3900
    138    -57.1580    119.9840    -59.2550      1.7700     78.3900
    139    -57.5810    119.9670    -60.2810      0.0100     78.3900
    140    -55.9050    119.2440    -59.2940      1.5900     78.3900
    141    -56.1310    117.9060    -58.8680      1.7700     78.3900
    142    -55.7840    117.2630    -59.7070      0.0100     78.3900
    143    -55.3560    117.5510    -57.6420      1.6800     78.3900
    144    -54.9650    118.5410    -56.7690      1.7700     78.3900
    145    -55.2500    119.5550    -57.0420      0.0100     78.3900
    146    -54.2470    118.2690    -55.6730      1.7700     78.3900
    147    -53.9070    119.0480    -54.9930      0.0100     78.3900
    148    -55.0440    116.2230    -57.3550      1.7700     78.3900
    149    -55.4280    115.3280    -58.1260      1.5900     78.3900
    150    -54.3130    115.9280    -56.2560      1.6800     78.3900
    151    -53.9130    116.9080    -55.4250      1.7700     78.3900
    152    -53.1670    116.5960    -54.3690      1.6800     78.3900
    153    -52.9420    115.6350    -54.1980      0.0100     78.3900
    154    -52.8980    117.2750    -53.6840      0.0100     78.3900
    155    -57.6300    117.7250    -58.7060      1.7700     78.3900
    156    -57.8850    117.0090    -57.8990      0.0100     78.3900
    157    -58.2060    117.2860    -59.9250      1.5900     78.3900
    158    -59.1660    117.3300    -59.8130      0.0100     78.3900
    159    -58.0640    119.1440    -58.3530      1.7700     78.3900
    160    -57.7540    119.3860    -57.3120      0.0100     78.3900
    161    -59.4480    119.4480    -58.6330      1.5900     78.3900
    162    -60.4790    119.4820    -57.4450      2.1000     78.3900
    163    -59.8760    120.1440    -56.2690      1.5900     78.3900
    164    -61.7690    120.0200    -57.9260      1.5900     78.3900
    165    -60.6520    117.9530    -57.1210      1.5900     78.3900
    166    -61.4250    117.1290    -58.0250      1.7700     78.3900
    167    -61.0080    117.1550    -59.0610      0.0100     78.3900
    168    -62.4820    117.4840    -58.0710      0.0100     78.3900
    169    -61.4440    115.6760    -57.5460      1.7700     78.3900
    170    -62.0640    115.0430    -58.2110      0.0100     78.3900
    171    -60.0920    115.1380    -57.5640      1.5900     78.3900
    172    -59.9240    114.2750    -56.4500      1.7700     78.3900
    173    -59.6220    113.2870    -56.8600      0.0100     78.3900
    174    -58.8650    114.7600    -55.5560      1.6800     78.3900
    175    -58.1770    114.0150    -54.6370      1.7700     78.3900
    176    -57.6480    111.0200    -52.9800      1.6800     78.3900
    177    -58.3490    110.4270    -53.3730      0.0100     78.3900
    178    -57.0540    110.6620    -52.2540      0.0100     78.3900
    179    -58.3700    112.7090    -54.3750      1.6800     78.3900
    180    -57.5700    112.2670    -53.4050      1.7700     78.3900
    181    -56.6350    113.0550    -52.7860      1.6800     78.3900
    182    -56.0770    112.6430    -52.0540      0.0100     78.3900
    183    -56.3980    114.3970    -53.0540      1.7700     78.3900
    184    -55.5290    115.0300    -52.4460      1.5900     78.3900
    185    -57.2710    114.8870    -54.0610      1.7700     78.3900
    186    -57.4020    116.1630    -54.5950      1.6800     78.3900
    187    -58.3650    116.0410    -55.4740      1.7700     78.3900
    188    -58.7660    116.8480    -56.0910      0.0100     78.3900
    189    -61.2630    114.1430    -55.7480      1.7700     78.3900
    190    -61.1530    114.0460    -54.6430      0.0100     78.3900
    191    -61.9720    113.0270    -56.2640      1.5900     78.3900
    192    -62.8880    113.0580    -55.9380      0.0100     78.3900
    193    -61.9250    115.4690    -56.1030      1.7700     78.3900
    194    -61.5120    116.2880    -55.4740      0.0100     78.3900
    195    -63.3620    115.4460    -56.0440      1.5900     78.3900
    196    -63.6620    115.3510    -55.1200      0.0100     78.3900
    197    -50.5330    108.8360    -46.5480      0.0100     78.3900
    198    -51.2180    108.7300    -47.2350      1.5900     78.3900
    199    -51.9170    107.5070    -46.9570      1.7700     78.3900
    200    -52.3270    107.5450    -45.9220      0.0100     78.3900
    201    -51.1980    106.6600    -47.0120      0.0100     78.3900
    202    -53.0700    107.2340    -47.9360      1.7700     78.3900
    203    -53.5160    106.2320    -47.7560      0.0100     78.3900
    204    -54.1300    108.2200    -47.7460      1.5900     78.3900
    205    -54.6610    108.5860    -49.0150      1.7700     78.3900
    206    -55.7590    108.3970    -48.9520      0.0100     78.3900
    207    -54.4340    110.0180    -49.3610      1.6800     78.3900
    208    -53.4690    110.7510    -48.7100      1.7700     78.3900
    209    -52.9030    110.2250    -47.9380      0.0100     78.3900
    210    -53.2550    112.0410    -49.0020      1.7700     78.3900
    211    -52.5020    112.6340    -48.4880      0.0100     78.3900
    212    -55.1860    110.6190    -50.3680      1.7700     78.3900
    213    -56.0370    109.9450    -50.9690      1.5900     78.3900
    214    -55.0000    111.9250    -50.6650      1.6800     78.3900
    215    -54.0620    112.6360    -50.0140      1.7700     78.3900
    216    -53.9020    113.9240    -50.3170      1.6800     78.3900
    217    -54.4470    114.3280    -51.0550      0.0100     78.3900
    218    -53.2280    114.4970    -49.8450      0.0100     78.3900
    219    -54.0680    107.6450    -50.0440      1.7700     78.3900
    220    -53.9600    108.1170    -51.0430      0.0100     78.3900
    221    -54.8640    106.4800    -50.1570      1.5900     78.3900
    222    -54.4060    105.8920    -50.7720      0.0100     78.3900
    223    -52.7080    107.3450    -49.4240      1.7700     78.3900
    224    -52.0420    108.2340    -49.5250      0.0100     78.3900
    225    -52.0880    106.1160    -49.8670      1.5900     78.3900
    226    -51.1080    106.1770    -51.1010      2.1000     78.3900
    227    -50.1750    107.3090    -50.9260      1.5900     78.3900
    228    -50.4970    104.8450    -51.2870      1.5900     78.3900
    229    -52.0470    106.4820    -52.3160      1.5900     78.3900
    230    -52.9560    105.4820    -52.8300      1.7700     78.3900
    231    -53.6080    105.0750    -52.0230      0.0100     78.3900
    232    -52.3900    104.6210    -53.2570      0.0100     78.3900
    233    -53.8480    106.0560    -53.9400      1.7700     78.3900
    234    -54.5930    105.3040    -54.2770      0.0100     78.3900
    235    -54.5930    107.2090    -53.4450      1.5900     78.3900
    236    -54.6880    108.1870    -54.4730      1.7700     78.3900
    237    -55.7720    108.4000    -54.6180      0.0100     78.3900
    238    -53.9940    109.4360    -54.1070      1.6800     78.3900
    239    -54.1710    110.6650    -54.6900      1.7700     78.3900
    240    -55.6560    112.6770    -57.0970      1.6800     78.3900
    241    -56.2320    112.0260    -57.6000      0.0100     78.3900
    242    -55.6180    113.6330    -57.4000      0.0100     78.3900
    243    -55.0040    110.9470    -55.7120      1.6800     78.3900
    244    -54.9470    112.2270    -56.0760      1.7700     78.3900
    245    -54.1510    113.1470    -55.4500      1.6800     78.3900
    246    -54.1780    114.1030    -55.7740      0.0100     78.3900
    247    -53.2950    112.8920    -54.3860      1.7700     78.3900
    248    -52.6030    113.7820    -53.8830      1.5900     78.3900
    249    -53.3190    111.5200    -54.0190      1.7700     78.3900
    250    -52.5950    110.8380    -53.0510      1.6800     78.3900
    251    -53.0250    109.6020    -53.1420      1.7700     78.3900
    252    -52.6810    108.7680    -52.5290      0.0100     78.3900
    253    -54.1190    107.5790    -55.7380      1.7700     78.3900
    254    -53.6250    108.3430    -56.3730      0.0100     78.3900
    255    -55.1240    106.9230    -56.4890      1.5900     78.3900
    256    -54.6660    106.4750    -57.2170      0.0100     78.3900
    257    -53.1040    106.5900    -55.1780      1.7700     78.3900
    258    -52.2130    107.1460    -54.8010      0.0100     78.3900
    259    -52.7820    105.5130    -56.0840      1.5900     78.3900
    260    -51.3150    105.1520    -56.5110      2.1000     78.3900
    261    -50.3540    105.9950    -55.7760      1.5900     78.3900
    262    -51.1260    103.6850    -56.4410      1.5900     78.3900
    263    -51.2670    105.5760    -58.0310      1.5900     78.3900
[...]
   340   11   6.0   2.15    3.8   -0.006121    0.172780    0.161256
   341   11   1.0   0.00    0.0    0.000000    0.310727    0.331374
   342   11   6.0   9.01   15.9   -0.036628   -0.393125   -0.400707
   343   11   1.0   0.00    0.0    0.000000    0.270514    0.272570
   344   11   6.0   0.00    0.0    0.000000    1.056459    1.086966
   345   11   8.0   5.36   11.7    0.094428   -0.792995   -0.773816
   346   11   7.0   0.00    0.0    0.000000   -0.862190   -0.860348
   347   11   6.0   0.52    0.9    0.010246    0.749315    0.763207
   348   11   7.0  11.52   22.6   -0.094414   -0.946074   -1.001276
   349   11   1.0   0.00    0.0    0.000000    0.469828    0.507498
   350   11   1.0   0.00    0.0    0.000000    0.443506    0.440971
   351   11   6.0   0.00    0.0    0.000620    0.146067    0.116822
   352   11   1.0   0.00    0.0    0.000000    0.194215    0.221300
   353   11   8.0  16.80   36.7    0.082507   -0.823673   -0.839722
   354   11   1.0   0.00    0.0    0.000000    0.495534    0.516441
   355   11   6.0   0.94    1.7   -0.013879    0.140091    0.109946
   356   11   1.0   0.00    0.0    0.000000    0.239162    0.242077
   357   11   8.0   4.41    9.6    0.050453   -0.798966   -0.806208
   358   11  15.0  10.64   13.3    0.129651    1.605543    1.662026
   359   11   8.0  14.44   31.6    0.317225   -0.893818   -0.893387
   360   11   8.0  18.29   40.0    0.360891   -0.893848   -0.887335
   361   11   8.0   0.96    2.1    0.019405   -0.969619   -0.783131
   362   12   6.0  12.09   21.3   -0.075381    0.201896   -0.018281
   363   12   1.0   0.00    0.0    0.000000    0.174053    0.175575
   364   12   1.0   0.00    0.0    0.000000    0.233868    0.215913
   365   12   6.0   5.10    9.0   -0.039196    0.091860    0.156429
   366   12   1.0   0.00    0.0    0.000000    0.245191    0.217405
   367   12   8.0   5.27   11.5    0.060275   -0.727144   -0.734581
   368   12   6.0   4.76    8.4   -0.043179    0.418190    0.418093
   369   12   1.0   0.00    0.0    0.000000    0.249853    0.248676
   370   12   7.0   0.04    0.1   -0.000209   -0.796047   -0.806362
   371   12   6.0   1.89    3.3   -0.000615    0.709081    0.714907
   372   12   7.0  16.49   32.3   -0.085838   -0.968118   -1.052847
   373   12   1.0   0.00    0.0    0.000000    0.443053    0.437672
   374   12   1.0   0.00    0.0    0.000000    0.475074    0.526631
   375   12   7.0   7.41   14.5    0.109269   -0.757883   -0.759206
   376   12   6.0   1.89    3.3   -0.001260    0.977453    0.977626
   377   12   7.0   1.94    3.8    0.004617   -0.936247   -1.027875
   378   12   1.0   0.00    0.0    0.000000    0.485338    0.545965
   379   12   6.0   2.19    3.9    0.005682    0.870960    0.873226
   380   12   8.0   8.17   17.9    0.132902   -0.749258   -0.735616
   381   12   6.0   2.10    3.7    0.010135   -0.053967   -0.049500
   382   12   7.0   7.37   14.4    0.118679   -0.587046   -0.594846
   383   12   6.0   4.95    8.7    0.012476    0.268705    0.263440
   384   12   1.0   0.00    0.0    0.000000    0.265791    0.282490
   385   12   6.0   6.70   11.8   -0.052723    0.116861    0.117733
   386   12   1.0   0.00    0.0    0.000000    0.224773    0.223909
   387   12   8.0  22.03   48.1    0.030465   -0.844466   -0.845967
   388   12   1.0   0.00    0.0    0.000000    0.507208    0.506964
   389   12   6.0   4.54    8.0   -0.042017    0.163159    0.146057
   390   12   1.0   0.00    0.0    0.000000    0.223556    0.224975
   391   12   8.0  21.51   47.0   -0.019451   -0.849109   -0.853088
   392   12   1.0   0.00    0.0    0.000000    0.507564    0.506871

 Done with FMO properties.
 CPU     0: STEP CPU TIME=     0.00 TOTAL CPU TIME=      20346.6 (    339.1 MIN)
 TOTAL WALL CLOCK TIME=      47591.4 SECONDS, CPU UTILIZATION IS    42.75%
 CPU     0: STEP CPU TIME=     0.01 TOTAL CPU TIME=      20346.6 (    339.1 MIN)
 TOTAL WALL CLOCK TIME=      47591.4 SECONDS, CPU UTILIZATION IS    42.75%

 Total timing statistics in pairs (CPU,wall) for each rank, sec

    Rank   total     SCF    corr     DFT    CPHF     EFP    solv     ESP    geom
 -------------------------------------------------------------------------------
       1   20346.6   5887.3   7690.6      0.0    0.0   0.0  192.0  6170.8    0.0
       1   47591.5  13101.7  20243.9      0.0    0.0   0.0  564.4 12703.7    0.0
       2   20193.1   5848.5   7633.9      0.0    0.0   0.0  194.3  6106.9    0.0
       2   47591.5  13086.1  20243.1      0.0    0.0   0.0  565.0 12702.8    0.0
       3   20763.1   5913.0   7987.6      0.0    0.0   0.0  195.3  6247.7    0.0
       3   47591.5  13085.9  20243.0      0.0    0.0   0.0  565.1 12703.0    0.0
       4   20717.4   5920.7   8042.1      0.0    0.0   0.0  195.6  6166.8    0.0
       4   47591.5  13086.8  20243.0      0.0    0.0   0.0  564.1 12702.8    0.0
       5   20636.7   5908.7   7884.5      0.0    0.0   0.0  193.5  6242.4    0.0
       5   47591.5  13086.7  20243.0      0.0    0.0   0.0  564.4 12703.2    0.0
       6   20756.8   5900.7   8038.2      0.0    0.0   0.0  192.6  6228.4    0.0
       6   47591.5  13087.3  20243.0      0.0    0.0   0.0  563.5 12703.1    0.0
       7   21278.1   5943.3   8428.3      0.0    0.0   0.0  194.1  6279.8    0.0
       7   47591.5  13087.3  20243.0      0.0    0.0   0.0  563.7 12703.0    0.0
       8   21268.6   5985.8   8255.8      0.0    0.0   0.0  193.2  6420.9    0.0
       8   47591.5  13087.8  20243.0      0.0    0.0   0.0  562.7 12703.0    0.0
       9   21120.9   5954.8   8370.0      0.0    0.0   0.0  190.7  6175.3    0.0
       9   47591.5  13088.0  20243.0      0.0    0.0   0.0  563.3 12702.9    0.0
      10   21090.8   5915.5   8301.4      0.0    0.0   0.0  192.5  6275.2    0.0
      10   47591.5  13087.8  20243.1      0.0    0.0   0.0  563.6 12702.7    0.0
      11   20754.3   5871.4   8112.2      0.0    0.0   0.0  190.5  6173.8    0.0
      11   47591.5  13089.0  20243.1      0.0    0.0   0.0  562.5 12702.6    0.0
      12   20813.3   5901.7   8027.1      0.0    0.0   0.0  191.4  6271.6    0.0
      12   47591.5  13089.1  20242.9      0.0    0.0   0.0  561.9 12702.5    0.0
      13   20244.9   5875.2   7684.6      0.0    0.0   0.0  190.5  6088.6    0.0
      13   47591.5  13089.1  20242.9      0.0    0.0   0.0  562.5 12702.6    0.0
      14   21270.7   5998.9   8445.5      0.0    0.0   0.0  192.1  6228.8    0.0
      14   47591.5  13089.0  20242.9      0.0    0.0   0.0  562.3 12702.4    0.0
      15   21011.0   5978.5   8113.2      0.0    0.0   0.0  191.5  6329.6    0.0
      15   47591.5  13089.1  20242.9      0.0    0.0   0.0  562.1 12702.5    0.0
      16   21171.8   5961.5   8315.7      0.0    0.0   0.0  191.5  6299.1    0.0
      16   47591.5  13089.6  20242.9      0.0    0.0   0.0  561.1 12702.3    0.0
averaged   20839.9   5922.8   8083.2      0.0    0.0   0.0  192.6  6231.6    0.0
averaged   47591.5  13088.8  20243.0      0.0    0.0   0.0  563.3 12702.8    0.0

  FMO  timing statistics in pairs (CPU,wall) for each rank, sec

    Rank  FMOini FMOscf1  FMOdm1 FMOsyn1 FMOscf2  FMOes2 FMOsyn2 FMOscf3 FMOsyn3
 -------------------------------------------------------------------------------
       1    2.6    7913.6    0.4    0.0   12143.6     286.3    0.0    0.0    0.0
       1    6.9   16983.6    4.8    0.1   29986.3     606.3    1.4    0.0    0.0
       2    1.9    7746.5    0.1    0.0   12150.4     294.1    0.0    0.0    0.0
       2    6.9   16983.6    4.8    0.1   29986.8     605.8    1.4    0.0    0.0
       3    2.1    7845.8    0.1    0.0   12612.8     302.1    0.0    0.0    0.0
       3    6.9   16983.6    4.8    0.1   29986.4     606.2    1.4    0.0    0.0
       4    1.9    7769.8    0.1    0.0   12669.8     275.8    0.0    0.0    0.0
       4    6.9   16983.6    4.8    0.1   29986.4     606.3    1.4    0.0    0.0
       5    2.3    7790.7    0.2    0.0   12552.2     291.2    0.0    0.0    0.0
       5    6.9   16983.6    4.8    0.1   29986.5     606.2    1.4    0.0    0.0
       6    2.0    7893.8    0.1    0.0   12577.5     283.4    0.0    0.0    0.0
       6    6.9   16983.6    4.8    0.1   29986.4     606.2    1.4    0.0    0.0
       7    2.1    7900.6    0.2    0.0   13058.6     316.6    0.0    0.0    0.0
       7    6.9   16983.6    4.8    0.1   29986.5     606.2    1.4    0.0    0.0
       8    1.8    7981.1    0.1    0.0   12985.4     300.2    0.0    0.0    0.0
       8    6.9   16983.6    4.8    0.1   29988.2     604.4    1.4    0.0    0.0
       9    2.2    7834.5    0.3    0.0   12968.0     315.8    0.0    0.0    0.0
       9    6.9   16983.6    4.8    0.1   29986.6     606.1    1.4    0.0    0.0
      10    1.8    7857.5    0.1    0.0   12938.5     292.8    0.0    0.0    0.0
      10    6.9   16983.6    4.8    0.1   29987.4     605.3    1.4    0.0    0.0
      11    1.9    7684.7    0.2    0.0   12774.3     293.2    0.0    0.0    0.0
      11    6.9   16983.6    4.8    0.1   29987.5     605.2    1.4    0.0    0.0
      12    1.7    7895.7    0.1    0.0   12606.6     309.1    0.0    0.0    0.0
      12    6.9   16983.6    4.8    0.1   29986.9     605.8    1.4    0.0    0.0
      13    2.1    7721.8    0.2    0.0   12228.1     292.8    0.0    0.0    0.0
      13    6.9   16983.6    4.8    0.1   29986.8     605.9    1.4    0.0    0.0
      14    1.7    7897.8    0.1    0.0   13078.3     292.7    0.0    0.0    0.0
      14    6.9   16983.6    4.8    0.1   29986.0     606.7    1.4    0.0    0.0
      15    1.9    7861.5    0.2    0.0   12861.7     285.7    0.0    0.0    0.0
      15    6.9   16983.6    4.8    0.1   29986.3     606.4    1.4    0.0    0.0
      16    1.7    7834.1    0.1    0.0   13043.9     292.0    0.0    0.0    0.0
      16    6.9   16983.6    4.8    0.1   29986.7     606.0    1.4    0.0    0.0
averaged    2.0    7839.4    0.2    0.0   12703.1     295.2    0.0    0.0    0.0
averaged    6.9   16983.6    4.8    0.1   29986.7     605.9    1.4    0.0    0.0
             62736507  WORDS OF DYNAMIC MEMORY USED
 EXECUTION OF GAMESS TERMINATED NORMALLY Sat Dec  7 20:35:04 2019
 DDI: 263640 bytes (0.3 MB / 0 MWords) used by master data server.

 ----------------------------------------
 CPU timing information for all processes
 ========================================
 0: 19839.259 + 507.376 = 20346.635
 1: 19737.501 + 455.688 = 20193.189
 2: 20282.24 + 481.164 = 20763.188
 3: 20253.443 + 463.984 = 20717.428
 4: 20153.751 + 482.998 = 20636.750
 5: 20286.740 + 470.144 = 20756.884
 6: 20775.629 + 502.561 = 21278.190
 7: 20800.340 + 468.307 = 21268.647
 8: 20617.149 + 503.749 = 21120.899
 9: 20612.271 + 478.546 = 21090.818
 10: 20271.170 + 483.179 = 20754.350
 11: 20347.828 + 465.535 = 20813.364
 12: 19762.159 + 482.833 = 20244.992
 13: 20782.744 + 487.976 = 21270.721
 14: 20549.712 + 461.331 = 21011.43
 15: 20692.839 + 479.40 = 21171.879
 ----------------------------------------
 ddikick.x: exited gracefully.
unset echo
----- accounting info -----
Files used on the master node gollum047.lsa.umich.edu were:
-rw-r--r-- 1 hazwong frank    21017 Dec  7 07:21 /scratch/hazwong/824881/1MIS_1/usrc/1MIS_1_fmo_input.F05
-rw-r--r-- 1 hazwong frank      634 Dec  7 20:35 /scratch/hazwong/824881/1MIS_1/usrc/1MIS_1_fmo_input.F06.001
-rw-r--r-- 1 hazwong frank      634 Dec  7 20:35 /scratch/hazwong/824881/1MIS_1/usrc/1MIS_1_fmo_input.F06.002
-rw-r--r-- 1 hazwong frank      634 Dec  7 20:35 /scratch/hazwong/824881/1MIS_1/usrc/1MIS_1_fmo_input.F06.003
-rw-r--r-- 1 hazwong frank      634 Dec  7 20:35 /scratch/hazwong/824881/1MIS_1/usrc/1MIS_1_fmo_input.F06.004
-rw-r--r-- 1 hazwong frank      634 Dec  7 20:35 /scratch/hazwong/824881/1MIS_1/usrc/1MIS_1_fmo_input.F06.005
-rw-r--r-- 1 hazwong frank      634 Dec  7 20:35 /scratch/hazwong/824881/1MIS_1/usrc/1MIS_1_fmo_input.F06.006
-rw-r--r-- 1 hazwong frank      634 Dec  7 20:35 /scratch/hazwong/824881/1MIS_1/usrc/1MIS_1_fmo_input.F06.007
-rw-r--r-- 1 hazwong frank      634 Dec  7 20:35 /scratch/hazwong/824881/1MIS_1/usrc/1MIS_1_fmo_input.F06.008
-rw-r--r-- 1 hazwong frank      634 Dec  7 20:35 /scratch/hazwong/824881/1MIS_1/usrc/1MIS_1_fmo_input.F06.009
-rw-r--r-- 1 hazwong frank      634 Dec  7 20:35 /scratch/hazwong/824881/1MIS_1/usrc/1MIS_1_fmo_input.F06.010
-rw-r--r-- 1 hazwong frank      634 Dec  7 20:35 /scratch/hazwong/824881/1MIS_1/usrc/1MIS_1_fmo_input.F06.011
-rw-r--r-- 1 hazwong frank      634 Dec  7 20:35 /scratch/hazwong/824881/1MIS_1/usrc/1MIS_1_fmo_input.F06.012
-rw-r--r-- 1 hazwong frank      634 Dec  7 20:35 /scratch/hazwong/824881/1MIS_1/usrc/1MIS_1_fmo_input.F06.013
-rw-r--r-- 1 hazwong frank      634 Dec  7 20:35 /scratch/hazwong/824881/1MIS_1/usrc/1MIS_1_fmo_input.F06.014
-rw-r--r-- 1 hazwong frank      634 Dec  7 20:35 /scratch/hazwong/824881/1MIS_1/usrc/1MIS_1_fmo_input.F06.015
-rw-r--r-- 1 hazwong frank    12735 Dec  7 20:35 /scratch/hazwong/824881/1MIS_1/usrc/1MIS_1_fmo_input.F07
-rw-r--r-- 1 hazwong frank        0 Dec  7 07:21 /scratch/hazwong/824881/1MIS_1/usrc/1MIS_1_fmo_input.F07.001
-rw-r--r-- 1 hazwong frank        0 Dec  7 07:21 /scratch/hazwong/824881/1MIS_1/usrc/1MIS_1_fmo_input.F07.002
-rw-r--r-- 1 hazwong frank        0 Dec  7 07:21 /scratch/hazwong/824881/1MIS_1/usrc/1MIS_1_fmo_input.F07.003
-rw-r--r-- 1 hazwong frank        0 Dec  7 07:21 /scratch/hazwong/824881/1MIS_1/usrc/1MIS_1_fmo_input.F07.004
-rw-r--r-- 1 hazwong frank        0 Dec  7 07:21 /scratch/hazwong/824881/1MIS_1/usrc/1MIS_1_fmo_input.F07.005
-rw-r--r-- 1 hazwong frank        0 Dec  7 07:21 /scratch/hazwong/824881/1MIS_1/usrc/1MIS_1_fmo_input.F07.006
-rw-r--r-- 1 hazwong frank        0 Dec  7 07:21 /scratch/hazwong/824881/1MIS_1/usrc/1MIS_1_fmo_input.F07.007
-rw-r--r-- 1 hazwong frank        0 Dec  7 07:21 /scratch/hazwong/824881/1MIS_1/usrc/1MIS_1_fmo_input.F07.008
-rw-r--r-- 1 hazwong frank        0 Dec  7 07:21 /scratch/hazwong/824881/1MIS_1/usrc/1MIS_1_fmo_input.F07.009
-rw-r--r-- 1 hazwong frank        0 Dec  7 07:21 /scratch/hazwong/824881/1MIS_1/usrc/1MIS_1_fmo_input.F07.010
-rw-r--r-- 1 hazwong frank        0 Dec  7 07:21 /scratch/hazwong/824881/1MIS_1/usrc/1MIS_1_fmo_input.F07.011
-rw-r--r-- 1 hazwong frank        0 Dec  7 07:21 /scratch/hazwong/824881/1MIS_1/usrc/1MIS_1_fmo_input.F07.012
-rw-r--r-- 1 hazwong frank        0 Dec  7 07:21 /scratch/hazwong/824881/1MIS_1/usrc/1MIS_1_fmo_input.F07.013
-rw-r--r-- 1 hazwong frank        0 Dec  7 07:21 /scratch/hazwong/824881/1MIS_1/usrc/1MIS_1_fmo_input.F07.014
-rw-r--r-- 1 hazwong frank        0 Dec  7 07:21 /scratch/hazwong/824881/1MIS_1/usrc/1MIS_1_fmo_input.F07.015
-rw-r--r-- 1 hazwong frank    65440 Dec  7 20:35 /scratch/hazwong/824881/1MIS_1/usrc/1MIS_1_fmo_input.F10.000
-rw-r--r-- 1 hazwong frank        0 Dec  7 07:21 /scratch/hazwong/824881/1MIS_1/usrc/1MIS_1_fmo_input.F26.000
-rw-r--r-- 1 hazwong frank        0 Dec  7 07:21 /scratch/hazwong/824881/1MIS_1/usrc/1MIS_1_fmo_input.F26.001
-rw-r--r-- 1 hazwong frank        0 Dec  7 07:21 /scratch/hazwong/824881/1MIS_1/usrc/1MIS_1_fmo_input.F26.002
-rw-r--r-- 1 hazwong frank        0 Dec  7 07:21 /scratch/hazwong/824881/1MIS_1/usrc/1MIS_1_fmo_input.F26.003
-rw-r--r-- 1 hazwong frank        0 Dec  7 07:21 /scratch/hazwong/824881/1MIS_1/usrc/1MIS_1_fmo_input.F26.004
-rw-r--r-- 1 hazwong frank        0 Dec  7 07:21 /scratch/hazwong/824881/1MIS_1/usrc/1MIS_1_fmo_input.F26.005
-rw-r--r-- 1 hazwong frank        0 Dec  7 07:21 /scratch/hazwong/824881/1MIS_1/usrc/1MIS_1_fmo_input.F26.006
-rw-r--r-- 1 hazwong frank        0 Dec  7 07:21 /scratch/hazwong/824881/1MIS_1/usrc/1MIS_1_fmo_input.F26.007
-rw-r--r-- 1 hazwong frank        0 Dec  7 07:21 /scratch/hazwong/824881/1MIS_1/usrc/1MIS_1_fmo_input.F26.008
-rw-r--r-- 1 hazwong frank        0 Dec  7 07:21 /scratch/hazwong/824881/1MIS_1/usrc/1MIS_1_fmo_input.F26.009
-rw-r--r-- 1 hazwong frank        0 Dec  7 07:21 /scratch/hazwong/824881/1MIS_1/usrc/1MIS_1_fmo_input.F26.010
-rw-r--r-- 1 hazwong frank        0 Dec  7 07:21 /scratch/hazwong/824881/1MIS_1/usrc/1MIS_1_fmo_input.F26.011
-rw-r--r-- 1 hazwong frank        0 Dec  7 07:21 /scratch/hazwong/824881/1MIS_1/usrc/1MIS_1_fmo_input.F26.012
-rw-r--r-- 1 hazwong frank        0 Dec  7 07:21 /scratch/hazwong/824881/1MIS_1/usrc/1MIS_1_fmo_input.F26.013
-rw-r--r-- 1 hazwong frank        0 Dec  7 07:21 /scratch/hazwong/824881/1MIS_1/usrc/1MIS_1_fmo_input.F26.014
-rw-r--r-- 1 hazwong frank        0 Dec  7 07:21 /scratch/hazwong/824881/1MIS_1/usrc/1MIS_1_fmo_input.F26.015
-rw-r--r-- 1 hazwong frank        0 Dec  7 07:21 /scratch/hazwong/824881/1MIS_1/usrc/1MIS_1_fmo_input.F27.000
-rw-r--r-- 1 hazwong frank        0 Dec  7 07:21 /scratch/hazwong/824881/1MIS_1/usrc/1MIS_1_fmo_input.F27.001
-rw-r--r-- 1 hazwong frank        0 Dec  7 07:21 /scratch/hazwong/824881/1MIS_1/usrc/1MIS_1_fmo_input.F27.002
-rw-r--r-- 1 hazwong frank        0 Dec  7 07:21 /scratch/hazwong/824881/1MIS_1/usrc/1MIS_1_fmo_input.F27.003
-rw-r--r-- 1 hazwong frank        0 Dec  7 07:21 /scratch/hazwong/824881/1MIS_1/usrc/1MIS_1_fmo_input.F27.004
-rw-r--r-- 1 hazwong frank        0 Dec  7 07:21 /scratch/hazwong/824881/1MIS_1/usrc/1MIS_1_fmo_input.F27.005
-rw-r--r-- 1 hazwong frank        0 Dec  7 07:21 /scratch/hazwong/824881/1MIS_1/usrc/1MIS_1_fmo_input.F27.006
-rw-r--r-- 1 hazwong frank        0 Dec  7 07:21 /scratch/hazwong/824881/1MIS_1/usrc/1MIS_1_fmo_input.F27.007
-rw-r--r-- 1 hazwong frank        0 Dec  7 07:21 /scratch/hazwong/824881/1MIS_1/usrc/1MIS_1_fmo_input.F27.008
-rw-r--r-- 1 hazwong frank        0 Dec  7 07:21 /scratch/hazwong/824881/1MIS_1/usrc/1MIS_1_fmo_input.F27.009
-rw-r--r-- 1 hazwong frank        0 Dec  7 07:21 /scratch/hazwong/824881/1MIS_1/usrc/1MIS_1_fmo_input.F27.010
-rw-r--r-- 1 hazwong frank        0 Dec  7 07:21 /scratch/hazwong/824881/1MIS_1/usrc/1MIS_1_fmo_input.F27.011
-rw-r--r-- 1 hazwong frank        0 Dec  7 07:21 /scratch/hazwong/824881/1MIS_1/usrc/1MIS_1_fmo_input.F27.012
-rw-r--r-- 1 hazwong frank        0 Dec  7 07:21 /scratch/hazwong/824881/1MIS_1/usrc/1MIS_1_fmo_input.F27.013
-rw-r--r-- 1 hazwong frank        0 Dec  7 07:21 /scratch/hazwong/824881/1MIS_1/usrc/1MIS_1_fmo_input.F27.014
-rw-r--r-- 1 hazwong frank        0 Dec  7 07:21 /scratch/hazwong/824881/1MIS_1/usrc/1MIS_1_fmo_input.F27.015
-rw-r--r-- 1 hazwong frank 25116672 Dec  7 12:05 /scratch/hazwong/824881/1MIS_1/usrc/1MIS_1_fmo_input.F40.000
-rw-r--r-- 1 hazwong frank 25116672 Dec  7 12:05 /scratch/hazwong/824881/1MIS_1/usrc/1MIS_1_fmo_input.F40.001
-rw-r--r-- 1 hazwong frank 25116672 Dec  7 12:05 /scratch/hazwong/824881/1MIS_1/usrc/1MIS_1_fmo_input.F40.002
-rw-r--r-- 1 hazwong frank 25116672 Dec  7 12:05 /scratch/hazwong/824881/1MIS_1/usrc/1MIS_1_fmo_input.F40.003
-rw-r--r-- 1 hazwong frank 25116672 Dec  7 12:05 /scratch/hazwong/824881/1MIS_1/usrc/1MIS_1_fmo_input.F40.004
-rw-r--r-- 1 hazwong frank 25116672 Dec  7 12:05 /scratch/hazwong/824881/1MIS_1/usrc/1MIS_1_fmo_input.F40.005
-rw-r--r-- 1 hazwong frank 25116672 Dec  7 12:05 /scratch/hazwong/824881/1MIS_1/usrc/1MIS_1_fmo_input.F40.006
-rw-r--r-- 1 hazwong frank 25116672 Dec  7 12:05 /scratch/hazwong/824881/1MIS_1/usrc/1MIS_1_fmo_input.F40.007
-rw-r--r-- 1 hazwong frank 25116672 Dec  7 12:05 /scratch/hazwong/824881/1MIS_1/usrc/1MIS_1_fmo_input.F40.008
-rw-r--r-- 1 hazwong frank 25116672 Dec  7 12:05 /scratch/hazwong/824881/1MIS_1/usrc/1MIS_1_fmo_input.F40.009
-rw-r--r-- 1 hazwong frank 25116672 Dec  7 12:05 /scratch/hazwong/824881/1MIS_1/usrc/1MIS_1_fmo_input.F40.010
-rw-r--r-- 1 hazwong frank 25116672 Dec  7 12:05 /scratch/hazwong/824881/1MIS_1/usrc/1MIS_1_fmo_input.F40.011
-rw-r--r-- 1 hazwong frank 25116672 Dec  7 12:05 /scratch/hazwong/824881/1MIS_1/usrc/1MIS_1_fmo_input.F40.012
-rw-r--r-- 1 hazwong frank 25116672 Dec  7 12:05 /scratch/hazwong/824881/1MIS_1/usrc/1MIS_1_fmo_input.F40.013
-rw-r--r-- 1 hazwong frank 25116672 Dec  7 12:05 /scratch/hazwong/824881/1MIS_1/usrc/1MIS_1_fmo_input.F40.014
-rw-r--r-- 1 hazwong frank 25116672 Dec  7 12:05 /scratch/hazwong/824881/1MIS_1/usrc/1MIS_1_fmo_input.F40.015
ls: No match.
ls: No match.
ls: No match.
Sat Dec  7 20:35:07 EST 2019
0.187u 0.100s 13:13:15.43 0.0%	0+0k 2808+160io 29pf+0w
