‘1MIS_6_fmo_input.inp’ -> ‘/scratch/hazwong/824319/./1MIS_6_fmo_input.inp’
‘rungms’ -> ‘/scratch/hazwong/824319/./rungms’
‘gms-files.csh’ -> ‘/scratch/hazwong/824319/./gms-files.csh’
----- GAMESS execution script 'rungms' -----
This job is running on host gollum050.lsa.umich.edu
under operating system Linux at Sat Dec 7 07:49:50 EST 2019
Available scratch disk space (Kbyte units) at beginning of the job is
Filesystem     1K-blocks  Used Available Use% Mounted on
/dev/sda4      426933580 33332 426900248   1% /scratch
GAMESS temporary binary files will be written to /scratch/hazwong/824319/1MIS_6/usrc
GAMESS supplementary output files will be written to /scratch/hazwong/824319/1MIS_6/src
Copying input file 1MIS_6_fmo_input.inp to your run's scratch directory...
cp 1MIS_6_fmo_input.inp /scratch/hazwong/824319/1MIS_6/usrc/1MIS_6_fmo_input.F05
unset echo
This is a GDDI run, keeping various output files on local disks
setenv OUTPUT /scratch/hazwong/824319/1MIS_6/usrc/1MIS_6_fmo_input.F06
setenv PUNCH /scratch/hazwong/824319/1MIS_6/usrc/1MIS_6_fmo_input.F07
unset echo
 
Assuming a single but multicore node.
 
/export/apps/CentOS7/gamess/src/build//ddikick.x /export/apps/CentOS7/gamess/src/build//gamess.R3.x 1MIS_6_fmo_input -ddi 1 16 gollum050.lsa.umich.edu:cpus=16 -scr /scratch/hazwong/824319/1MIS_6/usrc

 Distributed Data Interface kickoff program.
 Initiating 16 compute processes on 1 nodes to run the following command:
 /export/apps/CentOS7/gamess/src/build//gamess.R3.x 1MIS_6_fmo_input 

          ******************************************************
          *         GAMESS VERSION = 30 SEP 2018 (R3)         *
          *             FROM IOWA STATE UNIVERSITY             *
          * M.W.SCHMIDT, K.K.BALDRIDGE, J.A.BOATZ, S.T.ELBERT, *
          *   M.S.GORDON, J.H.JENSEN, S.KOSEKI, N.MATSUNAGA,   *
          *          K.A.NGUYEN, S.J.SU, T.L.WINDUS,           *
          *       TOGETHER WITH M.DUPUIS, J.A.MONTGOMERY       *
          *         J.COMPUT.CHEM.  14, 1347-1363(1993)        *
          **************** 64 BIT LINUX VERSION ****************

  SINCE 1993, STUDENTS AND POSTDOCS WORKING AT IOWA STATE UNIVERSITY
  AND ALSO IN THEIR VARIOUS JOBS AFTER LEAVING ISU HAVE MADE IMPORTANT
  CONTRIBUTIONS TO THE CODE:
     IVANA ADAMOVIC, CHRISTINE AIKENS, YURI ALEXEEV, POOJA ARORA,
     ANDREY ASADCHEV, ROB BELL, PRADIPTA BANDYOPADHYAY, JONATHAN BENTZ,
     BRETT BODE, KURT BRORSEN, CALEB CARLIN, GALINA CHABAN, WEI CHEN,
     CHEOL HO CHOI, PAUL DAY, ALBERT DEFUSCO, NUWAN DESILVA, TIM DUDLEY,
     DMITRI FEDOROV, ALEX FINDLATER, GRAHAM FLETCHER, MARK FREITAG,
     KURT GLAESEMANN, ANASTASIA GUNINA,
     DAN KEMP, GRANT MERRILL, NORIYUKI MINEZAWA, JONATHAN MULLIN,
     TAKESHI NAGATA, SEAN NEDD, HEATHER NETZLOFF, BOSILJKA NJEGIC, RYAN OLSON,
     MIKE PAK, BUU PHAM,
     SPENCER PRUITT, LUKE ROSKOP, JIM SHOEMAKER, LYUDMILA SLIPCHENKO,
     TONY SMITH, SAROM SOK LEANG, JIE SONG, TETSUYA TAKETSUGU, SIMON WEBB,
     PENG XU, SOOHAENG YOO, FEDERICO ZAHARIEV

  ADDITIONAL CODE HAS BEEN PROVIDED BY COLLABORATORS IN OTHER GROUPS:
     IOWA STATE UNIVERSITY:
          JOE IVANIC, AARON WEST, LAIMUTIS BYTAUTAS, KLAUS RUEDENBERG
     UNIVERSITY OF TOKYO: KIMIHIKO HIRAO, TAKAHITO NAKAJIMA,
          TAKAO TSUNEDA, MUNEAKI KAMIYA, SUSUMU YANAGISAWA,
          KIYOSHI YAGI, MAHITO CHIBA, SEIKEN TOKURA, NAOAKI KAWAKAMI
     UNIVERSITY OF AARHUS: FRANK JENSEN
     UNIVERSITY OF IOWA: VISVALDAS KAIRYS, HUI LI
     NATIONAL INST. OF STANDARDS AND TECHNOLOGY: WALT STEVENS, DAVID GARMER
     UNIVERSITY OF PISA: BENEDETTA MENNUCCI, JACOPO TOMASI
     UNIVERSITY OF MEMPHIS: HENRY KURTZ, PRAKASHAN KORAMBATH
     UNIVERSITY OF ALBERTA: TOBY ZENG, MARIUSZ KLOBUKOWSKI
     UNIVERSITY OF NEW ENGLAND: MARK SPACKMAN
     MIE UNIVERSITY: HIROAKI UMEDA
     NAT. INST. OF ADVANCED INDUSTRIAL SCIENCE AND TECHNOLOGY: KAZUO KITAURA
     MICHIGAN STATE UNIVERSITY:
          KAROL KOWALSKI, MARTA WLOCH, JEFFREY GOUR, JESSE LUTZ,
          WEI LI, JUN SHEN, J. EMILIANO DEUSTUA, PIOTR PIECUCH
     UNIVERSITY OF MINNESOTA:
          YINAN SHU
     UNIVERSITY OF SILESIA: MONIKA MUSIAL, STANISLAW KUCHARSKI
     FACULTES UNIVERSITAIRES NOTRE-DAME DE LA PAIX:
          OLIVIER QUINET, BENOIT CHAMPAGNE
     UNIVERSITY OF CALIFORNIA - SANTA BARBARA: BERNARD KIRTMAN
     INSTITUTE FOR MOLECULAR SCIENCE:
          KAZUYA ISHIMURA, MICHIO KATOUDA, AND SHIGERU NAGASE
     UNIVERSITY OF NOTRE DAME: ANNA POMOGAEVA, DAN CHIPMAN
     KYUSHU UNIVERSITY:
          HARUYUKI NAKANO,
          FENG LONG GU, JACEK KORCHOWIEC, MARCIN MAKOWSKI, AND YURIKO AOKI,
          HIROTOSHI MORI AND EISAKU MIYOSHI
     PENNSYLVANIA STATE UNIVERSITY:
          TZVETELIN IORDANOV, CHET SWALINA, JONATHAN SKONE,
          SHARON HAMMES-SCHIFFER
     WASEDA UNIVERSITY:
          MASATO KOBAYASHI, TOMOKO AKAMA, TSUGUKI TOUMA,
          TAKESHI YOSHIKAWA, YASUHIRO IKABATA, JUNJI SEINO,
          YUYA NAKAJIMA, HIROMI NAKAI
     NANJING UNIVERSITY: SHUHUA LI
     UNIVERSITY OF NEBRASKA:
          PEIFENG SU, DEJUN SI, NANDUN THELLAMUREGE, YALI WANG, HUI LI
     UNIVERSITY OF ZURICH: ROBERTO PEVERATI, KIM BALDRIDGE
     N. COPERNICUS UNIVERSITY AND JACKSON STATE UNIVERSITY:
          MARIA BARYSZ
     UNIVERSITY OF COPENHAGEN: Jimmy Kromann, CASPER STEINMANN
     TOKYO INSTITUTE OF TECHNOLOGY: HIROYA NAKATA
     NAGOYA UNIVERSITY: YOSHIO NISHIMOTO, STEPHAN IRLE
     MOSCOW STATE UNIVERSITY: VLADIMIR MIRONOV


 PARALLEL VERSION RUNNING ON       16 PROCESSORS IN        1 NODES.

 EXECUTION OF GAMESS BEGUN Sat Dec  7 07:49:50 2019

            ECHO OF THE FIRST FEW INPUT CARDS -
 INPUT CARD>!*** FMO 5.3 (Gamess) INPUT generated by Facio 22.1.1.32 ***                    
 INPUT CARD> $CONTRL RUNTYP=ENERGY NPRINT=-5 ISPHER=1 MAXIT=200 $END                        
 INPUT CARD> $SYSTEM MWORDS=63 MEMDDI=63 $END                                               
 INPUT CARD> $GDDI NGROUP=1 $END                                                            
 INPUT CARD> $SCF DIRSCF=.TRUE. NPUNCH=0 $END                                               
 INPUT CARD>!*** NumCPU : 2  MemPerNode : 512MB                                             
 INPUT CARD> $PCM SOLVNT=WATER IEF=-10 ICOMP=2 ICAV=1 IDISP=1 IFMO=-1 $END                  
 INPUT CARD> $PCMCAV RADII=SUAHF $END                                                       
 INPUT CARD> $TESCAV NTSALL=60 $END                                                         
 INPUT CARD> $FMOPRP                                                                        
 INPUT CARD>    NAODIR=200                                                                  
 INPUT CARD>    NGRFMO(1)=1, 1, 0, 0, 0,   0, 0, 0, 0, 0                                    
 INPUT CARD>    IPIEDA=1                                                                    
 INPUT CARD>    NPRINT=9                                                                    
 INPUT CARD> $END                                                                           
 INPUT CARD> $FMO                                                                           
 INPUT CARD>      SCFTYP(1)=RHF                                                             
 INPUT CARD>      MODGRD=10                                                                 
 INPUT CARD>      MODMUL=0                                                                  
 INPUT CARD>      MAXCAO=5                                                                  
 INPUT CARD>      MAXBND=14                                                                 
 INPUT CARD>      NLAYER=1                                                                  
 INPUT CARD>      MPLEVL(1)=2                                                               
 INPUT CARD>      NFRAG=12                                                                  
 INPUT CARD>      ICHARG(1)=-1, -1, -1, -1, -1, 0, -1, -1, -1, -1, -1, 0                    
 INPUT CARD>      FRGNAM(1)=F1, F2, F3, F4, F5, F6, F7, F8, F9, F10, F11, F12               
 INPUT CARD>      indat(1)=0                                                                
 INPUT CARD>               1   -33   0                                                      
 INPUT CARD>               34   -67   0                                                     
 INPUT CARD>               68   -101   0                                                    
 INPUT CARD>               102   -134   0                                                   
 INPUT CARD>               135   -165   0                                                   
 INPUT CARD>               166   -198   0                                                   
 INPUT CARD>               199   -229   0                                                   
 INPUT CARD>               230   -263   0                                                   
 INPUT CARD>               264   -297   0                                                   
 INPUT CARD>               298   -330   0                                                   
 INPUT CARD>               331   -361   0                                                   
 INPUT CARD>               362   -392   0                                                   
 INPUT CARD> $END                                                                           
 INPUT CARD>                                                                                
 INPUT CARD> $FMOBND                                                                        
 INPUT CARD>   -34   33       6-31G*    MINI                                                
 INPUT CARD>   -68   67       6-31G*    MINI                                                
 INPUT CARD>   -102   101       6-31G*    MINI                                              
 INPUT CARD>   -135   134       6-31G*    MINI                                              
 INPUT CARD>   -166   165       6-31G*    MINI                                              
 INPUT CARD>   -199   198       6-31G*    MINI                                              
 INPUT CARD>   -230   229       6-31G*    MINI                                              
 INPUT CARD>   -264   263       6-31G*    MINI                                              


 -------------------------------------------------------------
 GROUP DDI, PROGRAMMED BY: RYAN M. OLSON AND DMITRI G. FEDOROV
        FEDOROV ET AL., J. COMPUT. CHEM., 25 (2004) 872.
 -------------------------------------------------------------

 -------------------------------------------------------
 GDDI: INITIALIZATION COMPLETED FOR GROUP     1 OF     1
 WITH    16 PROCESSES BALTYP=DLB   global rank=        0
 -------------------------------------------------------

   63000000 WORDS OF MEMORY AVAILABLE


     RUN TITLE
     ---------
  FMO calculation                                                                

 THE POINT GROUP OF THE MOLECULE IS C1      
 THE ORDER OF THE PRINCIPAL AXIS IS     0

 ATOM   ATOMIC CHARGE
 H.1-1       1.0
 O.1-1       8.0
 C.1-1       6.0
 N.1-1       7.0
 P.1-1      15.0

     ATOMIC BASIS SET LIBRARY
     ----------------
 THE CONTRACTED PRIMITIVE FUNCTIONS HAVE BEEN UNNORMALIZED
 THE CONTRACTED BASIS FUNCTIONS ARE NOW NORMALIZED TO UNITY

  SHELL TYPE  PRIMITIVE        EXPONENT          CONTRACTION COEFFICIENT(S)

 H.1-1     

      1   S       1            18.7311370    0.033494604338
      1   S       2             2.8253944    0.234726953484
      1   S       3             0.6401217    0.813757326146

      2   S       4             0.1612778    1.000000000000

 O.1-1     

      3   S       5          5484.6716600    0.001831074430
      3   S       6           825.2349460    0.013950172200
      3   S       7           188.0469580    0.068445078098
      3   S       8            52.9645000    0.232714335992
      3   S       9            16.8975704    0.470192897984
      3   S      10             5.7996353    0.358520852987

      4   L      11            15.5396162   -0.110777549525    0.070874268231
      4   L      12             3.5999336   -0.148026262701    0.339752839147
      4   L      13             1.0137618    1.130767015354    0.727158577316

      5   L      14             0.2700058    1.000000000000    1.000000000000

      6   D      15             0.8000000    1.000000000000

 C.1-1     

      7   S      16          3047.5248800    0.001834737132
      7   S      17           457.3695180    0.014037322813
      7   S      18           103.9486850    0.068842622264
      7   S      19            29.2101553    0.232184443216
      7   S      20             9.2866630    0.467941348435
      7   S      21             3.1639270    0.362311985337

      8   L      22             7.8682723   -0.119332419775    0.068999066591
      8   L      23             1.8812885   -0.160854151696    0.316423960957
      8   L      24             0.5442493    1.143456437840    0.744308290898

      9   L      25             0.1687145    1.000000000000    1.000000000000

     10   D      26             0.8000000    1.000000000000

 N.1-1     

     11   S      27          4173.5114600    0.001834772160
     11   S      28           627.4579110    0.013994627002
     11   S      29           142.9020930    0.068586551812
     11   S      30            40.2343293    0.232240873040
     11   S      31            12.8202129    0.469069948082
     11   S      32             4.3904370    0.360455199063

     12   L      33            11.6263619   -0.114961181702    0.067579743878
     12   L      34             2.7162798   -0.169117478561    0.323907295893
     12   L      35             0.7722184    1.145851947027    0.740895139755

     13   L      36             0.2120315    1.000000000000    1.000000000000

     14   D      37             0.8000000    1.000000000000

 P.1-1     

     15   S      38         19413.3000000    0.001851598923
     15   S      39          2909.4200000    0.014206191735
     15   S      40           661.3640000    0.069999459277
     15   S      41           185.7590000    0.240078860331
     15   S      42            59.1943000    0.484761717984
     15   S      43            20.0310000    0.335199804993

     16   L      44           339.4780000   -0.002782170105    0.004564616191
     16   L      45            81.0101000   -0.036049901354    0.033693571881
     16   L      46            25.8780000   -0.116631004382    0.139754883368
     16   L      47             9.4522100    0.096832803638    0.339361716786
     16   L      48             3.6656600    0.614418023082    0.450920623685
     16   L      49             1.4674600    0.403798015170    0.238585800889

     17   L      50             2.1562300   -0.252924113863   -0.017765312733
     17   L      51             0.7489970    0.032851844678    0.274058196433
     17   L      52             0.2831450    1.081254761783    0.785421562957

     18   L      53             0.0998317    1.000000000000    1.000000000000

     19   D      54             0.5500000    1.000000000000

 TOTAL NUMBER OF BASIS SET SHELLS             =   19
 NUMBER OF CARTESIAN GAUSSIAN BASIS FUNCTIONS =   66

     $CONTRL OPTIONS
     ---------------
 SCFTYP=RHF          RUNTYP=ENERGY       EXETYP=RUN     
 MPLEVL=       0     CITYP =NONE         CCTYP =NONE         VBTYP =NONE    
 DFTTYP=NONE         TDDFT =NONE    
 MULT  =       1     ICHARG=       0     NZVAR =       0     COORD =UNIQUE  
 PP    =NONE         RELWFN=NONE         LOCAL =NONE         NUMGRD=       F
 ISPHER=       1     NOSYM =       0     MAXIT =     200     UNITS =ANGS    
 PLTORB=       F     MOLPLT=       F     AIMPAC=       F     FRIEND=        
 NPRINT=      -5     IREST =       0     GEOM  =INPUT   
 NORMF =       0     NORMP =       0     ITOL  =      24     ICUT  =      12
 INTTYP=BEST         GRDTYP=BEST         QMTTOL= 1.0E-06

     $SYSTEM OPTIONS
     ---------------
  REPLICATED MEMORY=    63000000 WORDS (ON EVERY NODE).
 DISTRIBUTED MEMDDI=          63 MILLION WORDS IN AGGREGATE,
 MEMDDI DISTRIBUTED OVER  16 PROCESSORS IS     3937500 WORDS/PROCESSOR.
 TOTAL MEMORY REQUESTED ON EACH PROCESSOR=    66937500 WORDS.
 TIMLIM=      525600.00 MINUTES, OR     365.0 DAYS.
 PARALL= T  BALTYP=  DLB     KDIAG=    0  COREFL= F
 MXSEQ2=     300 MXSEQ3=     150  mem10=         0

 ** LOOKING UP INTERNALLY STORED DATA FOR SOLVENT=WATER    **
 OPTICAL AND PHYSICAL CONSTANTS:
 EPS= 78.390; EPSINF=  1.776; RSOLV=  1.385 A; VMOL=  18.070 ML/MOL;
 TCE= .25700E-03 1/K; STEN= 71.810 DYN/CM;  DSTEN=  0.6500; CMF=  1.2770


     -----------------------------------
     INPUT FOR PCM SOLVATION CALCULATION 
     -----------------------------------
     IEF   =     -10
     ICOMP =       2     IFIELD=       0     ICAV  =       1
     IDISP =       1     IREP  =       0     IDP   =       0

     SOLVNT=WATER        EPS   = 78.3900     EPSINF=  1.7760
     VMOL  = 18.0700     TCE   =  0.00025700 STEN  = 71.8100
     DSTEN =  0.6500     CMF   =  1.2770     RSOLV =  1.3850

     NESFP =       0
     OMEGA = 40.0000     RET   =100.0000     FRO   =  0.7000

     TABS  =298.0000     IPRINT=       0

     --------------------------------
     INPUT FOR ITERATIVE C-PCM METHOD 
     --------------------------------
     IPCMIT  =         1     MXDIIS  =        50
     MXITR1  =       200     MXITR2  =       200
     THRES   = 0.100E-09     IMUL    =         3
     RCUT(1) =   20.0000     RCUT(2) =   50.0000

     IDIRCT  =         1
     IMGABI  =         0     RABI    =    4.0000
     IMGASC  =         0     RASC    =   20.0000
     THRSLS  = 0.500E-03     DENSLS  =    0.0100
     IEFPOL  =         1     REFPOL  =    0.0000

     INPUT FOR ISOTROPIC DIELECTRICS
     -------------------------------
     EPS=    78.39

          ----------------
          PROPERTIES INPUT
          ----------------

     MOMENTS            FIELD           POTENTIAL          DENSITY
 IEMOM =       1   IEFLD =       0   IEPOT =       0   IEDEN =       0
 WHERE =COMASS     WHERE =NUCLEI     WHERE =NUCLEI     WHERE =NUCLEI  
 OUTPUT=BOTH       OUTPUT=BOTH       OUTPUT=NONE       OUTPUT=BOTH    
 IEMINT=       0   IEFINT=       0                     IEDINT=       0
                                                       MORB  =       0
          EXTRAPOLATION IN EFFECT
          SOSCF IN EFFECT
 ORBITAL PRINTING OPTION: NPREO=     1 32767     2     1

     -------------------------------
     INTEGRAL TRANSFORMATION OPTIONS
     -------------------------------
     NWORD  =            0
     CUTOFF = 1.0E-10     MPTRAN =       0
     DIRTRF =       T     AOINTS =DUP     

          ----------------------
          INTEGRAL INPUT OPTIONS
          ----------------------
 NOPK  =       1 NORDER=       0 SCHWRZ=       T

 ..... DONE SETTING UP THE RUN .....
 CPU     0: STEP CPU TIME=     0.04 TOTAL CPU TIME=          0.0 (      0.0 MIN)
 TOTAL WALL CLOCK TIME=          0.1 SECONDS, CPU UTILIZATION IS    50.00%
 CPU     0: STEP CPU TIME=     0.00 TOTAL CPU TIME=          0.0 (      0.0 MIN)
 TOTAL WALL CLOCK TIME=          0.1 SECONDS, CPU UTILIZATION IS    50.00%

                    ----------------------
                    AO INTEGRAL TECHNOLOGY
                    ----------------------
     S,P,L SHELL ROTATED AXIS INTEGRALS, REPROGRAMMED BY
        KAZUYA ISHIMURA (IMS) AND JOSE SIERRA (SYNSTAR).
     S,P,D,L SHELL ROTATED AXIS INTEGRALS PROGRAMMED BY
        KAZUYA ISHIMURA (INSTITUTE FOR MOLECULAR SCIENCE).
     S,P,D,F,G SHELL TO TOTAL QUARTET ANGULAR MOMENTUM SUM 5,
        ERIC PROGRAM BY GRAHAM FLETCHER (ELORET AND NASA ADVANCED
        SUPERCOMPUTING DIVISION, AMES RESEARCH CENTER).
     S,P,D,F,G,L SHELL GENERAL RYS QUADRATURE PROGRAMMED BY
        MICHEL DUPUIS (PACIFIC NORTHWEST NATIONAL LABORATORY).
 Setting modorb=1 flag...
 Setting modorb=1 flag...

          -----------------------
          MP2 CONTROL INFORMATION
          -----------------------
          NACORE =        8  NBCORE =        8
          LMOMP2 =        F  AOINTS = DUP     
          METHOD =        2  NWORD  =               0
          MP2PRP =        F  OSPT   = NONE    
          CUTOFF = 1.00E-12  CPHFBS = BASISAO 
          CODE   = IMS     

          NUMBER OF CORE -A-  ORBITALS =     8
          NUMBER OF CORE -B-  ORBITALS =     8
          NUMBER OF OCC. -A-  ORBITALS =    18
          NUMBER OF OCC. -B-  ORBITALS =    18
          NUMBER OF MOLECULAR ORBITALS =    66
          NUMBER OF   BASIS  FUNCTIONS =    66

 CPU     0: STEP CPU TIME=     0.03 TOTAL CPU TIME=          0.1 (      0.0 MIN)
 TOTAL WALL CLOCK TIME=          0.1 SECONDS, CPU UTILIZATION IS    58.33%
 CPU     0: STEP CPU TIME=     0.00 TOTAL CPU TIME=          0.1 (      0.0 MIN)
 TOTAL WALL CLOCK TIME=          0.1 SECONDS, CPU UTILIZATION IS    58.33%

     INPUT FOR CAVITY DEFINITION 
     ---------------------------
   ATOM               COORDINATES                RADIUS       EPS
      1    -39.2300    112.5760    -49.8100      0.0100     78.3900
      2    -39.2500    113.2940    -50.4710      1.5900     78.3900
      3    -38.2370    114.2350    -50.0960      1.7700     78.3900
      4    -37.2720    113.7040    -49.9470      0.0100     78.3900
      5    -38.5160    114.7020    -49.1220      0.0100     78.3900
      6    -38.0440    115.3480    -51.1300      1.7700     78.3900
      7    -37.2730    116.0680    -50.7790      0.0100     78.3900
      8    -37.5990    114.8140    -52.4220      1.5900     78.3900
      9    -38.2010    115.5940    -53.4610      1.7700     78.3900
     10    -37.3670    115.9710    -54.0980      0.0100     78.3900
     11    -39.1650    114.8170    -54.2960      1.6800     78.3900
     12    -39.6630    113.6110    -53.8470      1.7700     78.3900
     13    -39.2810    113.2520    -52.8880      0.0100     78.3900
     14    -40.5500    112.9120    -54.5650      1.7700     78.3900
     15    -40.9420    111.9530    -54.2320      0.0100     78.3900
     16    -39.6220    115.3420    -55.5040      1.7700     78.3900
     17    -39.2130    116.4540    -55.8770      1.5900     78.3900
     18    -40.4910    114.6320    -56.2610      1.6800     78.3900
     19    -40.9700    113.4550    -55.8130      1.7700     78.3900
     20    -41.8330    112.7700    -56.5660      1.6800     78.3900
     21    -42.1010    113.1060    -57.4660      0.0100     78.3900
     22    -42.2010    111.8900    -56.2630      0.0100     78.3900
     23    -38.8720    116.7730    -52.7800      1.7700     78.3900
     24    -39.7320    117.1710    -53.3590      0.0100     78.3900
     25    -37.9270    117.8030    -52.5360      1.5900     78.3900
     26    -38.3520    118.4470    -51.9520      0.0100     78.3900
     27    -39.3200    116.1250    -51.4810      1.7700     78.3900
     28    -40.1150    115.3660    -51.6690      0.0100     78.3900
     29    -39.6640    117.0440    -50.4210      1.5900     78.3900
     30    -41.1690    117.5260    -50.3270      2.1000     78.3900
     31    -41.2530    118.4540    -49.1750      1.5900     78.3900
     32    -42.0530    116.3410    -50.3090      1.5900     78.3900
     33    -41.4210    118.3290    -51.6540      1.5900     78.3900
     34    -40.8620    119.6540    -51.8100      1.7700     78.3900
     35    -39.7510    119.6320    -51.7350      0.0100     78.3900
     36    -41.2490    120.3450    -51.0210      0.0100     78.3900
     37    -41.2400    120.2440    -53.1720      1.7700     78.3900
     38    -40.7190    121.2110    -53.3490      0.0100     78.3900
     39    -40.8660    119.3340    -54.2470      1.5900     78.3900
     40    -41.8470    119.4010    -55.2710      1.7700     78.3900
     41    -41.3120    119.7080    -56.1970      0.0100     78.3900
     42    -42.5070    118.1090    -55.5060      1.6800     78.3900
     43    -43.2430    117.7540    -56.6150      1.7700     78.3900
     44    -44.5440    118.4630    -59.7570      1.6800     78.3900
     45    -44.2470    119.4040    -59.9230      0.0100     78.3900
     46    -45.0500    117.9660    -60.4650      0.0100     78.3900
     47    -43.4760    118.5270    -57.7030      1.6800     78.3900
     48    -44.1910    117.8780    -58.6260      1.7700     78.3900
     49    -44.5920    116.5750    -58.4930      1.6800     78.3900
     50    -45.0850    116.1360    -59.2560      0.0100     78.3900
     51    -44.3530    115.7580    -57.3960      1.7700     78.3900
     52    -44.7340    114.5840    -57.3590      1.5900     78.3900
     53    -43.6340    116.4480    -56.3860      1.7700     78.3900
     54    -43.1920    116.0070    -55.1430      1.6800     78.3900
     55    -42.5230    117.0240    -54.6580      1.7700     78.3900
     56    -41.9970    117.0440    -53.7010      0.0100     78.3900
     57    -42.8430    120.4670    -54.8800      1.7700     78.3900
     58    -43.8730    120.2300    -55.2220      0.0100     78.3900
     59    -42.4480    121.7190    -55.4010      1.5900     78.3900
     60    -43.1790    122.3130    -55.1920      0.0100     78.3900
     61    -42.7440    120.4550    -53.3560      1.7700     78.3900
     62    -43.2300    119.5410    -52.9440      0.0100     78.3900
     63    -43.1710    121.6740    -52.6780      1.5900     78.3900
     64    -44.7390    121.8440    -52.4970      2.1000     78.3900
     65    -44.9810    122.9970    -51.6030      1.5900     78.3900
     66    -45.3170    120.5540    -52.0740      1.5900     78.3900
     67    -45.2770    122.1820    -53.9300      1.5900     78.3900
     68    -45.0630    123.4700    -54.5410      1.7700     78.3900
     69    -43.9780    123.7060    -54.6290      0.0100     78.3900
     70    -45.5370    124.2710    -53.9290      0.0100     78.3900
     71    -45.6890    123.5170    -55.9390      1.7700     78.3900
     72    -45.4300    124.4730    -56.4510      0.0100     78.3900
     73    -45.1900    122.4280    -56.7730      1.5900     78.3900
     74    -46.2500    121.9650    -57.6020      1.7700     78.3900
     75    -45.9010    122.0140    -58.6600      0.0100     78.3900
     76    -46.6110    120.5720    -57.2690      1.6800     78.3900
     77    -47.1240    119.6200    -58.1110      1.7700     78.3900
     78    -48.1950    118.6690    -61.2620      1.6800     78.3900
     79    -48.3890    117.8440    -61.7780      0.0100     78.3900
     80    -48.0890    119.5320    -61.7590      0.0100     78.3900
     81    -47.4230    119.7880    -59.4100      1.6800     78.3900
     82    -47.8380    118.6620    -59.9880      1.7700     78.3900
     83    -47.9370    117.4670    -59.3120      1.6800     78.3900
     84    -48.2140    116.6260    -59.7910      0.0100     78.3900
     85    -47.6270    117.2690    -57.9730      1.7700     78.3900
     86    -47.7190    116.1710    -57.4250      1.5900     78.3900
     87    -47.2180    118.4700    -57.3520      1.7700     78.3900
     88    -46.8230    118.7020    -56.0450      1.6800     78.3900
     89    -46.4750    119.9610    -56.0410      1.7700     78.3900
     90    -46.1050    120.5010    -55.1720      0.0100     78.3900
     91    -47.4010    122.9230    -57.4100      1.7700     78.3900
     92    -48.3700    122.4200    -57.5390      0.0100     78.3900
     93    -47.2960    124.0270    -58.2940      1.5900     78.3900
     94    -48.0030    124.6500    -58.0610      0.0100     78.3900
     95    -47.2150    123.3530    -55.9630      1.7700     78.3900
     96    -47.4660    122.5200    -55.2690      0.0100     78.3900
     97    -47.8680    124.5880    -55.5840      1.5900     78.3900
     98    -49.4300    124.6030    -55.3500      2.1000     78.3900
     99    -49.8610    126.0000    -55.1390      1.5900     78.3900
    100    -49.7340    123.6490    -54.2640      1.5900     78.3900
    101    -50.0650    124.0920    -56.6970      1.5900     78.3900
    102    -51.1930    123.1850    -56.6680      1.7700     78.3900
    103    -52.1270    123.7250    -56.3680      0.0100     78.3900
    104    -51.0330    122.3490    -55.9450      0.0100     78.3900
    105    -51.4160    122.5620    -58.0510      1.7700     78.3900
    106    -51.4880    123.3390    -58.8410      0.0100     78.3900
    107    -50.3140    121.6760    -58.3900      1.5900     78.3900
    108    -50.8150    120.4720    -58.9300      1.7700     78.3900
    109    -50.2440    120.2650    -59.8650      0.0100     78.3900
    110    -50.6560    119.3770    -57.9680      1.6800     78.3900
    111    -50.7200    117.4060    -57.0000      1.7700     78.3900
    112    -50.2000    118.2820    -56.0570      1.6800     78.3900
    113    -50.1650    119.4300    -56.6860      1.7700     78.3900
    114    -49.7810    120.3640    -56.2640      0.0100     78.3900
    115    -51.6200    115.4990    -58.0700      1.6800     78.3900
    116    -51.8310    116.2820    -59.1220      1.7700     78.3900
    117    -52.2810    115.7940    -59.9930      0.0100     78.3900
    118    -51.5150    117.5590    -59.2970      1.6800     78.3900
    119    -51.0050    118.0760    -58.1750      1.7700     78.3900
    120    -51.0210    116.0260    -56.9680      1.7700     78.3900
    121    -50.7620    115.2280    -55.9180      1.6800     78.3900
    122    -50.2720    115.5440    -55.1030      0.0100     78.3900
    123    -51.0020    114.2600    -56.0080      0.0100     78.3900
    124    -52.2680    120.7200    -59.2500      1.7700     78.3900
    125    -52.8880    119.7990    -59.2340      0.0100     78.3900
    126    -52.3910    121.3590    -60.5050      1.5900     78.3900
    127    -53.2790    121.7440    -60.5480      0.0100     78.3900
    128    -52.6480    121.6590    -58.1210      1.7700     78.3900
    129    -52.7040    121.1090    -57.1500      0.0100     78.3900
    130    -53.8080    122.4560    -58.3950      1.5900     78.3900
    131    -55.1950    122.0300    -57.8090      2.1000     78.3900
    132    -56.2200    122.9730    -58.3170      1.5900     78.3900
    133    -55.0600    121.9010    -56.3400      1.5900     78.3900
    134    -55.4160    120.6000    -58.4160      1.5900     78.3900
    135    -55.7500    120.4170    -59.8060      1.7700     78.3900
    136    -54.9230    120.7550    -60.4710      0.0100     78.3900
    137    -56.6650    120.9970    -60.0670      0.0100     78.3900
    138    -56.0490    118.9440    -60.0980      1.7700     78.3900
    139    -56.3170    118.8060    -61.1670      0.0100     78.3900
    140    -54.8870    118.1060    -59.8300      1.5900     78.3900
    141    -55.3360    116.8570    -59.3150      1.7700     78.3900
    142    -54.9430    116.0860    -60.0160      0.0100     78.3900
    143    -54.8400    116.5680    -57.9410      1.6800     78.3900
    144    -54.3840    117.5960    -57.1440      1.7700     78.3900
    145    -54.3900    118.5910    -57.5950      0.0100     78.3900
    146    -53.9260    117.3640    -55.9070      1.7700     78.3900
    147    -53.5290    118.1560    -55.2750      0.0100     78.3900
    148    -54.8790    115.2660    -57.4370      1.7700     78.3900
    149    -55.3370    114.3520    -58.1400      1.5900     78.3900
    150    -54.3970    115.0130    -56.2040      1.6800     78.3900
    151    -53.9340    116.0150    -55.4380      1.7700     78.3900
    152    -53.4530    115.7190    -54.2340      1.6800     78.3900
    153    -53.3680    114.7500    -54.0100      0.0100     78.3900
    154    -53.0220    116.4050    -53.6480      0.0100     78.3900
    155    -56.8460    116.8590    -59.3860      1.7700     78.3900
    156    -57.3110    116.2610    -58.5760      0.0100     78.3900
    157    -57.2680    116.3850    -60.6490      1.5900     78.3900
    158    -58.2190    116.5360    -60.6940      0.0100     78.3900
    159    -57.1570    118.3380    -59.2280      1.7700     78.3900
    160    -56.9670    118.6720    -58.1820      0.0100     78.3900
    161    -58.4550    118.7430    -59.7210      1.5900     78.3900
    162    -59.6890    118.6730    -58.7430      2.1000     78.3900
    163    -60.8990    119.1220    -59.4650      1.5900     78.3900
    164    -59.3590    119.3860    -57.4930      1.5900     78.3900
    165    -59.8360    117.1450    -58.4090      1.5900     78.3900
    166    -60.3450    116.2310    -59.4060      1.7700     78.3900
    167    -59.7810    116.2830    -60.3620      0.0100     78.3900
    168    -61.4090    116.4700    -59.6420      0.0100     78.3900
    169    -60.3090    114.7900    -58.8930      1.7700     78.3900
    170    -60.7030    114.0980    -59.6700      0.0100     78.3900
    171    -58.9520    114.3630    -58.5830      1.5900     78.3900
    172    -58.9860    113.4950    -57.4550      1.7700     78.3900
    173    -58.5250    112.5330    -57.7770      0.0100     78.3900
    174    -58.2220    114.0330    -56.3190      1.6800     78.3900
    175    -57.6920    113.3090    -55.2820      1.7700     78.3900
    176    -57.0780    110.2700    -53.7170      1.6800     78.3900
    177    -57.5650    109.6210    -54.3030      0.0100     78.3900
    178    -56.6090    109.9320    -52.8980      0.0100     78.3900
    179    -57.7820    111.9750    -55.1210      1.6800     78.3900
    180    -57.1110    111.5490    -54.0470      1.7700     78.3900
    181    -56.3990    112.3820    -53.2300      1.6800     78.3900
    182    -55.9290    111.9650    -52.4430      0.0100     78.3900
    183    -56.3070    113.7620    -53.3580      1.7700     78.3900
    184    -55.6440    114.4250    -52.5540      1.5900     78.3900
    185    -57.0560    114.2310    -54.4730      1.7700     78.3900
    186    -57.2430    115.5200    -54.9560      1.6800     78.3900
    187    -57.9360    115.3520    -56.0560      1.7700     78.3900
    188    -58.2670    116.1510    -56.7240      0.0100     78.3900
    189    -60.4420    113.2740    -57.0930      1.7700     78.3900
    190    -60.5890    113.1600    -55.9970      0.0100     78.3900
    191    -60.9500    112.1290    -57.7640      1.5900     78.3900
    192    -60.9230    112.2880    -58.7200      0.0100     78.3900
    193    -61.0760    114.5720    -57.5890      1.7700     78.3900
    194    -60.8370    115.4100    -56.8990      0.0100     78.3900
    195    -62.4880    114.4960    -57.8430      1.5900     78.3900
    196    -62.9590    114.3720    -57.0010      0.0100     78.3900
    197    -50.9990    107.7820    -46.3940      0.0100     78.3900
    198    -51.6680    107.7340    -47.1010      1.5900     78.3900
    199    -52.4210    106.5330    -46.8790      1.7700     78.3900
    200    -52.8770    106.5630    -45.8630      0.0100     78.3900
    201    -51.7290    105.6640    -46.9150      0.0100     78.3900
    202    -53.5310    106.3030    -47.9150      1.7700     78.3900
    203    -54.0280    105.3270    -47.7340      0.0100     78.3900
    204    -54.5590    107.3440    -47.8230      1.5900     78.3900
    205    -55.0320    107.6380    -49.1400      1.7700     78.3900
    206    -56.1370    107.4940    -49.1120      0.0100     78.3900
    207    -54.7230    109.0280    -49.5870      1.6800     78.3900
    208    -53.7440    109.7590    -48.9520      1.7700     78.3900
    209    -53.2620    109.2820    -48.0940      0.0100     78.3900
    210    -53.4330    110.9980    -49.3500      1.7700     78.3900
    211    -52.6700    111.5920    -48.8520      0.0100     78.3900
    212    -55.3770    109.5710    -50.6960      1.7700     78.3900
    213    -56.2170    108.8880    -51.3020      1.5900     78.3900
    214    -55.0940    110.8330    -51.0940      1.6800     78.3900
    215    -54.1350    111.5370    -50.4640      1.7700     78.3900
    216    -53.8420    112.7670    -50.8890      1.6800     78.3900
    217    -54.3540    113.1840    -51.6380      0.0100     78.3900
    218    -53.1310    113.3130    -50.4450      0.0100     78.3900
    219    -54.4230    106.6080    -50.0650      1.7700     78.3900
    220    -54.2850    106.9870    -51.1000      0.0100     78.3900
    221    -55.2260    105.4440    -50.0850      1.5900     78.3900
    222    -54.7000    104.7500    -50.5020      0.0100     78.3900
    223    -53.0850    106.3520    -49.3830      1.7700     78.3900
    224    -52.4210    107.2430    -49.4850      0.0100     78.3900
    225    -52.4290    105.1150    -49.7540      1.5900     78.3900
    226    -51.4540    105.1480    -51.0040      2.1000     78.3900
    227    -50.9120    103.7870    -51.2160      1.5900     78.3900
    228    -50.4600    106.2310    -50.8310      1.5900     78.3900
    229    -52.3940    105.5280    -52.2020      1.5900     78.3900
    230    -53.2980    104.5470    -52.7560      1.7700     78.3900
    231    -54.0110    104.1700    -51.9890      0.0100     78.3900
    232    -52.7330    103.6710    -53.1510      0.0100     78.3900
    233    -54.1020    105.1270    -53.9240      1.7700     78.3900
    234    -54.8510    104.3910    -54.2880      0.0100     78.3900
    235    -54.8270    106.3250    -53.5320      1.5900     78.3900
    236    -54.8500    107.2200    -54.6350      1.7700     78.3900
    237    -55.9210    107.4400    -54.8490      0.0100     78.3900
    238    -54.1470    108.4750    -54.3430      1.6800     78.3900
    239    -54.2460    109.6410    -55.0600      1.7700     78.3900
    240    -55.6850    111.5280    -57.6030      1.6800     78.3900
    241    -56.2610    110.8610    -58.0770      0.0100     78.3900
    242    -55.7090    112.4910    -57.8780      0.0100     78.3900
    243    -55.0150    109.8430    -56.1510      1.6800     78.3900
    244    -54.9870    111.1150    -56.5570      1.7700     78.3900
    245    -54.2430    112.0840    -55.9360      1.6800     78.3900
    246    -54.2890    113.0290    -56.2900      0.0100     78.3900
    247    -53.4090    111.8930    -54.8390      1.7700     78.3900
    248    -52.7560    112.8130    -54.3370      1.5900     78.3900
    249    -53.4340    110.5440    -54.4000      1.7700     78.3900
    250    -52.7980    109.9430    -53.3200      1.6800     78.3900
    251    -53.2480    108.7120    -53.3260      1.7700     78.3900
    252    -52.9820    107.9320    -52.6070      0.0100     78.3900
    253    -54.2250    106.5080    -55.8110      1.7700     78.3900
    254    -53.6920    107.2020    -56.4970      0.0100     78.3900
    255    -55.2010    105.7840    -56.5330      1.5900     78.3900
    256    -54.7330    105.4350    -57.3030      0.0100     78.3900
    257    -53.2480    105.5710    -55.1110      1.7700     78.3900
    258    -52.3840    106.1390    -54.6960      0.0100     78.3900
    259    -52.8300    104.4110    -55.8550      1.5900     78.3900
    260    -51.7320    104.5200    -56.9700      2.1000     78.3900
    261    -51.4650    103.1590    -57.4820      1.5900     78.3900
    262    -50.5680    105.2620    -56.4330      1.5900     78.3900
    263    -52.4120    105.3680    -58.1050      1.5900     78.3900
    264    -53.3490    104.7680    -59.0300      1.7700     78.3900
    265    -54.2220    104.3290    -58.4940      0.0100     78.3900
    266    -52.8620    103.9480    -59.6070      0.0100     78.3900
    267    -53.8760    105.8000    -60.0360      1.7700     78.3900
    268    -54.6680    105.3650    -60.6780      0.0100     78.3900
    269    -54.4550    106.9470    -59.3410      1.5900     78.3900
    270    -54.1500    108.1310    -60.0690      1.7700     78.3900
    271    -55.1120    108.6530    -60.2890      0.0100     78.3900
    272    -53.2710    109.0300    -59.3000      1.6800     78.3900
    273    -53.1930    110.3970    -59.3820      1.7700     78.3900
    274    -54.2420    113.3990    -60.7610      1.6800     78.3900
    275    -54.2010    114.3710    -60.5670      0.0100     78.3900
    276    -54.9310    113.0810    -61.4140      0.0100     78.3900
    277    -53.9040    111.1900    -60.2060      1.6800     78.3900
    278    -53.6420    112.4850    -60.0160      1.7700     78.3900
    279    -52.7710    112.9370    -59.0520      1.6800     78.3900
    280    -52.6460    113.9240    -58.8960      0.0100     78.3900
    281    -52.0400    112.1340    -58.1840      1.7700     78.3900
    282    -51.2780    112.5870    -57.3280      1.5900     78.3900
    283    -52.2660    110.7650    -58.4280      1.7700     78.3900
    284    -51.7200    109.6560    -57.8040      1.6800     78.3900
    285    -52.3490    108.6500    -58.3520      1.7700     78.3900
    286    -52.1780    107.6040    -58.1110      0.0100     78.3900
    287    -53.5170    107.6900    -61.3670      1.7700     78.3900
    288    -52.7870    108.4260    -61.7360      0.0100     78.3900
    289    -54.5020    107.4440    -62.3530      1.5900     78.3900
    290    -54.0490    107.0490    -63.1140      0.0100     78.3900
    291    -52.8100    106.4050    -60.9580      1.7700     78.3900
    292    -51.9220    106.6220    -60.3250      0.0100     78.3900
    293    -52.4960    105.4960    -62.0390      1.5900     78.3900
    294    -51.2490    105.7840    -62.9640      2.1000     78.3900
    295    -51.2470    104.7940    -64.0640      1.5900     78.3900
    296    -50.0320    105.8220    -62.1220      1.5900     78.3900
    297    -51.5480    107.2020    -63.5820      1.5900     78.3900
    298    -50.4970    108.1730    -63.7710      1.7700     78.3900
    299    -49.8490    107.8670    -64.6250      0.0100     78.3900
    300    -49.8530    108.2670    -62.8640      0.0100     78.3900
    301    -51.0800    109.5550    -64.0880      1.7700     78.3900
    302    -51.8040    109.5130    -64.9310      0.0100     78.3900
    303    -51.7830    110.0650    -62.9240      1.5900     78.3900
    304    -51.4530    111.4180    -62.7130      1.7700     78.3900
    305    -52.4080    111.9730    -62.5650      0.0100     78.3900
    306    -50.5960    111.5510    -61.5370      1.6800     78.3900
    307    -49.3470    112.3920    -59.9410      1.7700     78.3900
    308    -49.2990    111.0150    -59.7850      1.6800     78.3900
    309    -50.0630    110.5590    -60.7440      1.7700     78.3900
    310    -50.3100    109.5070    -60.9120      0.0100     78.3900
    311    -48.8880    114.6990    -59.7750      1.6800     78.3900
    312    -49.6600    114.8540    -60.8430      1.7700     78.3900
    313    -49.7540    115.8850    -61.1920      0.0100     78.3900
    314    -50.3930    113.9570    -61.4940      1.6800     78.3900
    315    -50.1380    112.7280    -61.0250      1.7700     78.3900
    316    -48.7280    113.4540    -59.2520      1.7700     78.3900
    317    -47.9920    113.2980    -58.1360      1.6800     78.3900
    318    -47.8890    112.4160    -57.6700      0.0100     78.3900
    319    -47.5950    114.1240    -57.7340      0.0100     78.3900
    320    -50.7650    111.8960    -63.9660      1.7700     78.3900
    321    -50.0480    112.7270    -63.7880      0.0100     78.3900
    322    -51.7310    112.2990    -64.9240      1.5900     78.3900
    323    -51.2970    112.3110    -65.7910      0.0100     78.3900
    324    -50.0340    110.6340    -64.3840      1.7700     78.3900
    325    -49.1820    110.4340    -63.6910      0.0100     78.3900
    326    -49.6640    110.6080    -65.7750      1.5900     78.3900
    327    -48.1780    110.9220    -66.1690      2.1000     78.3900
    328    -48.0700    110.9020    -67.6440      1.5900     78.3900
    329    -47.2980    109.9900    -65.4260      1.5900     78.3900
    330    -47.9660    112.3850    -65.6290      1.5900     78.3900
    331    -48.6020    113.5020    -66.2960      1.7700     78.3900
    332    -49.7120    113.4480    -66.2180      0.0100     78.3900
    333    -48.3350    113.5180    -67.3770      0.0100     78.3900
    334    -48.1490    114.8350    -65.6910      1.7700     78.3900
    335    -48.6120    115.6910    -66.2280      0.0100     78.3900
    336    -48.5460    114.9290    -64.2910      1.5900     78.3900
    337    -47.5210    115.6200    -63.5790      1.7700     78.3900
    338    -48.0250    116.4990    -63.1180      0.0100     78.3900
    339    -46.8860    114.8060    -62.5100      1.6800     78.3900
    340    -46.9790    113.4320    -62.5350      1.7700     78.3900
    341    -47.5650    113.0080    -63.3550      0.0100     78.3900
    342    -46.4130    112.6800    -61.5810      1.7700     78.3900
    343    -46.5020    111.5950    -61.5620      0.0100     78.3900
    344    -46.1450    115.4320    -61.5070      1.7700     78.3900
    345    -46.0140    116.6660    -61.5240      1.5900     78.3900
    346    -45.5970    114.6950    -60.5240      1.6800     78.3900
    347    -45.7000    113.3540    -60.5450      1.7700     78.3900
    348    -45.1350    112.6610    -59.5610      1.6800     78.3900
    349    -44.7290    113.1890    -58.8160      0.0100     78.3900
    350    -45.1950    111.6660    -59.4980      0.0100     78.3900
    351    -46.5180    116.1110    -64.5930      1.7700     78.3900
    352    -45.4880    116.1650    -64.1860      0.0100     78.3900
    353    -46.9130    117.3780    -65.0820      1.5900     78.3900
    354    -46.2950    117.5910    -65.7920      0.0100     78.3900
    355    -46.6290    115.0380    -65.6650      1.7700     78.3900
    356    -46.1730    114.0830    -65.3180      0.0100     78.3900
    357    -46.1700    115.4280    -66.9690      1.5900     78.3900
    358    -44.6700    115.2630    -67.3950      2.1000     78.3900
    359    -44.5440    115.7460    -68.7900      1.5900     78.3900
    360    -44.2280    113.8800    -67.1270      1.5900     78.3900
    361    -43.8940    116.2080    -66.4140      1.5900     78.3900
    362    -43.9070    117.6420    -66.5480      1.7700     78.3900
    363    -44.9430    118.0550    -66.5800      0.0100     78.3900
    364    -43.3980    117.9480    -67.4940      0.0100     78.3900
    365    -43.1500    118.2910    -65.3820      1.7700     78.3900
    366    -43.1370    119.3960    -65.4820      0.0100     78.3900
    367    -43.7740    117.9830    -64.1020      1.5900     78.3900
    368    -42.7580    117.9040    -63.1040      1.7700     78.3900
    369    -43.0000    118.6660    -62.3300      0.0100     78.3900
    370    -42.7080    116.5760    -62.4760      1.6800     78.3900
    371    -42.1760    116.2780    -61.2480      1.7700     78.3900
    372    -40.5590    117.2620    -58.3420      1.6800     78.3900
    373    -40.4540    118.2420    -58.4820      0.0100     78.3900
    374    -40.2560    116.8560    -57.4770      0.0100     78.3900
    375    -41.5930    117.1500    -60.4060      1.6800     78.3900
    376    -41.1880    116.5720    -59.2750      1.7700     78.3900
    377    -41.3830    115.2470    -59.0010      1.6800     78.3900
    378    -41.0600    114.9050    -58.1100      0.0100     78.3900
    379    -41.9670    114.3190    -59.8560      1.7700     78.3900
    380    -42.0790    113.1370    -59.5180      1.5900     78.3900
    381    -42.3550    114.9190    -61.0870      1.7700     78.3900
    382    -42.9380    114.3600    -62.2210      1.6800     78.3900
    383    -43.1290    115.3840    -63.0170      1.7700     78.3900
    384    -43.5770    115.3390    -64.0130      0.0100     78.3900
    385    -41.4390    118.2480    -63.7710      1.7700     78.3900
    386    -40.5850    117.6840    -63.3360      0.0100     78.3900
    387    -41.2040    119.6440    -63.6820      1.5900     78.3900
    388    -40.4720    119.8730    -64.2790      0.0100     78.3900
    389    -41.7120    117.8060    -65.2030      1.7700     78.3900
    390    -41.7090    116.6930    -65.2840      0.0100     78.3900
    391    -40.8410    118.4020    -66.1810      1.5900     78.3900
    392    -39.9400    118.0360    -66.0930      0.0100     78.3900

     ----------------------------
     INPUT FOR TESSERA DEFINITION
     ----------------------------
     NTSALL  =        60     MTHALL  =         4
     MTHAUT  =         0     AUTFRE  =    2.0000
     NTSFRZ  =        60     KEEPSM  =         0
     AREAKP  =   10.0000     BONDRY  =    1.0000
     AREATL  =    0.0100

     SPHERE     INITS       METHOD
          1        60       FIXPVA
          2        60       FIXPVA
          3        60       FIXPVA
          4        60       FIXPVA
          5        60       FIXPVA
          6        60       FIXPVA
          7        60       FIXPVA
          8        60       FIXPVA
          9        60       FIXPVA
         10        60       FIXPVA
         11        60       FIXPVA
         12        60       FIXPVA
         13        60       FIXPVA
         14        60       FIXPVA
         15        60       FIXPVA
         16        60       FIXPVA
         17        60       FIXPVA
         18        60       FIXPVA
         19        60       FIXPVA
         20        60       FIXPVA
         21        60       FIXPVA
         22        60       FIXPVA
         23        60       FIXPVA
         24        60       FIXPVA
         25        60       FIXPVA
         26        60       FIXPVA
         27        60       FIXPVA
         28        60       FIXPVA
         29        60       FIXPVA
         30        60       FIXPVA
         31        60       FIXPVA
         32        60       FIXPVA
         33        60       FIXPVA
         34        60       FIXPVA
         35        60       FIXPVA
         36        60       FIXPVA
         37        60       FIXPVA
         38        60       FIXPVA
         39        60       FIXPVA
         40        60       FIXPVA
         41        60       FIXPVA
         42        60       FIXPVA
         43        60       FIXPVA
         44        60       FIXPVA
         45        60       FIXPVA
         46        60       FIXPVA
         47        60       FIXPVA
         48        60       FIXPVA
         49        60       FIXPVA
         50        60       FIXPVA
         51        60       FIXPVA
         52        60       FIXPVA
         53        60       FIXPVA
         54        60       FIXPVA
         55        60       FIXPVA
         56        60       FIXPVA
         57        60       FIXPVA
         58        60       FIXPVA
         59        60       FIXPVA
         60        60       FIXPVA
         61        60       FIXPVA
         62        60       FIXPVA
         63        60       FIXPVA
         64        60       FIXPVA
         65        60       FIXPVA
         66        60       FIXPVA
         67        60       FIXPVA
         68        60       FIXPVA
         69        60       FIXPVA
         70        60       FIXPVA
         71        60       FIXPVA
         72        60       FIXPVA
         73        60       FIXPVA
         74        60       FIXPVA
         75        60       FIXPVA
         76        60       FIXPVA
         77        60       FIXPVA
         78        60       FIXPVA
         79        60       FIXPVA
         80        60       FIXPVA
         81        60       FIXPVA
         82        60       FIXPVA
         83        60       FIXPVA
         84        60       FIXPVA
         85        60       FIXPVA
         86        60       FIXPVA
         87        60       FIXPVA
         88        60       FIXPVA
         89        60       FIXPVA
         90        60       FIXPVA
         91        60       FIXPVA
         92        60       FIXPVA
         93        60       FIXPVA
         94        60       FIXPVA
         95        60       FIXPVA
         96        60       FIXPVA
         97        60       FIXPVA
         98        60       FIXPVA
         99        60       FIXPVA
        100        60       FIXPVA
        101        60       FIXPVA
        102        60       FIXPVA
        103        60       FIXPVA
        104        60       FIXPVA
        105        60       FIXPVA
        106        60       FIXPVA
        107        60       FIXPVA
        108        60       FIXPVA
        109        60       FIXPVA
        110        60       FIXPVA
        111        60       FIXPVA
        112        60       FIXPVA
        113        60       FIXPVA
        114        60       FIXPVA
        115        60       FIXPVA
        116        60       FIXPVA
        117        60       FIXPVA
        118        60       FIXPVA
        119        60       FIXPVA
        120        60       FIXPVA
        121        60       FIXPVA
        122        60       FIXPVA
        123        60       FIXPVA
        124        60       FIXPVA
        125        60       FIXPVA
        126        60       FIXPVA
        127        60       FIXPVA
        128        60       FIXPVA
        129        60       FIXPVA
        130        60       FIXPVA
        131        60       FIXPVA
        132        60       FIXPVA
        133        60       FIXPVA
        134        60       FIXPVA
        135        60       FIXPVA
        136        60       FIXPVA
        137        60       FIXPVA
        138        60       FIXPVA
        139        60       FIXPVA
        140        60       FIXPVA
        141        60       FIXPVA
        142        60       FIXPVA
        143        60       FIXPVA
        144        60       FIXPVA
        145        60       FIXPVA
        146        60       FIXPVA
        147        60       FIXPVA
        148        60       FIXPVA
        149        60       FIXPVA
        150        60       FIXPVA
        151        60       FIXPVA
        152        60       FIXPVA
        153        60       FIXPVA
        154        60       FIXPVA
        155        60       FIXPVA
        156        60       FIXPVA
        157        60       FIXPVA
        158        60       FIXPVA
        159        60       FIXPVA
        160        60       FIXPVA
        161        60       FIXPVA
        162        60       FIXPVA
        163        60       FIXPVA
        164        60       FIXPVA
        165        60       FIXPVA
        166        60       FIXPVA
        167        60       FIXPVA
        168        60       FIXPVA
        169        60       FIXPVA
        170        60       FIXPVA
        171        60       FIXPVA
        172        60       FIXPVA
        173        60       FIXPVA
        174        60       FIXPVA
        175        60       FIXPVA
        176        60       FIXPVA
        177        60       FIXPVA
        178        60       FIXPVA
        179        60       FIXPVA
        180        60       FIXPVA
        181        60       FIXPVA
        182        60       FIXPVA
        183        60       FIXPVA
        184        60       FIXPVA
        185        60       FIXPVA
        186        60       FIXPVA
        187        60       FIXPVA
        188        60       FIXPVA
        189        60       FIXPVA
        190        60       FIXPVA
        191        60       FIXPVA
        192        60       FIXPVA
        193        60       FIXPVA
        194        60       FIXPVA
        195        60       FIXPVA
        196        60       FIXPVA
        197        60       FIXPVA
        198        60       FIXPVA
        199        60       FIXPVA
        200        60       FIXPVA
        201        60       FIXPVA
        202        60       FIXPVA
        203        60       FIXPVA
        204        60       FIXPVA
        205        60       FIXPVA
        206        60       FIXPVA
        207        60       FIXPVA
        208        60       FIXPVA
        209        60       FIXPVA
        210        60       FIXPVA
        211        60       FIXPVA
        212        60       FIXPVA
        213        60       FIXPVA
        214        60       FIXPVA
        215        60       FIXPVA
        216        60       FIXPVA
        217        60       FIXPVA
        218        60       FIXPVA
        219        60       FIXPVA
        220        60       FIXPVA
        221        60       FIXPVA
        222        60       FIXPVA
        223        60       FIXPVA
        224        60       FIXPVA
        225        60       FIXPVA
        226        60       FIXPVA
        227        60       FIXPVA
        228        60       FIXPVA
        229        60       FIXPVA
        230        60       FIXPVA
        231        60       FIXPVA
        232        60       FIXPVA
        233        60       FIXPVA
        234        60       FIXPVA
        235        60       FIXPVA
        236        60       FIXPVA
        237        60       FIXPVA
        238        60       FIXPVA
        239        60       FIXPVA
        240        60       FIXPVA
        241        60       FIXPVA
        242        60       FIXPVA
        243        60       FIXPVA
        244        60       FIXPVA
        245        60       FIXPVA
        246        60       FIXPVA
        247        60       FIXPVA
        248        60       FIXPVA
        249        60       FIXPVA
        250        60       FIXPVA
        251        60       FIXPVA
        252        60       FIXPVA
        253        60       FIXPVA
        254        60       FIXPVA
        255        60       FIXPVA
        256        60       FIXPVA
        257        60       FIXPVA
        258        60       FIXPVA
        259        60       FIXPVA
        260        60       FIXPVA
        261        60       FIXPVA
        262        60       FIXPVA
        263        60       FIXPVA
        264        60       FIXPVA
        265        60       FIXPVA
        266        60       FIXPVA
        267        60       FIXPVA
        268        60       FIXPVA
        269        60       FIXPVA
        270        60       FIXPVA
        271        60       FIXPVA
        272        60       FIXPVA
        273        60       FIXPVA
        274        60       FIXPVA
        275        60       FIXPVA
        276        60       FIXPVA
        277        60       FIXPVA
        278        60       FIXPVA
        279        60       FIXPVA
        280        60       FIXPVA
        281        60       FIXPVA
        282        60       FIXPVA
        283        60       FIXPVA
        284        60       FIXPVA
        285        60       FIXPVA
        286        60       FIXPVA
        287        60       FIXPVA
        288        60       FIXPVA
        289        60       FIXPVA
        290        60       FIXPVA
        291        60       FIXPVA
        292        60       FIXPVA
        293        60       FIXPVA
        294        60       FIXPVA
        295        60       FIXPVA
        296        60       FIXPVA
        297        60       FIXPVA
        298        60       FIXPVA
        299        60       FIXPVA
        300        60       FIXPVA
        301        60       FIXPVA
        302        60       FIXPVA
        303        60       FIXPVA
        304        60       FIXPVA
        305        60       FIXPVA
        306        60       FIXPVA
        307        60       FIXPVA
        308        60       FIXPVA
        309        60       FIXPVA
        310        60       FIXPVA
        311        60       FIXPVA
        312        60       FIXPVA
        313        60       FIXPVA
        314        60       FIXPVA
        315        60       FIXPVA
        316        60       FIXPVA
        317        60       FIXPVA
        318        60       FIXPVA
        319        60       FIXPVA
        320        60       FIXPVA
        321        60       FIXPVA
        322        60       FIXPVA
        323        60       FIXPVA
        324        60       FIXPVA
        325        60       FIXPVA
        326        60       FIXPVA
        327        60       FIXPVA
        328        60       FIXPVA
        329        60       FIXPVA
        330        60       FIXPVA
        331        60       FIXPVA
        332        60       FIXPVA
        333        60       FIXPVA
        334        60       FIXPVA
        335        60       FIXPVA
        336        60       FIXPVA
        337        60       FIXPVA
        338        60       FIXPVA
        339        60       FIXPVA
        340        60       FIXPVA
        341        60       FIXPVA
        342        60       FIXPVA
        343        60       FIXPVA
        344        60       FIXPVA
        345        60       FIXPVA
        346        60       FIXPVA
        347        60       FIXPVA
        348        60       FIXPVA
        349        60       FIXPVA
        350        60       FIXPVA
        351        60       FIXPVA
        352        60       FIXPVA
        353        60       FIXPVA
        354        60       FIXPVA
        355        60       FIXPVA
        356        60       FIXPVA
        357        60       FIXPVA
        358        60       FIXPVA
        359        60       FIXPVA
        360        60       FIXPVA
        361        60       FIXPVA
        362        60       FIXPVA
        363        60       FIXPVA
        364        60       FIXPVA
        365        60       FIXPVA
        366        60       FIXPVA
        367        60       FIXPVA
        368        60       FIXPVA
        369        60       FIXPVA
        370        60       FIXPVA
        371        60       FIXPVA
        372        60       FIXPVA
        373        60       FIXPVA
        374        60       FIXPVA
        375        60       FIXPVA
        376        60       FIXPVA
        377        60       FIXPVA
        378        60       FIXPVA
        379        60       FIXPVA
        380        60       FIXPVA
        381        60       FIXPVA
        382        60       FIXPVA
        383        60       FIXPVA
        384        60       FIXPVA
        385        60       FIXPVA
        386        60       FIXPVA
        387        60       FIXPVA
        388        60       FIXPVA
        389        60       FIXPVA
        390        60       FIXPVA
        391        60       FIXPVA
        392        60       FIXPVA

     ------------------------------
      FIXPVA TESSELLATION FOR PCM
         PEIFENG SU AND HUI LI
     UNIVERSITY OF NEBRASKA-LINCOLN
     ------------------------------


 PCM DIMENSIONS: MXSP=   392, MXTS=     15680, MEMORY=        161115

     INPUT FOR CAVITY DEFINITION 
     ---------------------------
   ATOM               COORDINATES                RADIUS       EPS
      1    -39.2300    112.5760    -49.8100      0.0100     78.3900
      2    -39.2500    113.2940    -50.4710      1.5900     78.3900
      3    -38.2370    114.2350    -50.0960      1.7700     78.3900
      4    -37.2720    113.7040    -49.9470      0.0100     78.3900
      5    -38.5160    114.7020    -49.1220      0.0100     78.3900
      6    -38.0440    115.3480    -51.1300      1.7700     78.3900
      7    -37.2730    116.0680    -50.7790      0.0100     78.3900
      8    -37.5990    114.8140    -52.4220      1.5900     78.3900
      9    -38.2010    115.5940    -53.4610      1.7700     78.3900
     10    -37.3670    115.9710    -54.0980      0.0100     78.3900
     11    -39.1650    114.8170    -54.2960      1.6800     78.3900
     12    -39.6630    113.6110    -53.8470      1.7700     78.3900
     13    -39.2810    113.2520    -52.8880      0.0100     78.3900
     14    -40.5500    112.9120    -54.5650      1.7700     78.3900
     15    -40.9420    111.9530    -54.2320      0.0100     78.3900
     16    -39.6220    115.3420    -55.5040      1.7700     78.3900
     17    -39.2130    116.4540    -55.8770      1.5900     78.3900
     18    -40.4910    114.6320    -56.2610      1.6800     78.3900
     19    -40.9700    113.4550    -55.8130      1.7700     78.3900
     20    -41.8330    112.7700    -56.5660      1.6800     78.3900
     21    -42.1010    113.1060    -57.4660      0.0100     78.3900
     22    -42.2010    111.8900    -56.2630      0.0100     78.3900
     23    -38.8720    116.7730    -52.7800      1.7700     78.3900
     24    -39.7320    117.1710    -53.3590      0.0100     78.3900
     25    -37.9270    117.8030    -52.5360      1.5900     78.3900
     26    -38.3520    118.4470    -51.9520      0.0100     78.3900
     27    -39.3200    116.1250    -51.4810      1.7700     78.3900
     28    -40.1150    115.3660    -51.6690      0.0100     78.3900
     29    -39.6640    117.0440    -50.4210      1.5900     78.3900
     30    -41.1690    117.5260    -50.3270      2.1000     78.3900
     31    -41.2530    118.4540    -49.1750      1.5900     78.3900
     32    -42.0530    116.3410    -50.3090      1.5900     78.3900
     33    -41.4210    118.3290    -51.6540      1.5900     78.3900
     34    -40.8620    119.6540    -51.8100      1.7700     78.3900
     35    -39.7510    119.6320    -51.7350      0.0100     78.3900
     36    -41.2490    120.3450    -51.0210      0.0100     78.3900
     37    -41.2400    120.2440    -53.1720      1.7700     78.3900
     38    -40.7190    121.2110    -53.3490      0.0100     78.3900
     39    -40.8660    119.3340    -54.2470      1.5900     78.3900
     40    -41.8470    119.4010    -55.2710      1.7700     78.3900
     41    -41.3120    119.7080    -56.1970      0.0100     78.3900
     42    -42.5070    118.1090    -55.5060      1.6800     78.3900
     43    -43.2430    117.7540    -56.6150      1.7700     78.3900
     44    -44.5440    118.4630    -59.7570      1.6800     78.3900
     45    -44.2470    119.4040    -59.9230      0.0100     78.3900
     46    -45.0500    117.9660    -60.4650      0.0100     78.3900
     47    -43.4760    118.5270    -57.7030      1.6800     78.3900
     48    -44.1910    117.8780    -58.6260      1.7700     78.3900
     49    -44.5920    116.5750    -58.4930      1.6800     78.3900
     50    -45.0850    116.1360    -59.2560      0.0100     78.3900
     51    -44.3530    115.7580    -57.3960      1.7700     78.3900
     52    -44.7340    114.5840    -57.3590      1.5900     78.3900
     53    -43.6340    116.4480    -56.3860      1.7700     78.3900
     54    -43.1920    116.0070    -55.1430      1.6800     78.3900
     55    -42.5230    117.0240    -54.6580      1.7700     78.3900
     56    -41.9970    117.0440    -53.7010      0.0100     78.3900
     57    -42.8430    120.4670    -54.8800      1.7700     78.3900
     58    -43.8730    120.2300    -55.2220      0.0100     78.3900
     59    -42.4480    121.7190    -55.4010      1.5900     78.3900
     60    -43.1790    122.3130    -55.1920      0.0100     78.3900
     61    -42.7440    120.4550    -53.3560      1.7700     78.3900
     62    -43.2300    119.5410    -52.9440      0.0100     78.3900
     63    -43.1710    121.6740    -52.6780      1.5900     78.3900
     64    -44.7390    121.8440    -52.4970      2.1000     78.3900
     65    -44.9810    122.9970    -51.6030      1.5900     78.3900
     66    -45.3170    120.5540    -52.0740      1.5900     78.3900
     67    -45.2770    122.1820    -53.9300      1.5900     78.3900
     68    -45.0630    123.4700    -54.5410      1.7700     78.3900
     69    -43.9780    123.7060    -54.6290      0.0100     78.3900
     70    -45.5370    124.2710    -53.9290      0.0100     78.3900
     71    -45.6890    123.5170    -55.9390      1.7700     78.3900
     72    -45.4300    124.4730    -56.4510      0.0100     78.3900
     73    -45.1900    122.4280    -56.7730      1.5900     78.3900
     74    -46.2500    121.9650    -57.6020      1.7700     78.3900
     75    -45.9010    122.0140    -58.6600      0.0100     78.3900
     76    -46.6110    120.5720    -57.2690      1.6800     78.3900
     77    -47.1240    119.6200    -58.1110      1.7700     78.3900
     78    -48.1950    118.6690    -61.2620      1.6800     78.3900
     79    -48.3890    117.8440    -61.7780      0.0100     78.3900
     80    -48.0890    119.5320    -61.7590      0.0100     78.3900
     81    -47.4230    119.7880    -59.4100      1.6800     78.3900
     82    -47.8380    118.6620    -59.9880      1.7700     78.3900
     83    -47.9370    117.4670    -59.3120      1.6800     78.3900
     84    -48.2140    116.6260    -59.7910      0.0100     78.3900
     85    -47.6270    117.2690    -57.9730      1.7700     78.3900
     86    -47.7190    116.1710    -57.4250      1.5900     78.3900
     87    -47.2180    118.4700    -57.3520      1.7700     78.3900
     88    -46.8230    118.7020    -56.0450      1.6800     78.3900
     89    -46.4750    119.9610    -56.0410      1.7700     78.3900
     90    -46.1050    120.5010    -55.1720      0.0100     78.3900
     91    -47.4010    122.9230    -57.4100      1.7700     78.3900
     92    -48.3700    122.4200    -57.5390      0.0100     78.3900
     93    -47.2960    124.0270    -58.2940      1.5900     78.3900
     94    -48.0030    124.6500    -58.0610      0.0100     78.3900
     95    -47.2150    123.3530    -55.9630      1.7700     78.3900
     96    -47.4660    122.5200    -55.2690      0.0100     78.3900
     97    -47.8680    124.5880    -55.5840      1.5900     78.3900
     98    -49.4300    124.6030    -55.3500      2.1000     78.3900
     99    -49.8610    126.0000    -55.1390      1.5900     78.3900
    100    -49.7340    123.6490    -54.2640      1.5900     78.3900
    101    -50.0650    124.0920    -56.6970      1.5900     78.3900
    102    -51.1930    123.1850    -56.6680      1.7700     78.3900
    103    -52.1270    123.7250    -56.3680      0.0100     78.3900
    104    -51.0330    122.3490    -55.9450      0.0100     78.3900
    105    -51.4160    122.5620    -58.0510      1.7700     78.3900
    106    -51.4880    123.3390    -58.8410      0.0100     78.3900
    107    -50.3140    121.6760    -58.3900      1.5900     78.3900
    108    -50.8150    120.4720    -58.9300      1.7700     78.3900
    109    -50.2440    120.2650    -59.8650      0.0100     78.3900
    110    -50.6560    119.3770    -57.9680      1.6800     78.3900
    111    -50.7200    117.4060    -57.0000      1.7700     78.3900
    112    -50.2000    118.2820    -56.0570      1.6800     78.3900
    113    -50.1650    119.4300    -56.6860      1.7700     78.3900
    114    -49.7810    120.3640    -56.2640      0.0100     78.3900
    115    -51.6200    115.4990    -58.0700      1.6800     78.3900
    116    -51.8310    116.2820    -59.1220      1.7700     78.3900
    117    -52.2810    115.7940    -59.9930      0.0100     78.3900
    118    -51.5150    117.5590    -59.2970      1.6800     78.3900
    119    -51.0050    118.0760    -58.1750      1.7700     78.3900
    120    -51.0210    116.0260    -56.9680      1.7700     78.3900
    121    -50.7620    115.2280    -55.9180      1.6800     78.3900
    122    -50.2720    115.5440    -55.1030      0.0100     78.3900
    123    -51.0020    114.2600    -56.0080      0.0100     78.3900
    124    -52.2680    120.7200    -59.2500      1.7700     78.3900
    125    -52.8880    119.7990    -59.2340      0.0100     78.3900
    126    -52.3910    121.3590    -60.5050      1.5900     78.3900
    127    -53.2790    121.7440    -60.5480      0.0100     78.3900
    128    -52.6480    121.6590    -58.1210      1.7700     78.3900
    129    -52.7040    121.1090    -57.1500      0.0100     78.3900
    130    -53.8080    122.4560    -58.3950      1.5900     78.3900
    131    -55.1950    122.0300    -57.8090      2.1000     78.3900
    132    -56.2200    122.9730    -58.3170      1.5900     78.3900
    133    -55.0600    121.9010    -56.3400      1.5900     78.3900
    134    -55.4160    120.6000    -58.4160      1.5900     78.3900
    135    -55.7500    120.4170    -59.8060      1.7700     78.3900
    136    -54.9230    120.7550    -60.4710      0.0100     78.3900
    137    -56.6650    120.9970    -60.0670      0.0100     78.3900
    138    -56.0490    118.9440    -60.0980      1.7700     78.3900
    139    -56.3170    118.8060    -61.1670      0.0100     78.3900
    140    -54.8870    118.1060    -59.8300      1.5900     78.3900
    141    -55.3360    116.8570    -59.3150      1.7700     78.3900
    142    -54.9430    116.0860    -60.0160      0.0100     78.3900
    143    -54.8400    116.5680    -57.9410      1.6800     78.3900
    144    -54.3840    117.5960    -57.1440      1.7700     78.3900
    145    -54.3900    118.5910    -57.5950      0.0100     78.3900
    146    -53.9260    117.3640    -55.9070      1.7700     78.3900
    147    -53.5290    118.1560    -55.2750      0.0100     78.3900
    148    -54.8790    115.2660    -57.4370      1.7700     78.3900
    149    -55.3370    114.3520    -58.1400      1.5900     78.3900
    150    -54.3970    115.0130    -56.2040      1.6800     78.3900
    151    -53.9340    116.0150    -55.4380      1.7700     78.3900
    152    -53.4530    115.7190    -54.2340      1.6800     78.3900
    153    -53.3680    114.7500    -54.0100      0.0100     78.3900
    154    -53.0220    116.4050    -53.6480      0.0100     78.3900
    155    -56.8460    116.8590    -59.3860      1.7700     78.3900
    156    -57.3110    116.2610    -58.5760      0.0100     78.3900
    157    -57.2680    116.3850    -60.6490      1.5900     78.3900
    158    -58.2190    116.5360    -60.6940      0.0100     78.3900
    159    -57.1570    118.3380    -59.2280      1.7700     78.3900
    160    -56.9670    118.6720    -58.1820      0.0100     78.3900
    161    -58.4550    118.7430    -59.7210      1.5900     78.3900
    162    -59.6890    118.6730    -58.7430      2.1000     78.3900
    163    -60.8990    119.1220    -59.4650      1.5900     78.3900
    164    -59.3590    119.3860    -57.4930      1.5900     78.3900
    165    -59.8360    117.1450    -58.4090      1.5900     78.3900
    166    -60.3450    116.2310    -59.4060      1.7700     78.3900
    167    -59.7810    116.2830    -60.3620      0.0100     78.3900
    168    -61.4090    116.4700    -59.6420      0.0100     78.3900
    169    -60.3090    114.7900    -58.8930      1.7700     78.3900
    170    -60.7030    114.0980    -59.6700      0.0100     78.3900
    171    -58.9520    114.3630    -58.5830      1.5900     78.3900
    172    -58.9860    113.4950    -57.4550      1.7700     78.3900
    173    -58.5250    112.5330    -57.7770      0.0100     78.3900
    174    -58.2220    114.0330    -56.3190      1.6800     78.3900
    175    -57.6920    113.3090    -55.2820      1.7700     78.3900
    176    -57.0780    110.2700    -53.7170      1.6800     78.3900
    177    -57.5650    109.6210    -54.3030      0.0100     78.3900
    178    -56.6090    109.9320    -52.8980      0.0100     78.3900
    179    -57.7820    111.9750    -55.1210      1.6800     78.3900
    180    -57.1110    111.5490    -54.0470      1.7700     78.3900
    181    -56.3990    112.3820    -53.2300      1.6800     78.3900
    182    -55.9290    111.9650    -52.4430      0.0100     78.3900
    183    -56.3070    113.7620    -53.3580      1.7700     78.3900
    184    -55.6440    114.4250    -52.5540      1.5900     78.3900
    185    -57.0560    114.2310    -54.4730      1.7700     78.3900
    186    -57.2430    115.5200    -54.9560      1.6800     78.3900
    187    -57.9360    115.3520    -56.0560      1.7700     78.3900
    188    -58.2670    116.1510    -56.7240      0.0100     78.3900
    189    -60.4420    113.2740    -57.0930      1.7700     78.3900
    190    -60.5890    113.1600    -55.9970      0.0100     78.3900
    191    -60.9500    112.1290    -57.7640      1.5900     78.3900
    192    -60.9230    112.2880    -58.7200      0.0100     78.3900
    193    -61.0760    114.5720    -57.5890      1.7700     78.3900
    194    -60.8370    115.4100    -56.8990      0.0100     78.3900
    195    -62.4880    114.4960    -57.8430      1.5900     78.3900
    196    -62.9590    114.3720    -57.0010      0.0100     78.3900
    197    -50.9990    107.7820    -46.3940      0.0100     78.3900
    198    -51.6680    107.7340    -47.1010      1.5900     78.3900
    199    -52.4210    106.5330    -46.8790      1.7700     78.3900
    200    -52.8770    106.5630    -45.8630      0.0100     78.3900
    201    -51.7290    105.6640    -46.9150      0.0100     78.3900
    202    -53.5310    106.3030    -47.9150      1.7700     78.3900
    203    -54.0280    105.3270    -47.7340      0.0100     78.3900
    204    -54.5590    107.3440    -47.8230      1.5900     78.3900
    205    -55.0320    107.6380    -49.1400      1.7700     78.3900
    206    -56.1370    107.4940    -49.1120      0.0100     78.3900
    207    -54.7230    109.0280    -49.5870      1.6800     78.3900
    208    -53.7440    109.7590    -48.9520      1.7700     78.3900
    209    -53.2620    109.2820    -48.0940      0.0100     78.3900
    210    -53.4330    110.9980    -49.3500      1.7700     78.3900
    211    -52.6700    111.5920    -48.8520      0.0100     78.3900
    212    -55.3770    109.5710    -50.6960      1.7700     78.3900
    213    -56.2170    108.8880    -51.3020      1.5900     78.3900
    214    -55.0940    110.8330    -51.0940      1.6800     78.3900
    215    -54.1350    111.5370    -50.4640      1.7700     78.3900
    216    -53.8420    112.7670    -50.8890      1.6800     78.3900
    217    -54.3540    113.1840    -51.6380      0.0100     78.3900
    218    -53.1310    113.3130    -50.4450      0.0100     78.3900
    219    -54.4230    106.6080    -50.0650      1.7700     78.3900
    220    -54.2850    106.9870    -51.1000      0.0100     78.3900
    221    -55.2260    105.4440    -50.0850      1.5900     78.3900
    222    -54.7000    104.7500    -50.5020      0.0100     78.3900
    223    -53.0850    106.3520    -49.3830      1.7700     78.3900
    224    -52.4210    107.2430    -49.4850      0.0100     78.3900
    225    -52.4290    105.1150    -49.7540      1.5900     78.3900
    226    -51.4540    105.1480    -51.0040      2.1000     78.3900
    227    -50.9120    103.7870    -51.2160      1.5900     78.3900
    228    -50.4600    106.2310    -50.8310      1.5900     78.3900
    229    -52.3940    105.5280    -52.2020      1.5900     78.3900
    230    -53.2980    104.5470    -52.7560      1.7700     78.3900
    231    -54.0110    104.1700    -51.9890      0.0100     78.3900
    232    -52.7330    103.6710    -53.1510      0.0100     78.3900
    233    -54.1020    105.1270    -53.9240      1.7700     78.3900
    234    -54.8510    104.3910    -54.2880      0.0100     78.3900
    235    -54.8270    106.3250    -53.5320      1.5900     78.3900
    236    -54.8500    107.2200    -54.6350      1.7700     78.3900
    237    -55.9210    107.4400    -54.8490      0.0100     78.3900
    238    -54.1470    108.4750    -54.3430      1.6800     78.3900
    239    -54.2460    109.6410    -55.0600      1.7700     78.3900
    240    -55.6850    111.5280    -57.6030      1.6800     78.3900
    241    -56.2610    110.8610    -58.0770      0.0100     78.3900
    242    -55.7090    112.4910    -57.8780      0.0100     78.3900
    243    -55.0150    109.8430    -56.1510      1.6800     78.3900
    244    -54.9870    111.1150    -56.5570      1.7700     78.3900
    245    -54.2430    112.0840    -55.9360      1.6800     78.3900
    246    -54.2890    113.0290    -56.2900      0.0100     78.3900
    247    -53.4090    111.8930    -54.8390      1.7700     78.3900
    248    -52.7560    112.8130    -54.3370      1.5900     78.3900
    249    -53.4340    110.5440    -54.4000      1.7700     78.3900
    250    -52.7980    109.9430    -53.3200      1.6800     78.3900
    251    -53.2480    108.7120    -53.3260      1.7700     78.3900
    252    -52.9820    107.9320    -52.6070      0.0100     78.3900
    253    -54.2250    106.5080    -55.8110      1.7700     78.3900
    254    -53.6920    107.2020    -56.4970      0.0100     78.3900
    255    -55.2010    105.7840    -56.5330      1.5900     78.3900
    256    -54.7330    105.4350    -57.3030      0.0100     78.3900
    257    -53.2480    105.5710    -55.1110      1.7700     78.3900
    258    -52.3840    106.1390    -54.6960      0.0100     78.3900
    259    -52.8300    104.4110    -55.8550      1.5900     78.3900
    260    -51.7320    104.5200    -56.9700      2.1000     78.3900
    261    -51.4650    103.1590    -57.4820      1.5900     78.3900
    262    -50.5680    105.2620    -56.4330      1.5900     78.3900
    263    -52.4120    105.3680    -58.1050      1.5900     78.3900
[...]
   340   11   6.0   2.09    3.7    0.006749    0.182488    0.161482
   341   11   1.0   0.00    0.0    0.000000    0.306266    0.324484
   342   11   6.0  10.04   17.7   -0.032393   -0.396105   -0.401328
   343   11   1.0   0.00    0.0    0.000000    0.265278    0.270372
   344   11   6.0   0.00    0.0   -0.000012    1.042286    1.076096
   345   11   8.0   0.67    1.5    0.020611   -0.792100   -0.773807
   346   11   7.0   0.00    0.0    0.000000   -0.810641   -0.818517
   347   11   6.0   0.00    0.0    0.000000    0.733335    0.749240
   348   11   7.0  12.85   25.2   -0.095761   -0.938809   -0.976836
   349   11   1.0   0.00    0.0    0.000000    0.460070    0.483839
   350   11   1.0   0.00    0.0    0.000000    0.440950    0.438459
   351   11   6.0   0.00    0.0    0.000000    0.124079    0.094124
   352   11   1.0   0.00    0.0    0.000000    0.216542    0.251714
   353   11   8.0  14.57   31.8    0.074589   -0.829336   -0.849560
   354   11   1.0   0.00    0.0    0.000000    0.502385    0.525955
   355   11   6.0   1.89    3.3   -0.029738    0.149142    0.120591
   356   11   1.0   0.00    0.0    0.000000    0.240096    0.242441
   357   11   8.0   3.54    7.7    0.051033   -0.783497   -0.790080
   358   11  15.0   8.74   11.0    0.123984    1.593324    1.642232
   359   11   8.0  18.04   39.4    0.369360   -0.897111   -0.892177
   360   11   8.0  14.99   32.8    0.342873   -0.894657   -0.894270
   361   11   8.0   0.60    1.3    0.016101   -0.969803   -0.779139
   362   12   6.0  11.96   21.1   -0.092757    0.217343   -0.033949
   363   12   1.0   0.00    0.0    0.000000    0.150321    0.173541
   364   12   1.0   0.00    0.0    0.000000    0.247023    0.226425
   365   12   6.0   5.70   10.1   -0.037652    0.085222    0.164146
   366   12   1.0   0.00    0.0    0.000000    0.249551    0.216996
   367   12   8.0   2.77    6.0    0.045987   -0.726138   -0.732294
   368   12   6.0   3.08    5.4   -0.036408    0.426460    0.424783
   369   12   1.0   0.00    0.0    0.000000    0.247867    0.245591
   370   12   7.0   0.00    0.0    0.000000   -0.787083   -0.797381
   371   12   6.0   1.73    3.1    0.004364    0.709613    0.712067
   372   12   7.0  12.27   24.0   -0.074626   -0.973311   -1.042347
   373   12   1.0   0.00    0.0    0.000000    0.445776    0.439538
   374   12   1.0   0.00    0.0    0.000000    0.478092    0.516400
   375   12   7.0   6.71   13.1    0.094895   -0.748956   -0.753948
   376   12   6.0   2.91    5.1   -0.002986    0.968162    0.964328
   377   12   7.0   2.55    5.0    0.002624   -0.929834   -1.014412
   378   12   1.0   0.00    0.0    0.000000    0.468763    0.520668
   379   12   6.0   1.90    3.3    0.000964    0.854983    0.871716
   380   12   8.0  12.57   27.5    0.195634   -0.739473   -0.742509
   381   12   6.0   1.00    1.8    0.008066   -0.031985   -0.022997
   382   12   7.0   9.80   19.2    0.151222   -0.601963   -0.599078
   383   12   6.0   3.59    6.3    0.002205    0.272260    0.270040
   384   12   1.0   0.00    0.0    0.000000    0.262019    0.272582
   385   12   6.0   7.27   12.8   -0.056449    0.109993    0.110415
   386   12   1.0   0.00    0.0    0.000000    0.226262    0.225870
   387   12   8.0  20.50   44.8    0.033361   -0.841170   -0.845353
   388   12   1.0   0.00    0.0    0.000000    0.506888    0.505404
   389   12   6.0   5.92   10.5   -0.053864    0.161790    0.144965
   390   12   1.0   0.00    0.0    0.000000    0.222087    0.227624
   391   12   8.0  21.55   47.1   -0.011796   -0.850759   -0.856655
   392   12   1.0   0.00    0.0    0.000000    0.507975    0.506626

 Done with FMO properties.
 CPU     0: STEP CPU TIME=     0.00 TOTAL CPU TIME=      22597.3 (    376.6 MIN)
 TOTAL WALL CLOCK TIME=      50947.5 SECONDS, CPU UTILIZATION IS    44.35%
 CPU     0: STEP CPU TIME=     0.00 TOTAL CPU TIME=      22597.3 (    376.6 MIN)
 TOTAL WALL CLOCK TIME=      50947.5 SECONDS, CPU UTILIZATION IS    44.35%

 Total timing statistics in pairs (CPU,wall) for each rank, sec

    Rank   total     SCF    corr     DFT    CPHF     EFP    solv     ESP    geom
 -------------------------------------------------------------------------------
       1   22597.3   6289.7   8795.4      0.0    0.0   0.0  196.6  6892.0    0.0
       1   50947.7  13466.2  21930.8      0.0    0.0   0.0  552.6 14011.8    0.0
       2   22707.5   6253.6   8917.0      0.0    0.0   0.0  198.0  6921.3    0.0
       2   50947.6  13466.4  21930.2      0.0    0.0   0.0  552.8 14010.9    0.0
       3   22516.4   6263.6   8720.4      0.0    0.0   0.0  197.5  6918.5    0.0
       3   50947.7  13466.0  21930.1      0.0    0.0   0.0  552.9 14011.3    0.0
       4   22545.0   6257.7   8792.3      0.0    0.0   0.0  197.0  6876.0    0.0
       4   50947.7  13467.2  21930.1      0.0    0.0   0.0  551.5 14011.2    0.0
       5   22651.6   6316.8   8840.6      0.0    0.0   0.0  197.6  6884.8    0.0
       5   50947.7  13466.5  21930.1      0.0    0.0   0.0  552.7 14011.2    0.0
       6   22732.7   6244.9   8927.4      0.0    0.0   0.0  197.8  6944.5    0.0
       6   50947.6  13467.3  21930.1      0.0    0.0   0.0  551.6 14011.0    0.0
       7   23158.3   6326.8   9282.3      0.0    0.0   0.0  197.0  6935.4    0.0
       7   50947.6  13467.3  21930.0      0.0    0.0   0.0  551.7 14011.0    0.0
       8   22858.3   6302.5   9021.4      0.0    0.0   0.0  196.3  6904.7    0.0
       8   50947.7  13468.2  21930.3      0.0    0.0   0.0  550.5 14010.9    0.0
       9   22954.6   6361.3   9067.3      0.0    0.0   0.0  194.4  6913.2    0.0
       9   50947.7  13467.6  21930.1      0.0    0.0   0.0  551.4 14011.3    0.0
      10   22946.2   6355.1   9018.7      0.0    0.0   0.0  195.5  6948.2    0.0
      10   50947.6  13467.5  21930.1      0.0    0.0   0.0  551.4 14011.1    0.0
      11   22818.2   6354.1   8967.2      0.0    0.0   0.0  193.8  6875.5    0.0
      11   50947.7  13468.5  21930.1      0.0    0.0   0.0  550.6 14011.0    0.0
      12   22672.9   6291.1   8967.3      0.0    0.0   0.0  193.8  6802.6    0.0
      12   50947.6  13468.5  21930.1      0.0    0.0   0.0  550.0 14010.9    0.0
      13   22431.4   6280.1   8711.0      0.0    0.0   0.0  193.1  6840.9    0.0
      13   50947.6  13469.7  21930.0      0.0    0.0   0.0  550.0 14010.8    0.0
      14   22621.3   6272.4   8880.8      0.0    0.0   0.0  192.9  6857.0    0.0
      14   50947.6  13468.9  21930.0      0.0    0.0   0.0  549.7 14010.7    0.0
      15   22771.3   6286.2   9012.5      0.0    0.0   0.0  192.6  6867.7    0.0
      15   50947.7  13469.5  21930.1      0.0    0.0   0.0  549.3 14010.7    0.0
      16   22936.1   6358.9   9141.7      0.0    0.0   0.0  192.7  6836.7    0.0
      16   50947.6  13469.8  21930.1      0.0    0.0   0.0  548.4 14010.6    0.0
averaged   22744.9   6300.9   8941.5      0.0    0.0   0.0  195.4  6888.7    0.0
averaged   50947.6  13467.8  21930.1      0.0    0.0   0.0  551.1 14011.0    0.0

  FMO  timing statistics in pairs (CPU,wall) for each rank, sec

    Rank  FMOini FMOscf1  FMOdm1 FMOsyn1 FMOscf2  FMOes2 FMOsyn2 FMOscf3 FMOsyn3
 -------------------------------------------------------------------------------
       1    2.6    8414.7    0.4    0.0   13879.1     300.4    0.0    0.0    0.0
       1    6.5   17536.9    4.6    0.0   32779.2     620.1    0.0    0.0    0.0
       2    1.9    8382.3    0.1    0.0   14023.7     299.5    0.0    0.0    0.0
       2    6.6   17536.8    4.6    0.0   32779.5     619.8    0.0    0.0    0.0
       3    2.1    8394.4    0.2    0.0   13820.7     298.9    0.0    0.0    0.0
       3    6.5   17536.9    4.6    0.0   32779.5     619.7    0.0    0.0    0.0
       4    1.9    8306.9    0.0    0.0   13930.6     305.5    0.0    0.0    0.0
       4    6.5   17536.9    4.6    0.0   32779.6     619.6    0.0    0.0    0.0
       5    2.3    8374.3    0.2    0.0   13982.7     292.0    0.0    0.0    0.0
       5    6.5   17536.8    4.6    0.0   32779.8     619.4    0.0    0.0    0.0
       6    2.0    8323.8    0.1    0.0   14105.9     300.9    0.0    0.0    0.0
       6    6.5   17536.8    4.6    0.0   32779.0     620.3    0.0    0.0    0.0
       7    2.1    8310.5    0.2    0.0   14545.7     299.9    0.0    0.0    0.0
       7    6.5   17536.8    4.6    0.0   32780.9     618.3    0.0    0.0    0.0
       8    1.8    8331.6    0.1    0.0   14205.4     319.3    0.0    0.0    0.0
       8    6.5   17536.8    4.6    0.0   32778.7     620.5    0.0    0.0    0.0
       9    2.2    8320.0    0.4    0.0   14331.9     300.1    0.0    0.0    0.0
       9    6.5   17536.8    4.6    0.0   32779.1     620.2    0.0    0.0    0.0
      10    1.8    8372.4    0.1    0.0   14258.2     313.6    0.0    0.0    0.0
      10    6.5   17536.8    4.6    0.0   32780.5     618.8    0.0    0.0    0.0
      11    1.9    8291.8    0.2    0.0   14210.8     313.5    0.0    0.0    0.0
      11    6.5   17536.9    4.6    0.0   32780.1     619.1    0.0    0.0    0.0
      12    1.7    8260.8    0.1    0.0   14104.0     306.2    0.0    0.0    0.0
      12    6.5   17536.8    4.6    0.0   32780.4     618.9    0.0    0.0    0.0
      13    2.1    8258.4    0.2    0.0   13878.1     292.6    0.0    0.0    0.0
      13    6.5   17536.8    4.6    0.0   32780.3     619.0    0.0    0.0    0.0
      14    1.7    8274.2    0.1    0.0   14038.9     306.4    0.0    0.0    0.0
      14    6.5   17536.8    4.6    0.0   32780.0     619.3    0.0    0.0    0.0
      15    1.9    8289.3    0.2    0.0   14179.9     300.0    0.0    0.0    0.0
      15    6.5   17536.8    4.6    0.0   32779.8     619.5    0.0    0.0    0.0
      16    1.7    8253.8    0.1    0.0   14385.9     294.6    0.0    0.0    0.0
      16    6.5   17536.9    4.6    0.0   32780.0     619.2    0.0    0.0    0.0
averaged    2.0    8322.4    0.2    0.0   14117.6     302.7    0.0    0.0    0.0
averaged    6.6   17536.8    4.6    0.0   32779.8     619.5    0.0    0.0    0.0
             62736249  WORDS OF DYNAMIC MEMORY USED
 EXECUTION OF GAMESS TERMINATED NORMALLY Sat Dec  7 21:58:57 2019
 DDI: 263640 bytes (0.3 MB / 0 MWords) used by master data server.

 ----------------------------------------
 CPU timing information for all processes
 ========================================
 0: 22065.216 + 532.98 = 22597.315
 1: 22210.749 + 496.822 = 22707.572
 2: 21979.147 + 537.269 = 22516.416
 3: 22045.403 + 499.632 = 22545.36
 4: 22125.09 + 526.625 = 22651.634
 5: 22209.408 + 523.301 = 22732.709
 6: 22627.36 + 531.351 = 23158.388
 7: 22344.710 + 513.588 = 22858.299
 8: 22419.980 + 534.611 = 22954.591
 9: 22434.509 + 511.689 = 22946.199
 10: 22316.31 + 502.159 = 22818.191
 11: 22178.791 + 494.181 = 22672.972
 12: 21937.360 + 494.115 = 22431.475
 13: 22136.641 + 484.707 = 22621.348
 14: 22253.932 + 517.401 = 22771.333
 15: 22429.652 + 506.461 = 22936.114
 ----------------------------------------
 ddikick.x: exited gracefully.
unset echo
----- accounting info -----
Files used on the master node gollum050.lsa.umich.edu were:
-rw-r--r-- 1 hazwong frank    21017 Dec  7 07:49 /scratch/hazwong/824319/1MIS_6/usrc/1MIS_6_fmo_input.F05
-rw-r--r-- 1 hazwong frank      634 Dec  7 21:59 /scratch/hazwong/824319/1MIS_6/usrc/1MIS_6_fmo_input.F06.001
-rw-r--r-- 1 hazwong frank      634 Dec  7 21:58 /scratch/hazwong/824319/1MIS_6/usrc/1MIS_6_fmo_input.F06.002
-rw-r--r-- 1 hazwong frank      634 Dec  7 21:58 /scratch/hazwong/824319/1MIS_6/usrc/1MIS_6_fmo_input.F06.003
-rw-r--r-- 1 hazwong frank      634 Dec  7 21:58 /scratch/hazwong/824319/1MIS_6/usrc/1MIS_6_fmo_input.F06.004
-rw-r--r-- 1 hazwong frank      634 Dec  7 21:59 /scratch/hazwong/824319/1MIS_6/usrc/1MIS_6_fmo_input.F06.005
-rw-r--r-- 1 hazwong frank      634 Dec  7 21:58 /scratch/hazwong/824319/1MIS_6/usrc/1MIS_6_fmo_input.F06.006
-rw-r--r-- 1 hazwong frank      634 Dec  7 21:59 /scratch/hazwong/824319/1MIS_6/usrc/1MIS_6_fmo_input.F06.007
-rw-r--r-- 1 hazwong frank      634 Dec  7 21:59 /scratch/hazwong/824319/1MIS_6/usrc/1MIS_6_fmo_input.F06.008
-rw-r--r-- 1 hazwong frank      634 Dec  7 21:59 /scratch/hazwong/824319/1MIS_6/usrc/1MIS_6_fmo_input.F06.009
-rw-r--r-- 1 hazwong frank      634 Dec  7 21:59 /scratch/hazwong/824319/1MIS_6/usrc/1MIS_6_fmo_input.F06.010
-rw-r--r-- 1 hazwong frank      634 Dec  7 21:59 /scratch/hazwong/824319/1MIS_6/usrc/1MIS_6_fmo_input.F06.011
-rw-r--r-- 1 hazwong frank      634 Dec  7 21:59 /scratch/hazwong/824319/1MIS_6/usrc/1MIS_6_fmo_input.F06.012
-rw-r--r-- 1 hazwong frank      634 Dec  7 21:59 /scratch/hazwong/824319/1MIS_6/usrc/1MIS_6_fmo_input.F06.013
-rw-r--r-- 1 hazwong frank      634 Dec  7 21:59 /scratch/hazwong/824319/1MIS_6/usrc/1MIS_6_fmo_input.F06.014
-rw-r--r-- 1 hazwong frank      634 Dec  7 21:59 /scratch/hazwong/824319/1MIS_6/usrc/1MIS_6_fmo_input.F06.015
-rw-r--r-- 1 hazwong frank    12735 Dec  7 21:58 /scratch/hazwong/824319/1MIS_6/usrc/1MIS_6_fmo_input.F07
-rw-r--r-- 1 hazwong frank        0 Dec  7 07:49 /scratch/hazwong/824319/1MIS_6/usrc/1MIS_6_fmo_input.F07.001
-rw-r--r-- 1 hazwong frank        0 Dec  7 07:49 /scratch/hazwong/824319/1MIS_6/usrc/1MIS_6_fmo_input.F07.002
-rw-r--r-- 1 hazwong frank        0 Dec  7 07:49 /scratch/hazwong/824319/1MIS_6/usrc/1MIS_6_fmo_input.F07.003
-rw-r--r-- 1 hazwong frank        0 Dec  7 07:49 /scratch/hazwong/824319/1MIS_6/usrc/1MIS_6_fmo_input.F07.004
-rw-r--r-- 1 hazwong frank        0 Dec  7 07:49 /scratch/hazwong/824319/1MIS_6/usrc/1MIS_6_fmo_input.F07.005
-rw-r--r-- 1 hazwong frank        0 Dec  7 07:49 /scratch/hazwong/824319/1MIS_6/usrc/1MIS_6_fmo_input.F07.006
-rw-r--r-- 1 hazwong frank        0 Dec  7 07:49 /scratch/hazwong/824319/1MIS_6/usrc/1MIS_6_fmo_input.F07.007
-rw-r--r-- 1 hazwong frank        0 Dec  7 07:49 /scratch/hazwong/824319/1MIS_6/usrc/1MIS_6_fmo_input.F07.008
-rw-r--r-- 1 hazwong frank        0 Dec  7 07:49 /scratch/hazwong/824319/1MIS_6/usrc/1MIS_6_fmo_input.F07.009
-rw-r--r-- 1 hazwong frank        0 Dec  7 07:49 /scratch/hazwong/824319/1MIS_6/usrc/1MIS_6_fmo_input.F07.010
-rw-r--r-- 1 hazwong frank        0 Dec  7 07:49 /scratch/hazwong/824319/1MIS_6/usrc/1MIS_6_fmo_input.F07.011
-rw-r--r-- 1 hazwong frank        0 Dec  7 07:49 /scratch/hazwong/824319/1MIS_6/usrc/1MIS_6_fmo_input.F07.012
-rw-r--r-- 1 hazwong frank        0 Dec  7 07:49 /scratch/hazwong/824319/1MIS_6/usrc/1MIS_6_fmo_input.F07.013
-rw-r--r-- 1 hazwong frank        0 Dec  7 07:49 /scratch/hazwong/824319/1MIS_6/usrc/1MIS_6_fmo_input.F07.014
-rw-r--r-- 1 hazwong frank        0 Dec  7 07:49 /scratch/hazwong/824319/1MIS_6/usrc/1MIS_6_fmo_input.F07.015
-rw-r--r-- 1 hazwong frank    65440 Dec  7 21:59 /scratch/hazwong/824319/1MIS_6/usrc/1MIS_6_fmo_input.F10.000
-rw-r--r-- 1 hazwong frank        0 Dec  7 07:49 /scratch/hazwong/824319/1MIS_6/usrc/1MIS_6_fmo_input.F26.000
-rw-r--r-- 1 hazwong frank        0 Dec  7 07:49 /scratch/hazwong/824319/1MIS_6/usrc/1MIS_6_fmo_input.F26.001
-rw-r--r-- 1 hazwong frank        0 Dec  7 07:49 /scratch/hazwong/824319/1MIS_6/usrc/1MIS_6_fmo_input.F26.002
-rw-r--r-- 1 hazwong frank        0 Dec  7 07:49 /scratch/hazwong/824319/1MIS_6/usrc/1MIS_6_fmo_input.F26.003
-rw-r--r-- 1 hazwong frank        0 Dec  7 07:49 /scratch/hazwong/824319/1MIS_6/usrc/1MIS_6_fmo_input.F26.004
-rw-r--r-- 1 hazwong frank        0 Dec  7 07:49 /scratch/hazwong/824319/1MIS_6/usrc/1MIS_6_fmo_input.F26.005
-rw-r--r-- 1 hazwong frank        0 Dec  7 07:49 /scratch/hazwong/824319/1MIS_6/usrc/1MIS_6_fmo_input.F26.006
-rw-r--r-- 1 hazwong frank        0 Dec  7 07:49 /scratch/hazwong/824319/1MIS_6/usrc/1MIS_6_fmo_input.F26.007
-rw-r--r-- 1 hazwong frank        0 Dec  7 07:49 /scratch/hazwong/824319/1MIS_6/usrc/1MIS_6_fmo_input.F26.008
-rw-r--r-- 1 hazwong frank        0 Dec  7 07:49 /scratch/hazwong/824319/1MIS_6/usrc/1MIS_6_fmo_input.F26.009
-rw-r--r-- 1 hazwong frank        0 Dec  7 07:49 /scratch/hazwong/824319/1MIS_6/usrc/1MIS_6_fmo_input.F26.010
-rw-r--r-- 1 hazwong frank        0 Dec  7 07:49 /scratch/hazwong/824319/1MIS_6/usrc/1MIS_6_fmo_input.F26.011
-rw-r--r-- 1 hazwong frank        0 Dec  7 07:49 /scratch/hazwong/824319/1MIS_6/usrc/1MIS_6_fmo_input.F26.012
-rw-r--r-- 1 hazwong frank        0 Dec  7 07:49 /scratch/hazwong/824319/1MIS_6/usrc/1MIS_6_fmo_input.F26.013
-rw-r--r-- 1 hazwong frank        0 Dec  7 07:49 /scratch/hazwong/824319/1MIS_6/usrc/1MIS_6_fmo_input.F26.014
-rw-r--r-- 1 hazwong frank        0 Dec  7 07:49 /scratch/hazwong/824319/1MIS_6/usrc/1MIS_6_fmo_input.F26.015
-rw-r--r-- 1 hazwong frank        0 Dec  7 07:49 /scratch/hazwong/824319/1MIS_6/usrc/1MIS_6_fmo_input.F27.000
-rw-r--r-- 1 hazwong frank        0 Dec  7 07:49 /scratch/hazwong/824319/1MIS_6/usrc/1MIS_6_fmo_input.F27.001
-rw-r--r-- 1 hazwong frank        0 Dec  7 07:49 /scratch/hazwong/824319/1MIS_6/usrc/1MIS_6_fmo_input.F27.002
-rw-r--r-- 1 hazwong frank        0 Dec  7 07:49 /scratch/hazwong/824319/1MIS_6/usrc/1MIS_6_fmo_input.F27.003
-rw-r--r-- 1 hazwong frank        0 Dec  7 07:49 /scratch/hazwong/824319/1MIS_6/usrc/1MIS_6_fmo_input.F27.004
-rw-r--r-- 1 hazwong frank        0 Dec  7 07:49 /scratch/hazwong/824319/1MIS_6/usrc/1MIS_6_fmo_input.F27.005
-rw-r--r-- 1 hazwong frank        0 Dec  7 07:49 /scratch/hazwong/824319/1MIS_6/usrc/1MIS_6_fmo_input.F27.006
-rw-r--r-- 1 hazwong frank        0 Dec  7 07:49 /scratch/hazwong/824319/1MIS_6/usrc/1MIS_6_fmo_input.F27.007
-rw-r--r-- 1 hazwong frank        0 Dec  7 07:49 /scratch/hazwong/824319/1MIS_6/usrc/1MIS_6_fmo_input.F27.008
-rw-r--r-- 1 hazwong frank        0 Dec  7 07:49 /scratch/hazwong/824319/1MIS_6/usrc/1MIS_6_fmo_input.F27.009
-rw-r--r-- 1 hazwong frank        0 Dec  7 07:49 /scratch/hazwong/824319/1MIS_6/usrc/1MIS_6_fmo_input.F27.010
-rw-r--r-- 1 hazwong frank        0 Dec  7 07:49 /scratch/hazwong/824319/1MIS_6/usrc/1MIS_6_fmo_input.F27.011
-rw-r--r-- 1 hazwong frank        0 Dec  7 07:49 /scratch/hazwong/824319/1MIS_6/usrc/1MIS_6_fmo_input.F27.012
-rw-r--r-- 1 hazwong frank        0 Dec  7 07:49 /scratch/hazwong/824319/1MIS_6/usrc/1MIS_6_fmo_input.F27.013
-rw-r--r-- 1 hazwong frank        0 Dec  7 07:49 /scratch/hazwong/824319/1MIS_6/usrc/1MIS_6_fmo_input.F27.014
-rw-r--r-- 1 hazwong frank        0 Dec  7 07:49 /scratch/hazwong/824319/1MIS_6/usrc/1MIS_6_fmo_input.F27.015
-rw-r--r-- 1 hazwong frank 25116672 Dec  7 12:42 /scratch/hazwong/824319/1MIS_6/usrc/1MIS_6_fmo_input.F40.000
-rw-r--r-- 1 hazwong frank 25116672 Dec  7 12:42 /scratch/hazwong/824319/1MIS_6/usrc/1MIS_6_fmo_input.F40.001
-rw-r--r-- 1 hazwong frank 25116672 Dec  7 12:42 /scratch/hazwong/824319/1MIS_6/usrc/1MIS_6_fmo_input.F40.002
-rw-r--r-- 1 hazwong frank 25116672 Dec  7 12:42 /scratch/hazwong/824319/1MIS_6/usrc/1MIS_6_fmo_input.F40.003
-rw-r--r-- 1 hazwong frank 25116672 Dec  7 12:42 /scratch/hazwong/824319/1MIS_6/usrc/1MIS_6_fmo_input.F40.004
-rw-r--r-- 1 hazwong frank 25116672 Dec  7 12:42 /scratch/hazwong/824319/1MIS_6/usrc/1MIS_6_fmo_input.F40.005
-rw-r--r-- 1 hazwong frank 25116672 Dec  7 12:42 /scratch/hazwong/824319/1MIS_6/usrc/1MIS_6_fmo_input.F40.006
-rw-r--r-- 1 hazwong frank 25116672 Dec  7 12:42 /scratch/hazwong/824319/1MIS_6/usrc/1MIS_6_fmo_input.F40.007
-rw-r--r-- 1 hazwong frank 25116672 Dec  7 12:42 /scratch/hazwong/824319/1MIS_6/usrc/1MIS_6_fmo_input.F40.008
-rw-r--r-- 1 hazwong frank 25116672 Dec  7 12:42 /scratch/hazwong/824319/1MIS_6/usrc/1MIS_6_fmo_input.F40.009
-rw-r--r-- 1 hazwong frank 25116672 Dec  7 12:42 /scratch/hazwong/824319/1MIS_6/usrc/1MIS_6_fmo_input.F40.010
-rw-r--r-- 1 hazwong frank 25116672 Dec  7 12:42 /scratch/hazwong/824319/1MIS_6/usrc/1MIS_6_fmo_input.F40.011
-rw-r--r-- 1 hazwong frank 25116672 Dec  7 12:42 /scratch/hazwong/824319/1MIS_6/usrc/1MIS_6_fmo_input.F40.012
-rw-r--r-- 1 hazwong frank 25116672 Dec  7 12:42 /scratch/hazwong/824319/1MIS_6/usrc/1MIS_6_fmo_input.F40.013
-rw-r--r-- 1 hazwong frank 25116672 Dec  7 12:42 /scratch/hazwong/824319/1MIS_6/usrc/1MIS_6_fmo_input.F40.014
-rw-r--r-- 1 hazwong frank 25116672 Dec  7 12:42 /scratch/hazwong/824319/1MIS_6/usrc/1MIS_6_fmo_input.F40.015
ls: No match.
ls: No match.
ls: No match.
Sat Dec  7 21:59:01 EST 2019
0.186u 0.102s 14:09:11.19 0.0%	0+0k 312+152io 5pf+0w
