‘2LBJ_1_fmo_input.inp’ -> ‘/scratch/hazwong/820845/./2LBJ_1_fmo_input.inp’
‘rungms’ -> ‘/scratch/hazwong/820845/./rungms’
‘gms-files.csh’ -> ‘/scratch/hazwong/820845/./gms-files.csh’
----- GAMESS execution script 'rungms' -----
This job is running on host gollum060.lsa.umich.edu
under operating system Linux at Fri Dec 6 00:44:06 EST 2019
Available scratch disk space (Kbyte units) at beginning of the job is
Filesystem     1K-blocks  Used Available Use% Mounted on
/dev/sda4      426933580 33468 426900112   1% /scratch
GAMESS temporary binary files will be written to /scratch/hazwong/820845/2LBJ_1/usrc
GAMESS supplementary output files will be written to /scratch/hazwong/820845/2LBJ_1/src
Copying input file 2LBJ_1_fmo_input.inp to your run's scratch directory...
cp 2LBJ_1_fmo_input.inp /scratch/hazwong/820845/2LBJ_1/usrc/2LBJ_1_fmo_input.F05
unset echo
This is a GDDI run, keeping various output files on local disks
setenv OUTPUT /scratch/hazwong/820845/2LBJ_1/usrc/2LBJ_1_fmo_input.F06
setenv PUNCH /scratch/hazwong/820845/2LBJ_1/usrc/2LBJ_1_fmo_input.F07
unset echo
 
Assuming a single but multicore node.
 
/export/apps/CentOS7/gamess/src/build//ddikick.x /export/apps/CentOS7/gamess/src/build//gamess.R3.x 2LBJ_1_fmo_input -ddi 1 16 gollum060.lsa.umich.edu:cpus=16 -scr /scratch/hazwong/820845/2LBJ_1/usrc

 Distributed Data Interface kickoff program.
 Initiating 16 compute processes on 1 nodes to run the following command:
 /export/apps/CentOS7/gamess/src/build//gamess.R3.x 2LBJ_1_fmo_input 

          ******************************************************
          *         GAMESS VERSION = 30 SEP 2018 (R3)         *
          *             FROM IOWA STATE UNIVERSITY             *
          * M.W.SCHMIDT, K.K.BALDRIDGE, J.A.BOATZ, S.T.ELBERT, *
          *   M.S.GORDON, J.H.JENSEN, S.KOSEKI, N.MATSUNAGA,   *
          *          K.A.NGUYEN, S.J.SU, T.L.WINDUS,           *
          *       TOGETHER WITH M.DUPUIS, J.A.MONTGOMERY       *
          *         J.COMPUT.CHEM.  14, 1347-1363(1993)        *
          **************** 64 BIT LINUX VERSION ****************

  SINCE 1993, STUDENTS AND POSTDOCS WORKING AT IOWA STATE UNIVERSITY
  AND ALSO IN THEIR VARIOUS JOBS AFTER LEAVING ISU HAVE MADE IMPORTANT
  CONTRIBUTIONS TO THE CODE:
     IVANA ADAMOVIC, CHRISTINE AIKENS, YURI ALEXEEV, POOJA ARORA,
     ANDREY ASADCHEV, ROB BELL, PRADIPTA BANDYOPADHYAY, JONATHAN BENTZ,
     BRETT BODE, KURT BRORSEN, CALEB CARLIN, GALINA CHABAN, WEI CHEN,
     CHEOL HO CHOI, PAUL DAY, ALBERT DEFUSCO, NUWAN DESILVA, TIM DUDLEY,
     DMITRI FEDOROV, ALEX FINDLATER, GRAHAM FLETCHER, MARK FREITAG,
     KURT GLAESEMANN, ANASTASIA GUNINA,
     DAN KEMP, GRANT MERRILL, NORIYUKI MINEZAWA, JONATHAN MULLIN,
     TAKESHI NAGATA, SEAN NEDD, HEATHER NETZLOFF, BOSILJKA NJEGIC, RYAN OLSON,
     MIKE PAK, BUU PHAM,
     SPENCER PRUITT, LUKE ROSKOP, JIM SHOEMAKER, LYUDMILA SLIPCHENKO,
     TONY SMITH, SAROM SOK LEANG, JIE SONG, TETSUYA TAKETSUGU, SIMON WEBB,
     PENG XU, SOOHAENG YOO, FEDERICO ZAHARIEV

  ADDITIONAL CODE HAS BEEN PROVIDED BY COLLABORATORS IN OTHER GROUPS:
     IOWA STATE UNIVERSITY:
          JOE IVANIC, AARON WEST, LAIMUTIS BYTAUTAS, KLAUS RUEDENBERG
     UNIVERSITY OF TOKYO: KIMIHIKO HIRAO, TAKAHITO NAKAJIMA,
          TAKAO TSUNEDA, MUNEAKI KAMIYA, SUSUMU YANAGISAWA,
          KIYOSHI YAGI, MAHITO CHIBA, SEIKEN TOKURA, NAOAKI KAWAKAMI
     UNIVERSITY OF AARHUS: FRANK JENSEN
     UNIVERSITY OF IOWA: VISVALDAS KAIRYS, HUI LI
     NATIONAL INST. OF STANDARDS AND TECHNOLOGY: WALT STEVENS, DAVID GARMER
     UNIVERSITY OF PISA: BENEDETTA MENNUCCI, JACOPO TOMASI
     UNIVERSITY OF MEMPHIS: HENRY KURTZ, PRAKASHAN KORAMBATH
     UNIVERSITY OF ALBERTA: TOBY ZENG, MARIUSZ KLOBUKOWSKI
     UNIVERSITY OF NEW ENGLAND: MARK SPACKMAN
     MIE UNIVERSITY: HIROAKI UMEDA
     NAT. INST. OF ADVANCED INDUSTRIAL SCIENCE AND TECHNOLOGY: KAZUO KITAURA
     MICHIGAN STATE UNIVERSITY:
          KAROL KOWALSKI, MARTA WLOCH, JEFFREY GOUR, JESSE LUTZ,
          WEI LI, JUN SHEN, J. EMILIANO DEUSTUA, PIOTR PIECUCH
     UNIVERSITY OF MINNESOTA:
          YINAN SHU
     UNIVERSITY OF SILESIA: MONIKA MUSIAL, STANISLAW KUCHARSKI
     FACULTES UNIVERSITAIRES NOTRE-DAME DE LA PAIX:
          OLIVIER QUINET, BENOIT CHAMPAGNE
     UNIVERSITY OF CALIFORNIA - SANTA BARBARA: BERNARD KIRTMAN
     INSTITUTE FOR MOLECULAR SCIENCE:
          KAZUYA ISHIMURA, MICHIO KATOUDA, AND SHIGERU NAGASE
     UNIVERSITY OF NOTRE DAME: ANNA POMOGAEVA, DAN CHIPMAN
     KYUSHU UNIVERSITY:
          HARUYUKI NAKANO,
          FENG LONG GU, JACEK KORCHOWIEC, MARCIN MAKOWSKI, AND YURIKO AOKI,
          HIROTOSHI MORI AND EISAKU MIYOSHI
     PENNSYLVANIA STATE UNIVERSITY:
          TZVETELIN IORDANOV, CHET SWALINA, JONATHAN SKONE,
          SHARON HAMMES-SCHIFFER
     WASEDA UNIVERSITY:
          MASATO KOBAYASHI, TOMOKO AKAMA, TSUGUKI TOUMA,
          TAKESHI YOSHIKAWA, YASUHIRO IKABATA, JUNJI SEINO,
          YUYA NAKAJIMA, HIROMI NAKAI
     NANJING UNIVERSITY: SHUHUA LI
     UNIVERSITY OF NEBRASKA:
          PEIFENG SU, DEJUN SI, NANDUN THELLAMUREGE, YALI WANG, HUI LI
     UNIVERSITY OF ZURICH: ROBERTO PEVERATI, KIM BALDRIDGE
     N. COPERNICUS UNIVERSITY AND JACKSON STATE UNIVERSITY:
          MARIA BARYSZ
     UNIVERSITY OF COPENHAGEN: Jimmy Kromann, CASPER STEINMANN
     TOKYO INSTITUTE OF TECHNOLOGY: HIROYA NAKATA
     NAGOYA UNIVERSITY: YOSHIO NISHIMOTO, STEPHAN IRLE
     MOSCOW STATE UNIVERSITY: VLADIMIR MIRONOV


 PARALLEL VERSION RUNNING ON       16 PROCESSORS IN        1 NODES.

 EXECUTION OF GAMESS BEGUN Fri Dec  6 00:44:07 2019

            ECHO OF THE FIRST FEW INPUT CARDS -
 INPUT CARD>!*** FMO 5.3 (Gamess) INPUT generated by Facio 22.1.1.32 ***                    
 INPUT CARD> $CONTRL RUNTYP=ENERGY NPRINT=-5 ISPHER=1 MAXIT=200 $END                        
 INPUT CARD> $SYSTEM MWORDS=63 MEMDDI=63 $END                                               
 INPUT CARD> $GDDI NGROUP=1 $END                                                            
 INPUT CARD> $SCF DIRSCF=.TRUE. NPUNCH=0 $END                                               
 INPUT CARD>!*** NumCPU : 2  MemPerNode : 512MB                                             
 INPUT CARD> $PCM SOLVNT=WATER IEF=-10 ICOMP=2 ICAV=1 IDISP=1 IFMO=-1 $END                  
 INPUT CARD> $PCMCAV RADII=SUAHF $END                                                       
 INPUT CARD> $TESCAV NTSALL=60 $END                                                         
 INPUT CARD> $FMOPRP                                                                        
 INPUT CARD>    NAODIR=200                                                                  
 INPUT CARD>    NGRFMO(1)=1, 1, 0, 0, 0,   0, 0, 0, 0, 0                                    
 INPUT CARD>    IPIEDA=1                                                                    
 INPUT CARD>    NPRINT=9                                                                    
 INPUT CARD> $END                                                                           
 INPUT CARD> $FMO                                                                           
 INPUT CARD>      SCFTYP(1)=RHF                                                             
 INPUT CARD>      MODGRD=10                                                                 
 INPUT CARD>      MODMUL=0                                                                  
 INPUT CARD>      MAXCAO=5                                                                  
 INPUT CARD>      MAXBND=13                                                                 
 INPUT CARD>      NLAYER=1                                                                  
 INPUT CARD>      MPLEVL(1)=2                                                               
 INPUT CARD>      NFRAG=11                                                                  
 INPUT CARD>      ICHARG(1)=-1, -1, -1, -1, -1, -1, -1, -1, -1, -1, 0                       
 INPUT CARD>      FRGNAM(1)=F1, F2, F3, F4, F5, F6, F7, F8, F9, F10, F11                    
 INPUT CARD>      indat(1)=0                                                                
 INPUT CARD>               1   -33   0                                                      
 INPUT CARD>               34   -64   0                                                     
 INPUT CARD>               65   -94   0                                                     
 INPUT CARD>               95   -124   0                                                    
 INPUT CARD>               125   -158   0                                                   
 INPUT CARD>               159   -189   0                                                   
 INPUT CARD>               190   -220   0                                                   
 INPUT CARD>               221   -253   0                                                   
 INPUT CARD>               254   -286   0                                                   
 INPUT CARD>               287   -320   0                                                   
 INPUT CARD>               321   -351   0                                                   
 INPUT CARD> $END                                                                           
 INPUT CARD>                                                                                
 INPUT CARD> $FMOBND                                                                        
 INPUT CARD>   -34   33       6-31G*    MINI                                                
 INPUT CARD>   -65   64       6-31G*    MINI                                                
 INPUT CARD>   -95   94       6-31G*    MINI                                                
 INPUT CARD>   -125   124       6-31G*    MINI                                              
 INPUT CARD>   -159   158       6-31G*    MINI                                              
 INPUT CARD>   -190   189       6-31G*    MINI                                              
 INPUT CARD>   -221   220       6-31G*    MINI                                              
 INPUT CARD>   -254   253       6-31G*    MINI                                              
 INPUT CARD>   -287   286       6-31G*    MINI                                              


 -------------------------------------------------------------
 GROUP DDI, PROGRAMMED BY: RYAN M. OLSON AND DMITRI G. FEDOROV
        FEDOROV ET AL., J. COMPUT. CHEM., 25 (2004) 872.
 -------------------------------------------------------------

 -------------------------------------------------------
 GDDI: INITIALIZATION COMPLETED FOR GROUP     1 OF     1
 WITH    16 PROCESSES BALTYP=DLB   global rank=        0
 -------------------------------------------------------

   63000000 WORDS OF MEMORY AVAILABLE


     RUN TITLE
     ---------
  FMO calculation                                                                

 THE POINT GROUP OF THE MOLECULE IS C1      
 THE ORDER OF THE PRINCIPAL AXIS IS     0

 ATOM   ATOMIC CHARGE
 H.1-1       1.0
 O.1-1       8.0
 C.1-1       6.0
 N.1-1       7.0
 P.1-1      15.0

     ATOMIC BASIS SET LIBRARY
     ----------------
 THE CONTRACTED PRIMITIVE FUNCTIONS HAVE BEEN UNNORMALIZED
 THE CONTRACTED BASIS FUNCTIONS ARE NOW NORMALIZED TO UNITY

  SHELL TYPE  PRIMITIVE        EXPONENT          CONTRACTION COEFFICIENT(S)

 H.1-1     

      1   S       1            18.7311370    0.033494604338
      1   S       2             2.8253944    0.234726953484
      1   S       3             0.6401217    0.813757326146

      2   S       4             0.1612778    1.000000000000

 O.1-1     

      3   S       5          5484.6716600    0.001831074430
      3   S       6           825.2349460    0.013950172200
      3   S       7           188.0469580    0.068445078098
      3   S       8            52.9645000    0.232714335992
      3   S       9            16.8975704    0.470192897984
      3   S      10             5.7996353    0.358520852987

      4   L      11            15.5396162   -0.110777549525    0.070874268231
      4   L      12             3.5999336   -0.148026262701    0.339752839147
      4   L      13             1.0137618    1.130767015354    0.727158577316

      5   L      14             0.2700058    1.000000000000    1.000000000000

      6   D      15             0.8000000    1.000000000000

 C.1-1     

      7   S      16          3047.5248800    0.001834737132
      7   S      17           457.3695180    0.014037322813
      7   S      18           103.9486850    0.068842622264
      7   S      19            29.2101553    0.232184443216
      7   S      20             9.2866630    0.467941348435
      7   S      21             3.1639270    0.362311985337

      8   L      22             7.8682723   -0.119332419775    0.068999066591
      8   L      23             1.8812885   -0.160854151696    0.316423960957
      8   L      24             0.5442493    1.143456437840    0.744308290898

      9   L      25             0.1687145    1.000000000000    1.000000000000

     10   D      26             0.8000000    1.000000000000

 N.1-1     

     11   S      27          4173.5114600    0.001834772160
     11   S      28           627.4579110    0.013994627002
     11   S      29           142.9020930    0.068586551812
     11   S      30            40.2343293    0.232240873040
     11   S      31            12.8202129    0.469069948082
     11   S      32             4.3904370    0.360455199063

     12   L      33            11.6263619   -0.114961181702    0.067579743878
     12   L      34             2.7162798   -0.169117478561    0.323907295893
     12   L      35             0.7722184    1.145851947027    0.740895139755

     13   L      36             0.2120315    1.000000000000    1.000000000000

     14   D      37             0.8000000    1.000000000000

 P.1-1     

     15   S      38         19413.3000000    0.001851598923
     15   S      39          2909.4200000    0.014206191735
     15   S      40           661.3640000    0.069999459277
     15   S      41           185.7590000    0.240078860331
     15   S      42            59.1943000    0.484761717984
     15   S      43            20.0310000    0.335199804993

     16   L      44           339.4780000   -0.002782170105    0.004564616191
     16   L      45            81.0101000   -0.036049901354    0.033693571881
     16   L      46            25.8780000   -0.116631004382    0.139754883368
     16   L      47             9.4522100    0.096832803638    0.339361716786
     16   L      48             3.6656600    0.614418023082    0.450920623685
     16   L      49             1.4674600    0.403798015170    0.238585800889

     17   L      50             2.1562300   -0.252924113863   -0.017765312733
     17   L      51             0.7489970    0.032851844678    0.274058196433
     17   L      52             0.2831450    1.081254761783    0.785421562957

     18   L      53             0.0998317    1.000000000000    1.000000000000

     19   D      54             0.5500000    1.000000000000

 TOTAL NUMBER OF BASIS SET SHELLS             =   19
 NUMBER OF CARTESIAN GAUSSIAN BASIS FUNCTIONS =   66

     $CONTRL OPTIONS
     ---------------
 SCFTYP=RHF          RUNTYP=ENERGY       EXETYP=RUN     
 MPLEVL=       0     CITYP =NONE         CCTYP =NONE         VBTYP =NONE    
 DFTTYP=NONE         TDDFT =NONE    
 MULT  =       1     ICHARG=       0     NZVAR =       0     COORD =UNIQUE  
 PP    =NONE         RELWFN=NONE         LOCAL =NONE         NUMGRD=       F
 ISPHER=       1     NOSYM =       0     MAXIT =     200     UNITS =ANGS    
 PLTORB=       F     MOLPLT=       F     AIMPAC=       F     FRIEND=        
 NPRINT=      -5     IREST =       0     GEOM  =INPUT   
 NORMF =       0     NORMP =       0     ITOL  =      24     ICUT  =      12
 INTTYP=BEST         GRDTYP=BEST         QMTTOL= 1.0E-06

     $SYSTEM OPTIONS
     ---------------
  REPLICATED MEMORY=    63000000 WORDS (ON EVERY NODE).
 DISTRIBUTED MEMDDI=          63 MILLION WORDS IN AGGREGATE,
 MEMDDI DISTRIBUTED OVER  16 PROCESSORS IS     3937500 WORDS/PROCESSOR.
 TOTAL MEMORY REQUESTED ON EACH PROCESSOR=    66937500 WORDS.
 TIMLIM=      525600.00 MINUTES, OR     365.0 DAYS.
 PARALL= T  BALTYP=  DLB     KDIAG=    0  COREFL= F
 MXSEQ2=     300 MXSEQ3=     150  mem10=         0

 ** LOOKING UP INTERNALLY STORED DATA FOR SOLVENT=WATER    **
 OPTICAL AND PHYSICAL CONSTANTS:
 EPS= 78.390; EPSINF=  1.776; RSOLV=  1.385 A; VMOL=  18.070 ML/MOL;
 TCE= .25700E-03 1/K; STEN= 71.810 DYN/CM;  DSTEN=  0.6500; CMF=  1.2770


     -----------------------------------
     INPUT FOR PCM SOLVATION CALCULATION 
     -----------------------------------
     IEF   =     -10
     ICOMP =       2     IFIELD=       0     ICAV  =       1
     IDISP =       1     IREP  =       0     IDP   =       0

     SOLVNT=WATER        EPS   = 78.3900     EPSINF=  1.7760
     VMOL  = 18.0700     TCE   =  0.00025700 STEN  = 71.8100
     DSTEN =  0.6500     CMF   =  1.2770     RSOLV =  1.3850

     NESFP =       0
     OMEGA = 40.0000     RET   =100.0000     FRO   =  0.7000

     TABS  =298.0000     IPRINT=       0

     --------------------------------
     INPUT FOR ITERATIVE C-PCM METHOD 
     --------------------------------
     IPCMIT  =         1     MXDIIS  =        50
     MXITR1  =       200     MXITR2  =       200
     THRES   = 0.100E-09     IMUL    =         3
     RCUT(1) =   20.0000     RCUT(2) =   50.0000

     IDIRCT  =         1
     IMGABI  =         0     RABI    =    4.0000
     IMGASC  =         0     RASC    =   20.0000
     THRSLS  = 0.500E-03     DENSLS  =    0.0100
     IEFPOL  =         1     REFPOL  =    0.0000

     INPUT FOR ISOTROPIC DIELECTRICS
     -------------------------------
     EPS=    78.39

          ----------------
          PROPERTIES INPUT
          ----------------

     MOMENTS            FIELD           POTENTIAL          DENSITY
 IEMOM =       1   IEFLD =       0   IEPOT =       0   IEDEN =       0
 WHERE =COMASS     WHERE =NUCLEI     WHERE =NUCLEI     WHERE =NUCLEI  
 OUTPUT=BOTH       OUTPUT=BOTH       OUTPUT=NONE       OUTPUT=BOTH    
 IEMINT=       0   IEFINT=       0                     IEDINT=       0
                                                       MORB  =       0
          EXTRAPOLATION IN EFFECT
          SOSCF IN EFFECT
 ORBITAL PRINTING OPTION: NPREO=     1 32767     2     1

     -------------------------------
     INTEGRAL TRANSFORMATION OPTIONS
     -------------------------------
     NWORD  =            0
     CUTOFF = 1.0E-10     MPTRAN =       0
     DIRTRF =       T     AOINTS =DUP     

          ----------------------
          INTEGRAL INPUT OPTIONS
          ----------------------
 NOPK  =       1 NORDER=       0 SCHWRZ=       T

 ..... DONE SETTING UP THE RUN .....
 CPU     0: STEP CPU TIME=     0.05 TOTAL CPU TIME=          0.0 (      0.0 MIN)
 TOTAL WALL CLOCK TIME=          0.1 SECONDS, CPU UTILIZATION IS    50.00%
 CPU     0: STEP CPU TIME=     0.00 TOTAL CPU TIME=          0.0 (      0.0 MIN)
 TOTAL WALL CLOCK TIME=          0.1 SECONDS, CPU UTILIZATION IS    50.00%

                    ----------------------
                    AO INTEGRAL TECHNOLOGY
                    ----------------------
     S,P,L SHELL ROTATED AXIS INTEGRALS, REPROGRAMMED BY
        KAZUYA ISHIMURA (IMS) AND JOSE SIERRA (SYNSTAR).
     S,P,D,L SHELL ROTATED AXIS INTEGRALS PROGRAMMED BY
        KAZUYA ISHIMURA (INSTITUTE FOR MOLECULAR SCIENCE).
     S,P,D,F,G SHELL TO TOTAL QUARTET ANGULAR MOMENTUM SUM 5,
        ERIC PROGRAM BY GRAHAM FLETCHER (ELORET AND NASA ADVANCED
        SUPERCOMPUTING DIVISION, AMES RESEARCH CENTER).
     S,P,D,F,G,L SHELL GENERAL RYS QUADRATURE PROGRAMMED BY
        MICHEL DUPUIS (PACIFIC NORTHWEST NATIONAL LABORATORY).
 Setting modorb=1 flag...
 Setting modorb=1 flag...

          -----------------------
          MP2 CONTROL INFORMATION
          -----------------------
          NACORE =        8  NBCORE =        8
          LMOMP2 =        F  AOINTS = DUP     
          METHOD =        2  NWORD  =               0
          MP2PRP =        F  OSPT   = NONE    
          CUTOFF = 1.00E-12  CPHFBS = BASISAO 
          CODE   = IMS     

          NUMBER OF CORE -A-  ORBITALS =     8
          NUMBER OF CORE -B-  ORBITALS =     8
          NUMBER OF OCC. -A-  ORBITALS =    18
          NUMBER OF OCC. -B-  ORBITALS =    18
          NUMBER OF MOLECULAR ORBITALS =    66
          NUMBER OF   BASIS  FUNCTIONS =    66

 CPU     0: STEP CPU TIME=     0.02 TOTAL CPU TIME=          0.1 (      0.0 MIN)
 TOTAL WALL CLOCK TIME=          0.1 SECONDS, CPU UTILIZATION IS    53.85%
 CPU     0: STEP CPU TIME=     0.00 TOTAL CPU TIME=          0.1 (      0.0 MIN)
 TOTAL WALL CLOCK TIME=          0.1 SECONDS, CPU UTILIZATION IS    53.85%

     INPUT FOR CAVITY DEFINITION 
     ---------------------------
   ATOM               COORDINATES                RADIUS       EPS
      1      6.1110      8.7470     17.6320      0.0100     78.3900
      2      6.2170      8.9600     16.6860      1.5900     78.3900
      3      4.9980      9.5860     16.2590      1.7700     78.3900
      4      4.8150     10.4840     16.8880      0.0100     78.3900
      5      4.1490      8.8830     16.4160      0.0100     78.3900
      6      5.0230     10.0260     14.7880      1.7700     78.3900
      7      4.0430     10.4540     14.4900      0.0100     78.3900
      8      6.0290     11.0690     14.6040      1.5900     78.3900
      9      6.6940     10.8650     13.3640      1.7700     78.3900
     10      6.5860     11.8210     12.8040      0.0100     78.3900
     11      8.1470     10.5700     13.5230      1.6800     78.3900
     12      8.6450     10.1580     14.7400      1.7700     78.3900
     13      7.9230     10.0570     15.5510      0.0100     78.3900
     14      9.9530      9.9250     14.9170      1.7700     78.3900
     15     10.3640      9.6220     15.8770      0.0100     78.3900
     16      9.0110     10.7170     12.4410      1.7700     78.3900
     17      8.5540     11.0690     11.3450      1.5900     78.3900
     18     10.3340     10.4840     12.6020      1.6800     78.3900
     19     10.8160     10.1180     13.8020      1.7700     78.3900
     20     12.1290      9.9330     13.9410      1.6800     78.3900
     21     12.7270     10.0230     13.1410      0.0100     78.3900
     22     12.5280      9.6100     14.8020      0.0100     78.3900
     23      5.9370      9.7790     12.6220      1.7700     78.3900
     24      6.5890      9.1900     11.9490      0.0100     78.3900
     25      4.8770     10.3540     11.8800      1.5900     78.3900
     26      4.3890      9.6240     11.4770      0.0100     78.3900
     27      5.4100      8.9350     13.7770      1.7700     78.3900
     28      6.2440      8.3620     14.2420      0.0100     78.3900
     29      4.2610      8.1120     13.4690      1.5900     78.3900
     30      4.4590      6.6060     13.0380      2.1000     78.3900
     31      5.4550      5.9720     13.9300      1.5900     78.3900
     32      3.1300      5.9550     12.9530      1.5900     78.3900
     33      5.0700      6.7070     11.5890      1.5900     78.3900
     34      4.2720      7.2620     10.5120      1.7700     78.3900
     35      3.8590      8.2640     10.7680      0.0100     78.3900
     36      3.4010      6.6140     10.2830      0.0100     78.3900
     37      5.0920      7.3960      9.2240      1.7700     78.3900
     38      4.4480      7.7640      8.3930      0.0100     78.3900
     39      6.1460      8.3800      9.4230      1.5900     78.3900
     40      7.3100      7.9530      8.7260      1.7700     78.3900
     41      7.5680      8.7910      8.0370      0.0100     78.3900
     42      8.4690      7.6990      9.6290      1.6800     78.3900
     43      8.2600      7.4510     10.9630      1.7700     78.3900
     44      7.2220      7.4370     11.2890      0.0100     78.3900
     45      9.2810      7.2640     11.8100      1.7700     78.3900
     46      9.1310      7.1030     12.8750      0.0100     78.3900
     47      9.7650      7.6790      9.1210      1.7700     78.3900
     48      9.9440      7.8540      7.9080      1.5900     78.3900
     49     10.8100      7.4740      9.9580      1.6800     78.3900
     50     10.5980      7.2930     11.2720      1.7700     78.3900
     51     11.6460      7.1350     12.0780      1.6800     78.3900
     52     12.5720      7.1210     11.6920      0.0100     78.3900
     53     11.5380      6.9300     13.0500      0.0100     78.3900
     54      6.9280      6.7400      7.9020      1.7700     78.3900
     55      7.7710      6.0320      7.7680      0.0100     78.3900
     56      6.4430      7.1550      6.6380      1.5900     78.3900
     57      6.1370      6.3590      6.1880      0.0100     78.3900
     58      5.8170      6.1310      8.7460      1.7700     78.3900
     59      6.2360      5.6390      9.6530      0.0100     78.3900
     60      4.8980      5.2890      8.0180      1.5900     78.3900
     61      5.1220      3.7370      7.9600      2.1000     78.3900
     62      5.5300      3.2510      9.3000      1.5900     78.3900
     63      3.9150      3.1200      7.3800      1.5900     78.3900
     64      6.3260      3.5490      6.9680      1.5900     78.3900
     65      6.2430      3.8800      5.5650      1.7700     78.3900
     66      5.8300      4.9000      5.4140      0.0100     78.3900
     67      5.5760      3.1610      5.0340      0.0100     78.3900
     68      7.6200      3.8220      4.8810      1.7700     78.3900
     69      7.5280      4.0870      3.8070      0.0100     78.3900
     70      8.5280      4.7940      5.4800      1.5900     78.3900
     71      9.8460      4.2580      5.5050      1.7700     78.3900
     72     10.4790      4.9720      4.9250      0.0100     78.3900
     73     10.3640      4.1290      6.9020      1.6800     78.3900
     74      9.4940      4.0170      7.9630      1.7700     78.3900
     75      8.4380      4.0060      7.7010      0.0100     78.3900
     76     11.7270      4.1170      7.1080      1.7700     78.3900
     77     12.5380      4.1780      6.1930      1.5900     78.3900
     78     12.1110      4.0380      8.4240      1.6800     78.3900
     79     13.1090      3.9920      8.5970      0.0100     78.3900
     80     11.2980      3.9970      9.5350      1.7700     78.3900
     81     11.7870      3.9870     10.6620      1.5900     78.3900
     82      9.8990      3.9670      9.2400      1.7700     78.3900
     83      9.1920      3.9230     10.0630      0.0100     78.3900
     84      9.8040      2.9240      4.7740      1.7700     78.3900
     85     10.5120      2.1880      5.2040      0.0100     78.3900
     86     10.0880      3.1000      3.3990      1.5900     78.3900
     87     10.0000      2.2240      3.0060      0.0100     78.3900
     88      8.3610      2.4840      4.9880      1.7700     78.3900
     89      8.2130      2.1330      6.0350      0.0100     78.3900
     90      7.8590      1.5540      3.9990      1.5900     78.3900
     91      7.9550      0.0050      4.2800      2.1000     78.3900
     92      7.4900     -0.2470      5.6630      1.5900     78.3900
     93      7.2300     -0.7070      3.2070      1.5900     78.3900
     94      9.4940     -0.3230      4.1760      1.5900     78.3900
     95     10.1940     -0.2970      2.9090      1.7700     78.3900
     96     10.0300      0.6620      2.3640      0.0100     78.3900
     97      9.8250     -1.1090      2.2440      0.0100     78.3900
     98     11.7110     -0.4870      3.0960      1.7700     78.3900
     99     12.2380     -0.4290      2.1210      0.0100     78.3900
    100     12.2330      0.5800      3.9360      1.5900     78.3900
    101     13.2730      0.0780      4.7580      1.7700     78.3900
    102     14.1750      0.6840      4.4980      0.0100     78.3900
    103     12.9530      0.2250      6.2050      1.6800     78.3900
    104     11.6490      0.3010      6.6410      1.7700     78.3900
    105     10.8960      0.2470      5.8590      0.0100     78.3900
    106     13.9980      0.2680      7.0980      1.7700     78.3900
    107     15.1720      0.1700      6.7570      1.5900     78.3900
    108     13.6230      0.4390      8.4040      1.6800     78.3900
    109     14.3870      0.4460      9.0700      0.0100     78.3900
    110     12.3520      0.5720      8.9120      1.7700     78.3900
    111     12.1840      0.7640     10.1140      1.5900     78.3900
    112     11.3180      0.4900      7.9270      1.7700     78.3900
    113     10.2840      0.6040      8.2440      0.0100     78.3900
    114     13.5140     -1.3680      4.3600      1.7700     78.3900
    115     13.7890     -2.0010      5.2300      0.0100     78.3900
    116     14.5260     -1.4500      3.3720      1.5900     78.3900
    117     14.5390     -2.3700      3.0640      0.0100     78.3900
    118     12.1550     -1.7810      3.7980      1.7700     78.3900
    119     11.4300     -1.9580      4.6240      0.0100     78.3900
    120     12.2010     -2.8770      2.8510      1.5900     78.3900
    121     12.2250     -4.3540      3.4120      2.1000     78.3900
    122     11.0660     -4.5180      4.3190      1.5900     78.3900
    123     12.2920     -5.2830      2.2610      1.5900     78.3900
    124     13.5770     -4.4660      4.2130      1.5900     78.3900
    125     13.7070     -5.4300      5.2830      1.7700     78.3900
    126     13.8350     -6.4540      4.8710      0.0100     78.3900
    127     12.8080     -5.4320      5.9450      0.0100     78.3900
    128     14.9240     -5.1080      6.1620      1.7700     78.3900
    129     15.8660     -5.1360      5.5770      0.0100     78.3900
    130     14.7840     -3.7670      6.7110      1.5900     78.3900
    131     15.2230     -3.7510      8.0560      1.7700     78.3900
    132     15.9930     -2.9520      8.1240      0.0100     78.3900
    133     14.1170     -3.4240      8.9660      1.6800     78.3900
    134     14.2200     -3.1470     10.3030      1.7700     78.3900
    135     16.1400     -2.7250     13.1460      1.6800     78.3900
    136     15.9880     -2.4550     14.0990      0.0100     78.3900
    137     17.0230     -3.0610     12.8510      0.0100     78.3900
    138     15.3590     -3.1410     11.0220      1.6800     78.3900
    139     15.1380     -2.8040     12.2920      1.7700     78.3900
    140     13.8980     -2.5020     12.7960      1.6800     78.3900
    141     13.8240     -2.2250     13.7600      0.0100     78.3900
    142     12.7110     -2.4990     12.0750      1.7700     78.3900
    143     11.6310     -2.2170     12.6050      1.5900     78.3900
    144     12.9290     -2.8720     10.7210      1.7700     78.3900
    145     12.0290     -2.9900      9.6670      1.6800     78.3900
    146     12.7800     -3.3120      8.6420      1.7700     78.3900
    147     12.4240     -3.4880      7.6230      0.0100     78.3900
    148     15.8470     -5.1080      8.3500      1.7700     78.3900
    149     15.6940     -5.4320      9.4020      0.0100     78.3900
    150     17.2320     -5.1040      8.0390      1.5900     78.3900
    151     17.7180     -4.6100      8.7040      0.0100     78.3900
    152     15.0740     -6.0040      7.3960      1.7700     78.3900
    153     14.0350     -6.1490      7.7720      0.0100     78.3900
    154     15.7430     -7.2380      7.0480      1.5900     78.3900
    155     15.3230     -8.5820      7.7520      2.1000     78.3900
    156     14.0820     -8.3680      8.5250      1.5900     78.3900
    157     15.2880     -9.6420      6.7210      1.5900     78.3900
    158     16.5030     -8.9320      8.7390      1.5900     78.3900
    159     16.6120     -8.3300     10.0500      1.7700     78.3900
    160     15.6160     -8.2140     10.5270      0.0100     78.3900
    161     17.0670     -7.3190      9.9530      0.0100     78.3900
    162     17.4770     -9.1530     11.0310      1.7700     78.3900
    163     16.9470    -10.0800     11.3420      0.0100     78.3900
    164     18.7140     -9.5630     10.3860      1.5900     78.3900
    165     19.8020     -9.4240     11.2850      1.7700     78.3900
    166     20.2830    -10.4290     11.3210      0.0100     78.3900
    167     20.8060     -8.4320     10.8090      1.6800     78.3900
    168     20.4800     -7.5510      9.8000      1.7700     78.3900
    169     19.4610     -7.6100      9.4090      0.0100     78.3900
    170     21.3780     -6.6880      9.3120      1.7700     78.3900
    171     21.1360     -5.9850      8.5180      0.0100     78.3900
    172     22.0930     -8.4220     11.3510      1.7700     78.3900
    173     22.3830     -9.2370     12.2390      1.5900     78.3900
    174     23.0100     -7.5490     10.8710      1.6800     78.3900
    175     22.6880     -6.7100      9.8720      1.7700     78.3900
    176     23.6180     -5.8920      9.3890      1.6800     78.3900
    177     24.5040     -5.8530      9.8550      0.0100     78.3900
    178     23.3950     -5.1740      8.7320      0.0100     78.3900
    179     19.2310     -9.1000     12.6540      1.7700     78.3900
    180     19.8970     -8.4430     13.2540      0.0100     78.3900
    181     18.9800    -10.3060     13.3540      1.5900     78.3900
    182     18.4950    -10.0870     14.1670      0.0100     78.3900
    183     17.9350     -8.3850     12.2880      1.7700     78.3900
    184     18.1590     -7.3470     11.9540      0.0100     78.3900
    185     16.9120     -8.4400     13.3060      1.5900     78.3900
    186     16.7190     -7.2530     14.3210      2.1000     78.3900
    187     16.5240     -6.0090     13.5460      1.5900     78.3900
    188     15.6500     -7.6250     15.2720      1.5900     78.3900
    189     18.0660     -7.1450     15.1240      1.5900     78.3900
    190     18.4390     -5.9020     15.7890      1.7700     78.3900
    191     18.1730     -5.9620     16.8680      0.0100     78.3900
    192     17.8880     -5.0180     15.3810      0.0100     78.3900
    193     19.9510     -5.5850     15.6810      1.7700     78.3900
    194     20.5140     -6.0510     16.5160      0.0100     78.3900
    195     20.4930     -6.1560     14.4470      1.5900     78.3900
    196     21.3370     -5.2180     13.8130      1.7700     78.3900
    197     22.2860     -5.7630     13.6010      0.0100     78.3900
    198     20.7700     -4.7120     12.5310      1.6800     78.3900
    199     19.4270     -4.8500     12.2410      1.7700     78.3900
    200     18.8170     -5.3630     12.9930      0.0100     78.3900
    201     18.9170     -4.4040     11.0830      1.7700     78.3900
    202     17.8650     -4.5280     10.8290      0.0100     78.3900
    203     21.6080     -4.0530     11.6350      1.7700     78.3900
    204     22.8010     -3.8890     11.9330      1.5900     78.3900
    205     21.1150     -3.6270     10.4510      1.6800     78.3900
    206     19.8160     -3.7810     10.1640      1.7700     78.3900
    207     19.3940     -3.3580      8.9730      1.6800     78.3900
    208     20.1050     -2.9670      8.3790      0.0100     78.3900
    209     18.4610     -3.0770      8.7790      0.0100     78.3900
    210     21.6130     -4.1140     14.8110      1.7700     78.3900
    211     21.8030     -3.1380     14.3180      0.0100     78.3900
    212     22.7190     -4.4570     15.6270      1.5900     78.3900
    213     22.7940     -3.7790     16.3170      0.0100     78.3900
    214     20.3100     -4.0840     15.6060      1.7700     78.3900
    215     19.5140     -3.5860     15.0060      0.0100     78.3900
    216     20.4170     -3.5290     16.9370      1.5900     78.3900
    217     20.4390     -1.9610     17.1310      2.1000     78.3900
    218     19.2000     -1.4080     16.5440      1.5900     78.3900
    219     20.6910     -1.6720     18.5610      1.5900     78.3900
    220     21.6910     -1.4270     16.3340      1.5900     78.3900
    221     21.7000     -0.0820     15.7820      1.7700     78.3900
    222     22.5530      0.4900     16.2100      0.0100     78.3900
    223     20.7780      0.5010     16.0270      0.0100     78.3900
    224     21.8470     -0.1080     14.2510      1.7700     78.3900
    225     22.8450     -0.5030     13.9610      0.0100     78.3900
    226     20.8370     -0.9910     13.6840      1.5900     78.3900
    227     20.3320     -0.4390     12.4940      1.7700     78.3900
    228     20.4430     -1.2170     11.7040      0.0100     78.3900
    229     18.9230     -0.0910     12.6600      1.6800     78.3900
    230     16.7990      0.3080     12.2820      1.7700     78.3900
    231     16.9770      0.4530     13.6520      1.6800     78.3900
    232     18.2510      0.1980     13.8270      1.7700     78.3900
    233     18.7650      0.1920     14.7930      0.0100     78.3900
    234     15.8340      0.2050     10.1310      1.6800     78.3900
    235     17.0530     -0.0880      9.6770      1.7700     78.3900
    236     17.1210     -0.2350      8.5950      0.0100     78.3900
    237     18.1950     -0.2320     10.3540      1.6800     78.3900
    238     17.9930     -0.0190     11.6630      1.7700     78.3900
    239     15.6580      0.3950     11.4610      1.7700     78.3900
    240     14.4160      0.6150     11.9300      1.6800     78.3900
    241     14.2500      0.8630     12.8910      0.0100     78.3900
    242     13.6490      0.7020     11.2870      0.0100     78.3900
    243     21.1850      0.7570     12.1500      1.7700     78.3900
    244     20.6170      1.5410     11.6080      0.0100     78.3900
    245     22.3030      0.3570     11.3760      1.5900     78.3900
    246     22.8340      1.1500     11.2350      0.0100     78.3900
    247     21.6050      1.2360     13.5340      1.7700     78.3900
    248     20.7500      1.7240     14.0600      0.0100     78.3900
    249     22.8000      2.0440     13.5490      1.5900     78.3900
    250     22.6920      3.6000     13.3290      2.1000     78.3900
    251     21.6330      4.1040     14.2360      1.5900     78.3900
    252     24.0400      4.2020     13.4670      1.5900     78.3900
    253     22.1880      3.7690     11.8530      1.5900     78.3900
    254     23.0630      3.5850     10.7190      1.7700     78.3900
    255     23.5570      2.5860     10.7430      0.0100     78.3900
    256     23.8690      4.3590     10.7160      0.0100     78.3900
    257     22.2730      3.6930      9.4050      1.7700     78.3900
    258     22.9190      3.4460      8.5330      0.0100     78.3900
    259     21.1570      2.7540      9.4040      1.5900     78.3900
    260     20.0540      3.3350      8.7310      1.7700     78.3900
    261     19.7930      2.6440      7.8970      0.0100     78.3900
    262     18.8890      3.4770      9.6220      1.6800     78.3900
    263     16.8290      3.6280     10.3840      1.7700     78.3900
    264     17.6570      3.6160     11.5040      1.6800     78.3900
    265     18.8660      3.5380     10.9970      1.7700     78.3900
    266     19.7910      3.5190     11.5780      0.0100     78.3900
    267     14.9280      3.7250      8.9660      1.6800     78.3900
    268     15.7840      3.6360      7.9440      1.7700     78.3900
    269     15.3360      3.6470      6.9390      0.0100     78.3900
    270     17.1170      3.5580      7.9610      1.6800     78.3900
    271     17.5780      3.5500      9.2230      1.7700     78.3900
    272     15.4260      3.7180     10.2320      1.7700     78.3900
    273     14.5680      3.7910     11.2670      1.6800     78.3900
    274     14.8910      3.8430     12.2170      0.0100     78.3900
    275     13.5810      3.8500     11.0940      0.0100     78.3900
    276     20.5210      4.6570      8.1610      1.7700     78.3900
    277     19.7110      5.4110      8.1200      0.0100     78.3900
    278     21.0500      4.4640      6.8640      1.5900     78.3900
    279     21.3630      5.3260      6.5610      0.0100     78.3900
    280     21.6130      5.0520      9.1490      1.7700     78.3900
    281     21.1640      5.3580     10.1230      0.0100     78.3900
    282     22.5910      6.0000      8.6410      1.5900     78.3900
    283     22.2610      7.5310      8.8380      2.1000     78.3900
    284     21.7910      7.7300     10.2230      1.5900     78.3900
    285     23.4400      8.3310      8.4350      1.5900     78.3900
    286     21.0660      7.8370      7.8620      1.5900     78.3900
    287     21.2920      7.8780      6.4340      1.7700     78.3900
    288     21.7640      6.9370      6.0730      0.0100     78.3900
    289     21.9690      8.7270      6.1750      0.0100     78.3900
    290     19.9720      8.0490      5.6720      1.7700     78.3900
    291     20.1360      8.0140      4.5720      0.0100     78.3900
    292     19.0590      6.9650      6.0110      1.5900     78.3900
    293     17.7330      7.4740      6.0740      1.7700     78.3900
    294     17.1190      6.8660      5.3710      0.0100     78.3900
    295     17.1700      7.3520      7.4260      1.6800     78.3900
    296     15.8410      7.3750      7.7510      1.7700     78.3900
    297     12.5190      7.7010      6.8110      1.6800     78.3900
    298     12.5820      7.8380      5.8260      0.0100     78.3900
    299     11.6160      7.7420      7.2470      0.0100     78.3900
    300     14.8230      7.5350      6.8860      1.6800     78.3900
    301     13.6380      7.5300      7.4950      1.7700     78.3900
    302     13.4910      7.3500      8.8450      1.6800     78.3900
    303     12.5590      7.3560      9.2270      0.0100     78.3900
    304     14.5240      7.1670      9.7570      1.7700     78.3900
    305     14.2920      7.0170     10.9620      1.5900     78.3900
    306     15.7920      7.1970      9.1200      1.7700     78.3900
    307     17.0730      7.0810      9.6510      1.6800     78.3900
    308     17.8570      7.1950      8.6070      1.7700     78.3900
    309     18.9470      7.1700      8.6300      0.0100     78.3900
    310     17.7770      8.9090      5.6020      1.7700     78.3900
    311     17.0100      9.5430      6.0880      0.0100     78.3900
    312     17.6040      8.9510      4.2000      1.5900     78.3900
    313     17.6760      9.8760      3.9360      0.0100     78.3900
    314     19.1890      9.3230      6.0080      1.7700     78.3900
    315     19.2510      9.4420      7.1150      0.0100     78.3900
    316     19.7420     10.4470      5.2830      1.5900     78.3900
    317     19.5860     11.8940      5.8890      2.1000     78.3900
    318     19.8750     11.8460      7.3360      1.5900     78.3900
    319     20.3760     12.8610      5.0910      1.5900     78.3900
    320     18.0540     12.1870      5.6920      1.5900     78.3900
    321     17.5050     12.3300      4.3610      1.7700     78.3900
    322     17.7630     11.4650      3.7070      0.0100     78.3900
    323     17.9120     13.2370      3.8650      0.0100     78.3900
    324     15.9850     12.5160      4.4200      1.7700     78.3900
    325     15.5610     12.6670      3.4020      0.0100     78.3900
    326     15.3570     11.3280      4.9800      1.5900     78.3900
    327     14.2640     11.7270      5.7970      1.7700     78.3900
    328     13.3630     11.2110      5.3980      0.0100     78.3900
    329     14.4590     11.3230      7.1950      1.6800     78.3900
    330     13.4810     11.1860      8.1440      1.7700     78.3900
    331     10.1600     11.4050      9.0980      1.6800     78.3900
    332      9.7190     11.7530      8.2710      0.0100     78.3900
    333      9.6120     11.2800      9.9300      0.0100     78.3900
    334     12.1680     11.4240      7.9670      1.6800     78.3900
    335     11.4650     11.2190      9.0800      1.7700     78.3900
    336     12.0280     10.8080     10.2590      1.6800     78.3900
    337     11.4240     10.6820     11.0560      0.0100     78.3900
    338     13.3750     10.5450     10.4690      1.7700     78.3900
    339     13.7940     10.1780     11.5720      1.5900     78.3900
    340     14.1350     10.7750      9.2910      1.7700     78.3900
    341     15.5010     10.6710      9.0710      1.6800     78.3900
    342     15.6480     11.0160      7.8150      1.7700     78.3900
    343     16.5980     11.0750      7.2830      0.0100     78.3900
    344     14.0890     13.2280      5.6490      1.7700     78.3900
    345     13.7290     13.7050      6.5880      0.0100     78.3900
    346     13.1880     13.5040      4.5880      1.5900     78.3900
    347     13.2030     14.4590      4.4020      0.0100     78.3900
    348     15.5150     13.6630      5.3290      1.7700     78.3900
    349     16.1330     13.6550      6.2520      0.0100     78.3900
    350     15.6150     14.9310      4.6550      1.5900     78.3900
    351     15.2990     15.6430      5.2400      0.0100     78.3900

     ----------------------------
     INPUT FOR TESSERA DEFINITION
     ----------------------------
     NTSALL  =        60     MTHALL  =         4
     MTHAUT  =         0     AUTFRE  =    2.0000
     NTSFRZ  =        60     KEEPSM  =         0
     AREAKP  =   10.0000     BONDRY  =    1.0000
     AREATL  =    0.0100

     SPHERE     INITS       METHOD
          1        60       FIXPVA
          2        60       FIXPVA
          3        60       FIXPVA
          4        60       FIXPVA
          5        60       FIXPVA
          6        60       FIXPVA
          7        60       FIXPVA
          8        60       FIXPVA
          9        60       FIXPVA
         10        60       FIXPVA
         11        60       FIXPVA
         12        60       FIXPVA
         13        60       FIXPVA
         14        60       FIXPVA
         15        60       FIXPVA
         16        60       FIXPVA
         17        60       FIXPVA
         18        60       FIXPVA
         19        60       FIXPVA
         20        60       FIXPVA
         21        60       FIXPVA
         22        60       FIXPVA
         23        60       FIXPVA
         24        60       FIXPVA
         25        60       FIXPVA
         26        60       FIXPVA
         27        60       FIXPVA
         28        60       FIXPVA
         29        60       FIXPVA
         30        60       FIXPVA
         31        60       FIXPVA
         32        60       FIXPVA
         33        60       FIXPVA
         34        60       FIXPVA
         35        60       FIXPVA
         36        60       FIXPVA
         37        60       FIXPVA
         38        60       FIXPVA
         39        60       FIXPVA
         40        60       FIXPVA
         41        60       FIXPVA
         42        60       FIXPVA
         43        60       FIXPVA
         44        60       FIXPVA
         45        60       FIXPVA
         46        60       FIXPVA
         47        60       FIXPVA
         48        60       FIXPVA
         49        60       FIXPVA
         50        60       FIXPVA
         51        60       FIXPVA
         52        60       FIXPVA
         53        60       FIXPVA
         54        60       FIXPVA
         55        60       FIXPVA
         56        60       FIXPVA
         57        60       FIXPVA
         58        60       FIXPVA
         59        60       FIXPVA
         60        60       FIXPVA
         61        60       FIXPVA
         62        60       FIXPVA
         63        60       FIXPVA
         64        60       FIXPVA
         65        60       FIXPVA
         66        60       FIXPVA
         67        60       FIXPVA
         68        60       FIXPVA
         69        60       FIXPVA
         70        60       FIXPVA
         71        60       FIXPVA
         72        60       FIXPVA
         73        60       FIXPVA
         74        60       FIXPVA
         75        60       FIXPVA
         76        60       FIXPVA
         77        60       FIXPVA
         78        60       FIXPVA
         79        60       FIXPVA
         80        60       FIXPVA
         81        60       FIXPVA
         82        60       FIXPVA
         83        60       FIXPVA
         84        60       FIXPVA
         85        60       FIXPVA
         86        60       FIXPVA
         87        60       FIXPVA
         88        60       FIXPVA
         89        60       FIXPVA
         90        60       FIXPVA
         91        60       FIXPVA
         92        60       FIXPVA
         93        60       FIXPVA
         94        60       FIXPVA
         95        60       FIXPVA
         96        60       FIXPVA
         97        60       FIXPVA
         98        60       FIXPVA
         99        60       FIXPVA
        100        60       FIXPVA
        101        60       FIXPVA
        102        60       FIXPVA
        103        60       FIXPVA
        104        60       FIXPVA
        105        60       FIXPVA
        106        60       FIXPVA
        107        60       FIXPVA
        108        60       FIXPVA
        109        60       FIXPVA
        110        60       FIXPVA
        111        60       FIXPVA
        112        60       FIXPVA
        113        60       FIXPVA
        114        60       FIXPVA
        115        60       FIXPVA
        116        60       FIXPVA
        117        60       FIXPVA
        118        60       FIXPVA
        119        60       FIXPVA
        120        60       FIXPVA
        121        60       FIXPVA
        122        60       FIXPVA
        123        60       FIXPVA
        124        60       FIXPVA
        125        60       FIXPVA
        126        60       FIXPVA
        127        60       FIXPVA
        128        60       FIXPVA
        129        60       FIXPVA
        130        60       FIXPVA
        131        60       FIXPVA
        132        60       FIXPVA
        133        60       FIXPVA
        134        60       FIXPVA
        135        60       FIXPVA
        136        60       FIXPVA
        137        60       FIXPVA
        138        60       FIXPVA
        139        60       FIXPVA
        140        60       FIXPVA
        141        60       FIXPVA
        142        60       FIXPVA
        143        60       FIXPVA
        144        60       FIXPVA
        145        60       FIXPVA
        146        60       FIXPVA
        147        60       FIXPVA
        148        60       FIXPVA
        149        60       FIXPVA
        150        60       FIXPVA
        151        60       FIXPVA
        152        60       FIXPVA
        153        60       FIXPVA
        154        60       FIXPVA
        155        60       FIXPVA
        156        60       FIXPVA
        157        60       FIXPVA
        158        60       FIXPVA
        159        60       FIXPVA
        160        60       FIXPVA
        161        60       FIXPVA
        162        60       FIXPVA
        163        60       FIXPVA
        164        60       FIXPVA
        165        60       FIXPVA
        166        60       FIXPVA
        167        60       FIXPVA
        168        60       FIXPVA
        169        60       FIXPVA
        170        60       FIXPVA
        171        60       FIXPVA
        172        60       FIXPVA
        173        60       FIXPVA
        174        60       FIXPVA
        175        60       FIXPVA
        176        60       FIXPVA
        177        60       FIXPVA
        178        60       FIXPVA
        179        60       FIXPVA
        180        60       FIXPVA
        181        60       FIXPVA
        182        60       FIXPVA
        183        60       FIXPVA
        184        60       FIXPVA
        185        60       FIXPVA
        186        60       FIXPVA
        187        60       FIXPVA
        188        60       FIXPVA
        189        60       FIXPVA
        190        60       FIXPVA
        191        60       FIXPVA
        192        60       FIXPVA
        193        60       FIXPVA
        194        60       FIXPVA
        195        60       FIXPVA
        196        60       FIXPVA
        197        60       FIXPVA
        198        60       FIXPVA
        199        60       FIXPVA
        200        60       FIXPVA
        201        60       FIXPVA
        202        60       FIXPVA
        203        60       FIXPVA
        204        60       FIXPVA
        205        60       FIXPVA
        206        60       FIXPVA
        207        60       FIXPVA
        208        60       FIXPVA
        209        60       FIXPVA
        210        60       FIXPVA
        211        60       FIXPVA
        212        60       FIXPVA
        213        60       FIXPVA
        214        60       FIXPVA
        215        60       FIXPVA
        216        60       FIXPVA
        217        60       FIXPVA
        218        60       FIXPVA
        219        60       FIXPVA
        220        60       FIXPVA
        221        60       FIXPVA
        222        60       FIXPVA
        223        60       FIXPVA
        224        60       FIXPVA
        225        60       FIXPVA
        226        60       FIXPVA
        227        60       FIXPVA
        228        60       FIXPVA
        229        60       FIXPVA
        230        60       FIXPVA
        231        60       FIXPVA
        232        60       FIXPVA
        233        60       FIXPVA
        234        60       FIXPVA
        235        60       FIXPVA
        236        60       FIXPVA
        237        60       FIXPVA
        238        60       FIXPVA
        239        60       FIXPVA
        240        60       FIXPVA
        241        60       FIXPVA
        242        60       FIXPVA
        243        60       FIXPVA
        244        60       FIXPVA
        245        60       FIXPVA
        246        60       FIXPVA
        247        60       FIXPVA
        248        60       FIXPVA
        249        60       FIXPVA
        250        60       FIXPVA
        251        60       FIXPVA
        252        60       FIXPVA
        253        60       FIXPVA
        254        60       FIXPVA
        255        60       FIXPVA
        256        60       FIXPVA
        257        60       FIXPVA
        258        60       FIXPVA
        259        60       FIXPVA
        260        60       FIXPVA
        261        60       FIXPVA
        262        60       FIXPVA
        263        60       FIXPVA
        264        60       FIXPVA
        265        60       FIXPVA
        266        60       FIXPVA
        267        60       FIXPVA
        268        60       FIXPVA
        269        60       FIXPVA
        270        60       FIXPVA
        271        60       FIXPVA
        272        60       FIXPVA
        273        60       FIXPVA
        274        60       FIXPVA
        275        60       FIXPVA
        276        60       FIXPVA
        277        60       FIXPVA
        278        60       FIXPVA
        279        60       FIXPVA
        280        60       FIXPVA
        281        60       FIXPVA
        282        60       FIXPVA
        283        60       FIXPVA
        284        60       FIXPVA
        285        60       FIXPVA
        286        60       FIXPVA
        287        60       FIXPVA
        288        60       FIXPVA
        289        60       FIXPVA
        290        60       FIXPVA
        291        60       FIXPVA
        292        60       FIXPVA
        293        60       FIXPVA
        294        60       FIXPVA
        295        60       FIXPVA
        296        60       FIXPVA
        297        60       FIXPVA
        298        60       FIXPVA
        299        60       FIXPVA
        300        60       FIXPVA
        301        60       FIXPVA
        302        60       FIXPVA
        303        60       FIXPVA
        304        60       FIXPVA
        305        60       FIXPVA
        306        60       FIXPVA
        307        60       FIXPVA
        308        60       FIXPVA
        309        60       FIXPVA
        310        60       FIXPVA
        311        60       FIXPVA
        312        60       FIXPVA
        313        60       FIXPVA
        314        60       FIXPVA
        315        60       FIXPVA
        316        60       FIXPVA
        317        60       FIXPVA
        318        60       FIXPVA
        319        60       FIXPVA
        320        60       FIXPVA
        321        60       FIXPVA
        322        60       FIXPVA
        323        60       FIXPVA
        324        60       FIXPVA
        325        60       FIXPVA
        326        60       FIXPVA
        327        60       FIXPVA
        328        60       FIXPVA
        329        60       FIXPVA
        330        60       FIXPVA
        331        60       FIXPVA
        332        60       FIXPVA
        333        60       FIXPVA
        334        60       FIXPVA
        335        60       FIXPVA
        336        60       FIXPVA
        337        60       FIXPVA
        338        60       FIXPVA
        339        60       FIXPVA
        340        60       FIXPVA
        341        60       FIXPVA
        342        60       FIXPVA
        343        60       FIXPVA
        344        60       FIXPVA
        345        60       FIXPVA
        346        60       FIXPVA
        347        60       FIXPVA
        348        60       FIXPVA
        349        60       FIXPVA
        350        60       FIXPVA
        351        60       FIXPVA

     ------------------------------
      FIXPVA TESSELLATION FOR PCM
         PEIFENG SU AND HUI LI
     UNIVERSITY OF NEBRASKA-LINCOLN
     ------------------------------


 PCM DIMENSIONS: MXSP=   351, MXTS=     14040, MEMORY=        144264

     INPUT FOR CAVITY DEFINITION 
     ---------------------------
   ATOM               COORDINATES                RADIUS       EPS
      1      6.1110      8.7470     17.6320      0.0100     78.3900
      2      6.2170      8.9600     16.6860      1.5900     78.3900
      3      4.9980      9.5860     16.2590      1.7700     78.3900
      4      4.8150     10.4840     16.8880      0.0100     78.3900
      5      4.1490      8.8830     16.4160      0.0100     78.3900
      6      5.0230     10.0260     14.7880      1.7700     78.3900
      7      4.0430     10.4540     14.4900      0.0100     78.3900
      8      6.0290     11.0690     14.6040      1.5900     78.3900
      9      6.6940     10.8650     13.3640      1.7700     78.3900
     10      6.5860     11.8210     12.8040      0.0100     78.3900
     11      8.1470     10.5700     13.5230      1.6800     78.3900
     12      8.6450     10.1580     14.7400      1.7700     78.3900
     13      7.9230     10.0570     15.5510      0.0100     78.3900
     14      9.9530      9.9250     14.9170      1.7700     78.3900
     15     10.3640      9.6220     15.8770      0.0100     78.3900
     16      9.0110     10.7170     12.4410      1.7700     78.3900
     17      8.5540     11.0690     11.3450      1.5900     78.3900
     18     10.3340     10.4840     12.6020      1.6800     78.3900
     19     10.8160     10.1180     13.8020      1.7700     78.3900
     20     12.1290      9.9330     13.9410      1.6800     78.3900
     21     12.7270     10.0230     13.1410      0.0100     78.3900
     22     12.5280      9.6100     14.8020      0.0100     78.3900
     23      5.9370      9.7790     12.6220      1.7700     78.3900
     24      6.5890      9.1900     11.9490      0.0100     78.3900
     25      4.8770     10.3540     11.8800      1.5900     78.3900
     26      4.3890      9.6240     11.4770      0.0100     78.3900
     27      5.4100      8.9350     13.7770      1.7700     78.3900
     28      6.2440      8.3620     14.2420      0.0100     78.3900
     29      4.2610      8.1120     13.4690      1.5900     78.3900
     30      4.4590      6.6060     13.0380      2.1000     78.3900
     31      5.4550      5.9720     13.9300      1.5900     78.3900
     32      3.1300      5.9550     12.9530      1.5900     78.3900
     33      5.0700      6.7070     11.5890      1.5900     78.3900
     34      4.2720      7.2620     10.5120      1.7700     78.3900
     35      3.8590      8.2640     10.7680      0.0100     78.3900
     36      3.4010      6.6140     10.2830      0.0100     78.3900
     37      5.0920      7.3960      9.2240      1.7700     78.3900
     38      4.4480      7.7640      8.3930      0.0100     78.3900
     39      6.1460      8.3800      9.4230      1.5900     78.3900
     40      7.3100      7.9530      8.7260      1.7700     78.3900
     41      7.5680      8.7910      8.0370      0.0100     78.3900
     42      8.4690      7.6990      9.6290      1.6800     78.3900
     43      8.2600      7.4510     10.9630      1.7700     78.3900
     44      7.2220      7.4370     11.2890      0.0100     78.3900
     45      9.2810      7.2640     11.8100      1.7700     78.3900
     46      9.1310      7.1030     12.8750      0.0100     78.3900
     47      9.7650      7.6790      9.1210      1.7700     78.3900
     48      9.9440      7.8540      7.9080      1.5900     78.3900
     49     10.8100      7.4740      9.9580      1.6800     78.3900
     50     10.5980      7.2930     11.2720      1.7700     78.3900
     51     11.6460      7.1350     12.0780      1.6800     78.3900
     52     12.5720      7.1210     11.6920      0.0100     78.3900
     53     11.5380      6.9300     13.0500      0.0100     78.3900
     54      6.9280      6.7400      7.9020      1.7700     78.3900
     55      7.7710      6.0320      7.7680      0.0100     78.3900
     56      6.4430      7.1550      6.6380      1.5900     78.3900
     57      6.1370      6.3590      6.1880      0.0100     78.3900
     58      5.8170      6.1310      8.7460      1.7700     78.3900
     59      6.2360      5.6390      9.6530      0.0100     78.3900
     60      4.8980      5.2890      8.0180      1.5900     78.3900
     61      5.1220      3.7370      7.9600      2.1000     78.3900
     62      5.5300      3.2510      9.3000      1.5900     78.3900
     63      3.9150      3.1200      7.3800      1.5900     78.3900
     64      6.3260      3.5490      6.9680      1.5900     78.3900
     65      6.2430      3.8800      5.5650      1.7700     78.3900
     66      5.8300      4.9000      5.4140      0.0100     78.3900
     67      5.5760      3.1610      5.0340      0.0100     78.3900
     68      7.6200      3.8220      4.8810      1.7700     78.3900
     69      7.5280      4.0870      3.8070      0.0100     78.3900
     70      8.5280      4.7940      5.4800      1.5900     78.3900
     71      9.8460      4.2580      5.5050      1.7700     78.3900
     72     10.4790      4.9720      4.9250      0.0100     78.3900
     73     10.3640      4.1290      6.9020      1.6800     78.3900
     74      9.4940      4.0170      7.9630      1.7700     78.3900
     75      8.4380      4.0060      7.7010      0.0100     78.3900
     76     11.7270      4.1170      7.1080      1.7700     78.3900
     77     12.5380      4.1780      6.1930      1.5900     78.3900
     78     12.1110      4.0380      8.4240      1.6800     78.3900
     79     13.1090      3.9920      8.5970      0.0100     78.3900
     80     11.2980      3.9970      9.5350      1.7700     78.3900
     81     11.7870      3.9870     10.6620      1.5900     78.3900
     82      9.8990      3.9670      9.2400      1.7700     78.3900
     83      9.1920      3.9230     10.0630      0.0100     78.3900
     84      9.8040      2.9240      4.7740      1.7700     78.3900
     85     10.5120      2.1880      5.2040      0.0100     78.3900
     86     10.0880      3.1000      3.3990      1.5900     78.3900
     87     10.0000      2.2240      3.0060      0.0100     78.3900
     88      8.3610      2.4840      4.9880      1.7700     78.3900
     89      8.2130      2.1330      6.0350      0.0100     78.3900
     90      7.8590      1.5540      3.9990      1.5900     78.3900
     91      7.9550      0.0050      4.2800      2.1000     78.3900
     92      7.4900     -0.2470      5.6630      1.5900     78.3900
     93      7.2300     -0.7070      3.2070      1.5900     78.3900
     94      9.4940     -0.3230      4.1760      1.5900     78.3900
     95     10.1940     -0.2970      2.9090      1.7700     78.3900
     96     10.0300      0.6620      2.3640      0.0100     78.3900
     97      9.8250     -1.1090      2.2440      0.0100     78.3900
     98     11.7110     -0.4870      3.0960      1.7700     78.3900
     99     12.2380     -0.4290      2.1210      0.0100     78.3900
    100     12.2330      0.5800      3.9360      1.5900     78.3900
    101     13.2730      0.0780      4.7580      1.7700     78.3900
    102     14.1750      0.6840      4.4980      0.0100     78.3900
    103     12.9530      0.2250      6.2050      1.6800     78.3900
    104     11.6490      0.3010      6.6410      1.7700     78.3900
    105     10.8960      0.2470      5.8590      0.0100     78.3900
    106     13.9980      0.2680      7.0980      1.7700     78.3900
    107     15.1720      0.1700      6.7570      1.5900     78.3900
    108     13.6230      0.4390      8.4040      1.6800     78.3900
    109     14.3870      0.4460      9.0700      0.0100     78.3900
    110     12.3520      0.5720      8.9120      1.7700     78.3900
    111     12.1840      0.7640     10.1140      1.5900     78.3900
    112     11.3180      0.4900      7.9270      1.7700     78.3900
    113     10.2840      0.6040      8.2440      0.0100     78.3900
    114     13.5140     -1.3680      4.3600      1.7700     78.3900
    115     13.7890     -2.0010      5.2300      0.0100     78.3900
    116     14.5260     -1.4500      3.3720      1.5900     78.3900
    117     14.5390     -2.3700      3.0640      0.0100     78.3900
    118     12.1550     -1.7810      3.7980      1.7700     78.3900
    119     11.4300     -1.9580      4.6240      0.0100     78.3900
    120     12.2010     -2.8770      2.8510      1.5900     78.3900
    121     12.2250     -4.3540      3.4120      2.1000     78.3900
    122     11.0660     -4.5180      4.3190      1.5900     78.3900
    123     12.2920     -5.2830      2.2610      1.5900     78.3900
    124     13.5770     -4.4660      4.2130      1.5900     78.3900
    125     13.7070     -5.4300      5.2830      1.7700     78.3900
    126     13.8350     -6.4540      4.8710      0.0100     78.3900
    127     12.8080     -5.4320      5.9450      0.0100     78.3900
    128     14.9240     -5.1080      6.1620      1.7700     78.3900
    129     15.8660     -5.1360      5.5770      0.0100     78.3900
    130     14.7840     -3.7670      6.7110      1.5900     78.3900
    131     15.2230     -3.7510      8.0560      1.7700     78.3900
    132     15.9930     -2.9520      8.1240      0.0100     78.3900
    133     14.1170     -3.4240      8.9660      1.6800     78.3900
    134     14.2200     -3.1470     10.3030      1.7700     78.3900
    135     16.1400     -2.7250     13.1460      1.6800     78.3900
    136     15.9880     -2.4550     14.0990      0.0100     78.3900
    137     17.0230     -3.0610     12.8510      0.0100     78.3900
    138     15.3590     -3.1410     11.0220      1.6800     78.3900
    139     15.1380     -2.8040     12.2920      1.7700     78.3900
    140     13.8980     -2.5020     12.7960      1.6800     78.3900
    141     13.8240     -2.2250     13.7600      0.0100     78.3900
    142     12.7110     -2.4990     12.0750      1.7700     78.3900
    143     11.6310     -2.2170     12.6050      1.5900     78.3900
    144     12.9290     -2.8720     10.7210      1.7700     78.3900
    145     12.0290     -2.9900      9.6670      1.6800     78.3900
    146     12.7800     -3.3120      8.6420      1.7700     78.3900
    147     12.4240     -3.4880      7.6230      0.0100     78.3900
    148     15.8470     -5.1080      8.3500      1.7700     78.3900
    149     15.6940     -5.4320      9.4020      0.0100     78.3900
    150     17.2320     -5.1040      8.0390      1.5900     78.3900
    151     17.7180     -4.6100      8.7040      0.0100     78.3900
    152     15.0740     -6.0040      7.3960      1.7700     78.3900
    153     14.0350     -6.1490      7.7720      0.0100     78.3900
    154     15.7430     -7.2380      7.0480      1.5900     78.3900
    155     15.3230     -8.5820      7.7520      2.1000     78.3900
    156     14.0820     -8.3680      8.5250      1.5900     78.3900
    157     15.2880     -9.6420      6.7210      1.5900     78.3900
    158     16.5030     -8.9320      8.7390      1.5900     78.3900
    159     16.6120     -8.3300     10.0500      1.7700     78.3900
    160     15.6160     -8.2140     10.5270      0.0100     78.3900
    161     17.0670     -7.3190      9.9530      0.0100     78.3900
    162     17.4770     -9.1530     11.0310      1.7700     78.3900
    163     16.9470    -10.0800     11.3420      0.0100     78.3900
    164     18.7140     -9.5630     10.3860      1.5900     78.3900
    165     19.8020     -9.4240     11.2850      1.7700     78.3900
    166     20.2830    -10.4290     11.3210      0.0100     78.3900
    167     20.8060     -8.4320     10.8090      1.6800     78.3900
    168     20.4800     -7.5510      9.8000      1.7700     78.3900
    169     19.4610     -7.6100      9.4090      0.0100     78.3900
    170     21.3780     -6.6880      9.3120      1.7700     78.3900
    171     21.1360     -5.9850      8.5180      0.0100     78.3900
    172     22.0930     -8.4220     11.3510      1.7700     78.3900
    173     22.3830     -9.2370     12.2390      1.5900     78.3900
    174     23.0100     -7.5490     10.8710      1.6800     78.3900
    175     22.6880     -6.7100      9.8720      1.7700     78.3900
    176     23.6180     -5.8920      9.3890      1.6800     78.3900
    177     24.5040     -5.8530      9.8550      0.0100     78.3900
    178     23.3950     -5.1740      8.7320      0.0100     78.3900
    179     19.2310     -9.1000     12.6540      1.7700     78.3900
    180     19.8970     -8.4430     13.2540      0.0100     78.3900
    181     18.9800    -10.3060     13.3540      1.5900     78.3900
    182     18.4950    -10.0870     14.1670      0.0100     78.3900
    183     17.9350     -8.3850     12.2880      1.7700     78.3900
    184     18.1590     -7.3470     11.9540      0.0100     78.3900
    185     16.9120     -8.4400     13.3060      1.5900     78.3900
    186     16.7190     -7.2530     14.3210      2.1000     78.3900
    187     16.5240     -6.0090     13.5460      1.5900     78.3900
    188     15.6500     -7.6250     15.2720      1.5900     78.3900
    189     18.0660     -7.1450     15.1240      1.5900     78.3900
    190     18.4390     -5.9020     15.7890      1.7700     78.3900
    191     18.1730     -5.9620     16.8680      0.0100     78.3900
    192     17.8880     -5.0180     15.3810      0.0100     78.3900
    193     19.9510     -5.5850     15.6810      1.7700     78.3900
    194     20.5140     -6.0510     16.5160      0.0100     78.3900
    195     20.4930     -6.1560     14.4470      1.5900     78.3900
    196     21.3370     -5.2180     13.8130      1.7700     78.3900
    197     22.2860     -5.7630     13.6010      0.0100     78.3900
    198     20.7700     -4.7120     12.5310      1.6800     78.3900
    199     19.4270     -4.8500     12.2410      1.7700     78.3900
    200     18.8170     -5.3630     12.9930      0.0100     78.3900
    201     18.9170     -4.4040     11.0830      1.7700     78.3900
    202     17.8650     -4.5280     10.8290      0.0100     78.3900
    203     21.6080     -4.0530     11.6350      1.7700     78.3900
    204     22.8010     -3.8890     11.9330      1.5900     78.3900
    205     21.1150     -3.6270     10.4510      1.6800     78.3900
    206     19.8160     -3.7810     10.1640      1.7700     78.3900
    207     19.3940     -3.3580      8.9730      1.6800     78.3900
    208     20.1050     -2.9670      8.3790      0.0100     78.3900
    209     18.4610     -3.0770      8.7790      0.0100     78.3900
    210     21.6130     -4.1140     14.8110      1.7700     78.3900
    211     21.8030     -3.1380     14.3180      0.0100     78.3900
    212     22.7190     -4.4570     15.6270      1.5900     78.3900
    213     22.7940     -3.7790     16.3170      0.0100     78.3900
    214     20.3100     -4.0840     15.6060      1.7700     78.3900
    215     19.5140     -3.5860     15.0060      0.0100     78.3900
    216     20.4170     -3.5290     16.9370      1.5900     78.3900
    217     20.4390     -1.9610     17.1310      2.1000     78.3900
    218     19.2000     -1.4080     16.5440      1.5900     78.3900
    219     20.6910     -1.6720     18.5610      1.5900     78.3900
    220     21.6910     -1.4270     16.3340      1.5900     78.3900
    221     21.7000     -0.0820     15.7820      1.7700     78.3900
    222     22.5530      0.4900     16.2100      0.0100     78.3900
    223     20.7780      0.5010     16.0270      0.0100     78.3900
    224     21.8470     -0.1080     14.2510      1.7700     78.3900
    225     22.8450     -0.5030     13.9610      0.0100     78.3900
    226     20.8370     -0.9910     13.6840      1.5900     78.3900
    227     20.3320     -0.4390     12.4940      1.7700     78.3900
    228     20.4430     -1.2170     11.7040      0.0100     78.3900
    229     18.9230     -0.0910     12.6600      1.6800     78.3900
    230     16.7990      0.3080     12.2820      1.7700     78.3900
    231     16.9770      0.4530     13.6520      1.6800     78.3900
    232     18.2510      0.1980     13.8270      1.7700     78.3900
    233     18.7650      0.1920     14.7930      0.0100     78.3900
    234     15.8340      0.2050     10.1310      1.6800     78.3900
    235     17.0530     -0.0880      9.6770      1.7700     78.3900
    236     17.1210     -0.2350      8.5950      0.0100     78.3900
    237     18.1950     -0.2320     10.3540      1.6800     78.3900
    238     17.9930     -0.0190     11.6630      1.7700     78.3900
    239     15.6580      0.3950     11.4610      1.7700     78.3900
    240     14.4160      0.6150     11.9300      1.6800     78.3900
    241     14.2500      0.8630     12.8910      0.0100     78.3900
    242     13.6490      0.7020     11.2870      0.0100     78.3900
    243     21.1850      0.7570     12.1500      1.7700     78.3900
    244     20.6170      1.5410     11.6080      0.0100     78.3900
    245     22.3030      0.3570     11.3760      1.5900     78.3900
    246     22.8340      1.1500     11.2350      0.0100     78.3900
    247     21.6050      1.2360     13.5340      1.7700     78.3900
    248     20.7500      1.7240     14.0600      0.0100     78.3900
    249     22.8000      2.0440     13.5490      1.5900     78.3900
    250     22.6920      3.6000     13.3290      2.1000     78.3900
    251     21.6330      4.1040     14.2360      1.5900     78.3900
    252     24.0400      4.2020     13.4670      1.5900     78.3900
    253     22.1880      3.7690     11.8530      1.5900     78.3900
    254     23.0630      3.5850     10.7190      1.7700     78.3900
    255     23.5570      2.5860     10.7430      0.0100     78.3900
    256     23.8690      4.3590     10.7160      0.0100     78.3900
    257     22.2730      3.6930      9.4050      1.7700     78.3900
    258     22.9190      3.4460      8.5330      0.0100     78.3900
    259     21.1570      2.7540      9.4040      1.5900     78.3900
    260     20.0540      3.3350      8.7310      1.7700     78.3900
    261     19.7930      2.6440      7.8970      0.0100     78.3900
    262     18.8890      3.4770      9.6220      1.6800     78.3900
    263     16.8290      3.6280     10.3840      1.7700     78.3900
    264     17.6570      3.6160     11.5040      1.6800     78.3900
    265     18.8660      3.5380     10.9970      1.7700     78.3900
    266     19.7910      3.5190     11.5780      0.0100     78.3900
    267     14.9280      3.7250      8.9660      1.6800     78.3900
    268     15.7840      3.6360      7.9440      1.7700     78.3900
    269     15.3360      3.6470      6.9390      0.0100     78.3900
    270     17.1170      3.5580      7.9610      1.6800     78.3900
    271     17.5780      3.5500      9.2230      1.7700     78.3900
    272     15.4260      3.7180     10.2320      1.7700     78.3900
    273     14.5680      3.7910     11.2670      1.6800     78.3900
    274     14.8910      3.8430     12.2170      0.0100     78.3900
    275     13.5810      3.8500     11.0940      0.0100     78.3900
    276     20.5210      4.6570      8.1610      1.7700     78.3900
    277     19.7110      5.4110      8.1200      0.0100     78.3900
    278     21.0500      4.4640      6.8640      1.5900     78.3900
    279     21.3630      5.3260      6.5610      0.0100     78.3900
    280     21.6130      5.0520      9.1490      1.7700     78.3900
    281     21.1640      5.3580     10.1230      0.0100     78.3900
    282     22.5910      6.0000      8.6410      1.5900     78.3900
    283     22.2610      7.5310      8.8380      2.1000     78.3900
    284     21.7910      7.7300     10.2230      1.5900     78.3900
    285     23.4400      8.3310      8.4350      1.5900     78.3900
    286     21.0660      7.8370      7.8620      1.5900     78.3900
    287     21.2920      7.8780      6.4340      1.7700     78.3900
    288     21.7640      6.9370      6.0730      0.0100     78.3900
    289     21.9690      8.7270      6.1750      0.0100     78.3900
    290     19.9720      8.0490      5.6720      1.7700     78.3900
    291     20.1360      8.0140      4.5720      0.0100     78.3900
    292     19.0590      6.9650      6.0110      1.5900     78.3900
    293     17.7330      7.4740      6.0740      1.7700     78.3900
    294     17.1190      6.8660      5.3710      0.0100     78.3900
    295     17.1700      7.3520      7.4260      1.6800     78.3900
    296     15.8410      7.3750      7.7510      1.7700     78.3900
    297     12.5190      7.7010      6.8110      1.6800     78.3900
    298     12.5820      7.8380      5.8260      0.0100     78.3900
    299     11.6160      7.7420      7.2470      0.0100     78.3900
    300     14.8230      7.5350      6.8860      1.6800     78.3900
    301     13.6380      7.5300      7.4950      1.7700     78.3900
    302     13.4910      7.3500      8.8450      1.6800     78.3900
    303     12.5590      7.3560      9.2270      0.0100     78.3900
    304     14.5240      7.1670      9.7570      1.7700     78.3900
    305     14.2920      7.0170     10.9620      1.5900     78.3900
    306     15.7920      7.1970      9.1200      1.7700     78.3900
    307     17.0730      7.0810      9.6510      1.6800     78.3900
    308     17.8570      7.1950      8.6070      1.7700     78.3900
    309     18.9470      7.1700      8.6300      0.0100     78.3900
    310     17.7770      8.9090      5.6020      1.7700     78.3900
    311     17.0100      9.5430      6.0880      0.0100     78.3900
    312     17.6040      8.9510      4.2000      1.5900     78.3900
    313     17.6760      9.8760      3.9360      0.0100     78.3900
    314     19.1890      9.3230      6.0080      1.7700     78.3900
    315     19.2510      9.4420      7.1150      0.0100     78.3900
    316     19.7420     10.4470      5.2830      1.5900     78.3900
    317     19.5860     11.8940      5.8890      2.1000     78.3900
    318     19.8750     11.8460      7.3360      1.5900     78.3900
    319     20.3760     12.8610      5.0910      1.5900     78.3900
    320     18.0540     12.1870      5.6920      1.5900     78.3900
    321     17.5050     12.3300      4.3610      1.7700     78.3900
    322     17.7630     11.4650      3.7070      0.0100     78.3900
    323     17.9120     13.2370      3.8650      0.0100     78.3900
    324     15.9850     12.5160      4.4200      1.7700     78.3900
    325     15.5610     12.6670      3.4020      0.0100     78.3900
    326     15.3570     11.3280      4.9800      1.5900     78.3900
[...]
   299   10   1.0   0.00    0.0    0.000000    0.473212    0.523023
   300   10   7.0   6.01   11.8    0.097020   -0.761433   -0.763479
   301   10   6.0   0.00    0.0    0.000000    0.988502    0.986520
   302   10   7.0   0.00    0.0    0.000000   -0.938082   -1.030703
   303   10   1.0   0.00    0.0    0.000000    0.479327    0.542027
   304   10   6.0   0.02    0.0    0.001831    0.895503    0.898487
   305   10   8.0   7.60   16.6    0.159805   -0.763373   -0.751861
   306   10   6.0   0.00    0.0    0.000000   -0.037627   -0.028782
   307   10   7.0   9.20   18.0    0.168990   -0.601903   -0.607081
   308   10   6.0   2.87    5.1    0.013141    0.268850    0.260318
   309   10   1.0   0.00    0.0    0.000000    0.267797    0.288276
   310   10   6.0   0.00    0.0    0.000588    0.129494    0.094017
   311   10   1.0   0.00    0.0    0.000000    0.199405    0.234013
   312   10   8.0  15.65   34.2    0.093155   -0.826405   -0.845272
   313   10   1.0   0.00    0.0    0.000000    0.500726    0.524492
   314   10   6.0   0.95    1.7   -0.013937    0.148018    0.116838
   315   10   1.0   0.00    0.0    0.000000    0.239288    0.242079
   316   10   8.0   5.22   11.4    0.060057   -0.797017   -0.804783
   317   10  15.0   9.10   11.4    0.129235    1.605441    1.665382
   318   10   8.0  14.74   32.2    0.322474   -0.894102   -0.895145
   319   10   8.0  18.97   41.5    0.364998   -0.892771   -0.888941
   320   10   8.0   1.80    3.9    0.028605   -0.969843   -0.784760
   321   11   6.0  12.37   21.8   -0.098910    0.213181   -0.039544
   322   11   1.0   0.00    0.0    0.000000    0.143088    0.174012
   323   11   1.0   0.00    0.0    0.000000    0.245172    0.228692
   324   11   6.0   5.18    9.1   -0.042814    0.088305    0.155755
   325   11   1.0   0.00    0.0    0.000000    0.251737    0.224537
   326   11   8.0   4.19    9.2    0.053045   -0.726504   -0.734438
   327   11   6.0   2.84    5.0   -0.042149    0.422651    0.422742
   328   11   1.0   0.00    0.0    0.000000    0.248086    0.246162
   329   11   7.0   0.00    0.0    0.000000   -0.793059   -0.804160
   330   11   6.0   2.20    3.9    0.002827    0.709305    0.713434
   331   11   7.0  16.13   31.6   -0.099686   -0.969761   -1.053093
   332   11   1.0   0.00    0.0    0.000000    0.444277    0.440008
   333   11   1.0   0.00    0.0    0.000000    0.470516    0.522766
   334   11   7.0   8.09   15.8    0.114480   -0.757909   -0.757750
   335   11   6.0   3.78    6.7   -0.002721    0.987453    0.984340
   336   11   7.0   2.64    5.2    0.004995   -0.934722   -1.023964
   337   11   1.0   0.00    0.0    0.000000    0.480120    0.542434
   338   11   6.0   2.21    3.9   -0.000605    0.881945    0.881034
   339   11   8.0  10.84   23.7    0.168064   -0.758944   -0.745844
   340   11   6.0   0.94    1.7    0.006220   -0.063051   -0.057987
   341   11   7.0   9.59   18.8    0.157521   -0.589316   -0.597633
   342   11   6.0   3.88    6.8    0.010963    0.275454    0.268804
   343   11   1.0   0.00    0.0    0.000000    0.264852    0.282056
   344   11   6.0   6.62   11.7   -0.057997    0.109519    0.109775
   345   11   1.0   0.00    0.0    0.000000    0.229031    0.228265
   346   11   8.0  21.11   46.2    0.031944   -0.841725   -0.843023
   347   11   1.0   0.00    0.0    0.000000    0.506979    0.507259
   348   11   6.0   5.64   10.0   -0.049262    0.164960    0.150005
   349   11   1.0   0.00    0.0    0.000000    0.223776    0.225442
   350   11   8.0  22.01   48.1   -0.012252   -0.850413   -0.854007
   351   11   1.0   0.00    0.0    0.000000    0.508038    0.507503

 Done with FMO properties.
 CPU     0: STEP CPU TIME=     0.01 TOTAL CPU TIME=      16797.8 (    280.0 MIN)
 TOTAL WALL CLOCK TIME=      37564.6 SECONDS, CPU UTILIZATION IS    44.72%
 CPU     0: STEP CPU TIME=     0.00 TOTAL CPU TIME=      16797.8 (    280.0 MIN)
 TOTAL WALL CLOCK TIME=      37564.6 SECONDS, CPU UTILIZATION IS    44.72%

 Total timing statistics in pairs (CPU,wall) for each rank, sec

    Rank   total     SCF    corr     DFT    CPHF     EFP    solv     ESP    geom
 -------------------------------------------------------------------------------
       1   16797.8   4998.4   6309.8      0.0    0.0   0.0  159.9  4975.8    0.0
       1   37564.7  10967.0  15165.6      0.0    0.0   0.0  481.5 10140.2    0.0
       2   16403.4   4982.7   5926.4      0.0    0.0   0.0  159.9  4992.5    0.0
       2   37564.7  10966.4  15166.0      0.0    0.0   0.0  482.0 10139.5    0.0
       3   16487.9   4961.3   5923.1      0.0    0.0   0.0  161.6  5075.3    0.0
       3   37564.7  10966.5  15166.0      0.0    0.0   0.0  481.7 10139.7    0.0
       4   16966.2   4992.6   6371.5      0.0    0.0   0.0  160.6  5084.6    0.0
       4   37564.7  10967.7  15166.0      0.0    0.0   0.0  480.3 10139.5    0.0
       5   16770.9   5053.3   6270.2      0.0    0.0   0.0  160.6  4951.3    0.0
       5   37564.7  10967.0  15165.9      0.0    0.0   0.0  481.4 10139.6    0.0
       6   17080.9   5123.4   6592.1      0.0    0.0   0.0  160.3  4877.7    0.0
       6   37564.7  10967.6  15165.9      0.0    0.0   0.0  480.4 10139.5    0.0
       7   16520.4   5010.0   5882.6      0.0    0.0   0.0  160.5  5133.6    0.0
       7   37564.7  10967.5  15166.0      0.0    0.0   0.0  480.8 10139.5    0.0
       8   18270.2   5213.7   7309.6      0.0    0.0   0.0  160.0  5257.9    0.0
       8   37564.7  10968.1  15165.9      0.0    0.0   0.0  479.7 10139.5    0.0
       9   15825.7   5043.3   5456.5      0.0    0.0   0.0  157.4  4850.2    0.0
       9   37564.7  10967.8  15166.0      0.0    0.0   0.0  480.6 10139.4    0.0
      10   17052.7   5065.5   6713.5      0.0    0.0   0.0  158.8  4788.2    0.0
      10   37564.7  10968.1  15166.0      0.0    0.0   0.0  480.5 10139.2    0.0
      11   17383.2   5011.3   7047.6      0.0    0.0   0.0  158.5  4832.0    0.0
      11   37564.7  10969.0  15166.0      0.0    0.0   0.0  480.1 10139.1    0.0
      12   17807.4   5085.1   7245.9      0.0    0.0   0.0  158.5  5001.0    0.0
      12   37564.7  10969.3  15166.0      0.0    0.0   0.0  479.3 10139.0    0.0
      13   16800.6   5025.5   6423.5      0.0    0.0   0.0  157.6  4875.6    0.0
      13   37564.7  10969.0  15166.0      0.0    0.0   0.0  479.8 10139.2    0.0
      14   16942.5   5114.6   6075.9      0.0    0.0   0.0  158.6  5251.8    0.0
      14   37564.7  10968.6  15166.0      0.0    0.0   0.0  479.5 10139.2    0.0
      15   17974.7   5072.3   7278.1      0.0    0.0   0.0  158.5  5138.3    0.0
      15   37564.7  10969.1  15166.0      0.0    0.0   0.0  479.4 10139.0    0.0
      16   17530.7   5106.1   6795.3      0.0    0.0   0.0  159.1  5128.7    0.0
      16   37564.7  10969.7  15166.0      0.0    0.0   0.0  478.3 10139.0    0.0
averaged   17038.5   5053.7   6476.3      0.0    0.0   0.0  159.4  5013.4    0.0
averaged   37564.7  10968.0  15165.9      0.0    0.0   0.0  480.3 10139.4    0.0

  FMO  timing statistics in pairs (CPU,wall) for each rank, sec

    Rank  FMOini FMOscf1  FMOdm1 FMOsyn1 FMOscf2  FMOes2 FMOsyn2 FMOscf3 FMOsyn3
 -------------------------------------------------------------------------------
       1    2.2    6495.0    0.3    0.0   10046.5     253.7    0.0    0.0    0.0
       1    5.4   13966.1    0.8    0.0   23101.8     488.5    1.7    0.0    0.0
       2    1.6    6505.1    0.1    0.0    9649.7     246.8    0.0    0.0    0.0
       2    5.4   13966.1    0.8    0.0   23100.4     489.9    1.7    0.0    0.0
       3    1.8    6484.8    0.1    0.0    9732.0     269.0    0.0    0.0    0.0
       3    5.4   13966.1    0.8    0.0   23101.1     489.2    1.7    0.0    0.0
       4    1.6    6589.8    0.1    0.0   10113.6     261.1    0.0    0.0    0.0
       4    5.4   13966.1    0.8    0.0   23101.5     488.9    1.7    0.0    0.0
       5    2.0    6568.9    0.2    0.0    9961.2     238.6    0.0    0.0    0.0
       5    5.4   13966.1    0.8    0.0   23101.9     488.4    1.7    0.0    0.0
       6    1.7    6460.7    0.1    0.0   10385.4     232.9    0.0    0.0    0.0
       6    5.4   13966.1    0.8    0.0   23101.1     489.2    1.7    0.0    0.0
       7    1.8    6756.5    0.1    0.0    9524.0     237.9    0.0    0.0    0.0
       7    5.4   13966.1    0.8    0.0   23100.9     489.4    1.7    0.0    0.0
       8    1.6    6910.6    0.1    0.0   11122.5     235.4    0.0    0.0    0.0
       8    5.4   13966.1    0.8    0.0   23101.6     488.7    1.7    0.0    0.0
       9    1.9    6447.0    0.3    0.0    9153.8     222.6    0.0    0.0    0.0
       9    5.4   13966.1    0.8    0.0   23101.6     488.7    1.7    0.0    0.0
      10    1.5    6476.7    0.1    0.0   10341.3     233.0    0.0    0.0    0.0
      10    5.4   13966.1    0.8    0.0   23100.9     489.4    1.7    0.0    0.0
      11    1.6    6427.5    0.1    0.0   10714.3     239.7    0.0    0.0    0.0
      11    5.4   13966.1    0.8    0.0   23101.8     488.5    1.7    0.0    0.0
      12    1.5    6633.4    0.1    0.0   10948.1     224.4    0.0    0.0    0.0
      12    5.4   13966.1    0.8    0.0   23101.9     488.5    1.7    0.0    0.0
      13    1.8    6451.6    0.2    0.0   10122.5     224.5    0.0    0.0    0.0
      13    5.4   13966.1    0.8    0.0   23101.5     488.8    1.7    0.0    0.0
      14    1.5    6858.9    0.1    0.0    9834.0     248.0    0.0    0.0    0.0
      14    5.4   13966.1    0.8    0.0   23100.7     489.6    1.7    0.0    0.0
      15    1.6    6728.4    0.2    0.0   11011.5     232.9    0.0    0.0    0.0
      15    5.4   13966.1    0.8    0.0   23101.3     489.1    1.7    0.0    0.0
      16    1.5    6711.6    0.0    0.0   10570.0     247.5    0.0    0.0    0.0
      16    5.4   13966.1    0.8    0.0   23101.2     489.2    1.7    0.0    0.0
averaged    1.7    6594.2    0.1    0.0   10201.9     240.5    0.0    0.0    0.0
averaged    5.4   13966.1    0.8    0.0   23101.3     489.0    1.7    0.0    0.0
             62785370  WORDS OF DYNAMIC MEMORY USED
 EXECUTION OF GAMESS TERMINATED NORMALLY Fri Dec  6 11:10:12 2019
 DDI: 263640 bytes (0.3 MB / 0 MWords) used by master data server.

 ----------------------------------------
 CPU timing information for all processes
 ========================================
 0: 16393.681 + 404.210 = 16797.891
 1: 16064.44 + 339.444 = 16403.488
 2: 16132.276 + 355.713 = 16487.989
 3: 16602.594 + 363.712 = 16966.307
 4: 16381.325 + 389.657 = 16770.983
 5: 16708.984 + 372.09 = 17080.994
 6: 16157.480 + 363.09 = 16520.490
 7: 17866.170 + 404.117 = 18270.288
 8: 15488.746 + 337.19 = 15825.765
 9: 16684.896 + 367.846 = 17052.742
 10: 16988.416 + 394.930 = 17383.346
 11: 17414.883 + 392.622 = 17807.505
 12: 16423.875 + 376.914 = 16800.790
 13: 16592.235 + 350.309 = 16942.545
 14: 17567.969 + 406.891 = 17974.861
 15: 17164.157 + 366.621 = 17530.779
 ----------------------------------------
 ddikick.x: exited gracefully.
unset echo
----- accounting info -----
Files used on the master node gollum060.lsa.umich.edu were:
-rw-r--r-- 1 hazwong frank    17561 Dec  6 00:44 /scratch/hazwong/820845/2LBJ_1/usrc/2LBJ_1_fmo_input.F05
-rw-r--r-- 1 hazwong frank      634 Dec  6 11:10 /scratch/hazwong/820845/2LBJ_1/usrc/2LBJ_1_fmo_input.F06.001
-rw-r--r-- 1 hazwong frank      634 Dec  6 11:10 /scratch/hazwong/820845/2LBJ_1/usrc/2LBJ_1_fmo_input.F06.002
-rw-r--r-- 1 hazwong frank      634 Dec  6 11:10 /scratch/hazwong/820845/2LBJ_1/usrc/2LBJ_1_fmo_input.F06.003
-rw-r--r-- 1 hazwong frank      634 Dec  6 11:10 /scratch/hazwong/820845/2LBJ_1/usrc/2LBJ_1_fmo_input.F06.004
-rw-r--r-- 1 hazwong frank      634 Dec  6 11:10 /scratch/hazwong/820845/2LBJ_1/usrc/2LBJ_1_fmo_input.F06.005
-rw-r--r-- 1 hazwong frank      634 Dec  6 11:10 /scratch/hazwong/820845/2LBJ_1/usrc/2LBJ_1_fmo_input.F06.006
-rw-r--r-- 1 hazwong frank      634 Dec  6 11:10 /scratch/hazwong/820845/2LBJ_1/usrc/2LBJ_1_fmo_input.F06.007
-rw-r--r-- 1 hazwong frank      634 Dec  6 11:10 /scratch/hazwong/820845/2LBJ_1/usrc/2LBJ_1_fmo_input.F06.008
-rw-r--r-- 1 hazwong frank      634 Dec  6 11:10 /scratch/hazwong/820845/2LBJ_1/usrc/2LBJ_1_fmo_input.F06.009
-rw-r--r-- 1 hazwong frank      634 Dec  6 11:10 /scratch/hazwong/820845/2LBJ_1/usrc/2LBJ_1_fmo_input.F06.010
-rw-r--r-- 1 hazwong frank      634 Dec  6 11:10 /scratch/hazwong/820845/2LBJ_1/usrc/2LBJ_1_fmo_input.F06.011
-rw-r--r-- 1 hazwong frank      634 Dec  6 11:10 /scratch/hazwong/820845/2LBJ_1/usrc/2LBJ_1_fmo_input.F06.012
-rw-r--r-- 1 hazwong frank      634 Dec  6 11:10 /scratch/hazwong/820845/2LBJ_1/usrc/2LBJ_1_fmo_input.F06.013
-rw-r--r-- 1 hazwong frank      634 Dec  6 11:10 /scratch/hazwong/820845/2LBJ_1/usrc/2LBJ_1_fmo_input.F06.014
-rw-r--r-- 1 hazwong frank      634 Dec  6 11:10 /scratch/hazwong/820845/2LBJ_1/usrc/2LBJ_1_fmo_input.F06.015
-rw-r--r-- 1 hazwong frank    10850 Dec  6 11:10 /scratch/hazwong/820845/2LBJ_1/usrc/2LBJ_1_fmo_input.F07
-rw-r--r-- 1 hazwong frank        0 Dec  6 00:44 /scratch/hazwong/820845/2LBJ_1/usrc/2LBJ_1_fmo_input.F07.001
-rw-r--r-- 1 hazwong frank        0 Dec  6 00:44 /scratch/hazwong/820845/2LBJ_1/usrc/2LBJ_1_fmo_input.F07.002
-rw-r--r-- 1 hazwong frank        0 Dec  6 00:44 /scratch/hazwong/820845/2LBJ_1/usrc/2LBJ_1_fmo_input.F07.003
-rw-r--r-- 1 hazwong frank        0 Dec  6 00:44 /scratch/hazwong/820845/2LBJ_1/usrc/2LBJ_1_fmo_input.F07.004
-rw-r--r-- 1 hazwong frank        0 Dec  6 00:44 /scratch/hazwong/820845/2LBJ_1/usrc/2LBJ_1_fmo_input.F07.005
-rw-r--r-- 1 hazwong frank        0 Dec  6 00:44 /scratch/hazwong/820845/2LBJ_1/usrc/2LBJ_1_fmo_input.F07.006
-rw-r--r-- 1 hazwong frank        0 Dec  6 00:44 /scratch/hazwong/820845/2LBJ_1/usrc/2LBJ_1_fmo_input.F07.007
-rw-r--r-- 1 hazwong frank        0 Dec  6 00:44 /scratch/hazwong/820845/2LBJ_1/usrc/2LBJ_1_fmo_input.F07.008
-rw-r--r-- 1 hazwong frank        0 Dec  6 00:44 /scratch/hazwong/820845/2LBJ_1/usrc/2LBJ_1_fmo_input.F07.009
-rw-r--r-- 1 hazwong frank        0 Dec  6 00:44 /scratch/hazwong/820845/2LBJ_1/usrc/2LBJ_1_fmo_input.F07.010
-rw-r--r-- 1 hazwong frank        0 Dec  6 00:44 /scratch/hazwong/820845/2LBJ_1/usrc/2LBJ_1_fmo_input.F07.011
-rw-r--r-- 1 hazwong frank        0 Dec  6 00:44 /scratch/hazwong/820845/2LBJ_1/usrc/2LBJ_1_fmo_input.F07.012
-rw-r--r-- 1 hazwong frank        0 Dec  6 00:44 /scratch/hazwong/820845/2LBJ_1/usrc/2LBJ_1_fmo_input.F07.013
-rw-r--r-- 1 hazwong frank        0 Dec  6 00:44 /scratch/hazwong/820845/2LBJ_1/usrc/2LBJ_1_fmo_input.F07.014
-rw-r--r-- 1 hazwong frank        0 Dec  6 00:44 /scratch/hazwong/820845/2LBJ_1/usrc/2LBJ_1_fmo_input.F07.015
-rw-r--r-- 1 hazwong frank    65440 Dec  6 11:10 /scratch/hazwong/820845/2LBJ_1/usrc/2LBJ_1_fmo_input.F10.000
-rw-r--r-- 1 hazwong frank        0 Dec  6 00:44 /scratch/hazwong/820845/2LBJ_1/usrc/2LBJ_1_fmo_input.F26.000
-rw-r--r-- 1 hazwong frank        0 Dec  6 00:44 /scratch/hazwong/820845/2LBJ_1/usrc/2LBJ_1_fmo_input.F26.001
-rw-r--r-- 1 hazwong frank        0 Dec  6 00:44 /scratch/hazwong/820845/2LBJ_1/usrc/2LBJ_1_fmo_input.F26.002
-rw-r--r-- 1 hazwong frank        0 Dec  6 00:44 /scratch/hazwong/820845/2LBJ_1/usrc/2LBJ_1_fmo_input.F26.003
-rw-r--r-- 1 hazwong frank        0 Dec  6 00:44 /scratch/hazwong/820845/2LBJ_1/usrc/2LBJ_1_fmo_input.F26.004
-rw-r--r-- 1 hazwong frank        0 Dec  6 00:44 /scratch/hazwong/820845/2LBJ_1/usrc/2LBJ_1_fmo_input.F26.005
-rw-r--r-- 1 hazwong frank        0 Dec  6 00:44 /scratch/hazwong/820845/2LBJ_1/usrc/2LBJ_1_fmo_input.F26.006
-rw-r--r-- 1 hazwong frank        0 Dec  6 00:44 /scratch/hazwong/820845/2LBJ_1/usrc/2LBJ_1_fmo_input.F26.007
-rw-r--r-- 1 hazwong frank        0 Dec  6 00:44 /scratch/hazwong/820845/2LBJ_1/usrc/2LBJ_1_fmo_input.F26.008
-rw-r--r-- 1 hazwong frank        0 Dec  6 00:44 /scratch/hazwong/820845/2LBJ_1/usrc/2LBJ_1_fmo_input.F26.009
-rw-r--r-- 1 hazwong frank        0 Dec  6 00:44 /scratch/hazwong/820845/2LBJ_1/usrc/2LBJ_1_fmo_input.F26.010
-rw-r--r-- 1 hazwong frank        0 Dec  6 00:44 /scratch/hazwong/820845/2LBJ_1/usrc/2LBJ_1_fmo_input.F26.011
-rw-r--r-- 1 hazwong frank        0 Dec  6 00:44 /scratch/hazwong/820845/2LBJ_1/usrc/2LBJ_1_fmo_input.F26.012
-rw-r--r-- 1 hazwong frank        0 Dec  6 00:44 /scratch/hazwong/820845/2LBJ_1/usrc/2LBJ_1_fmo_input.F26.013
-rw-r--r-- 1 hazwong frank        0 Dec  6 00:44 /scratch/hazwong/820845/2LBJ_1/usrc/2LBJ_1_fmo_input.F26.014
-rw-r--r-- 1 hazwong frank        0 Dec  6 00:44 /scratch/hazwong/820845/2LBJ_1/usrc/2LBJ_1_fmo_input.F26.015
-rw-r--r-- 1 hazwong frank        0 Dec  6 00:44 /scratch/hazwong/820845/2LBJ_1/usrc/2LBJ_1_fmo_input.F27.000
-rw-r--r-- 1 hazwong frank        0 Dec  6 00:44 /scratch/hazwong/820845/2LBJ_1/usrc/2LBJ_1_fmo_input.F27.001
-rw-r--r-- 1 hazwong frank        0 Dec  6 00:44 /scratch/hazwong/820845/2LBJ_1/usrc/2LBJ_1_fmo_input.F27.002
-rw-r--r-- 1 hazwong frank        0 Dec  6 00:44 /scratch/hazwong/820845/2LBJ_1/usrc/2LBJ_1_fmo_input.F27.003
-rw-r--r-- 1 hazwong frank        0 Dec  6 00:44 /scratch/hazwong/820845/2LBJ_1/usrc/2LBJ_1_fmo_input.F27.004
-rw-r--r-- 1 hazwong frank        0 Dec  6 00:44 /scratch/hazwong/820845/2LBJ_1/usrc/2LBJ_1_fmo_input.F27.005
-rw-r--r-- 1 hazwong frank        0 Dec  6 00:44 /scratch/hazwong/820845/2LBJ_1/usrc/2LBJ_1_fmo_input.F27.006
-rw-r--r-- 1 hazwong frank        0 Dec  6 00:44 /scratch/hazwong/820845/2LBJ_1/usrc/2LBJ_1_fmo_input.F27.007
-rw-r--r-- 1 hazwong frank        0 Dec  6 00:44 /scratch/hazwong/820845/2LBJ_1/usrc/2LBJ_1_fmo_input.F27.008
-rw-r--r-- 1 hazwong frank        0 Dec  6 00:44 /scratch/hazwong/820845/2LBJ_1/usrc/2LBJ_1_fmo_input.F27.009
-rw-r--r-- 1 hazwong frank        0 Dec  6 00:44 /scratch/hazwong/820845/2LBJ_1/usrc/2LBJ_1_fmo_input.F27.010
-rw-r--r-- 1 hazwong frank        0 Dec  6 00:44 /scratch/hazwong/820845/2LBJ_1/usrc/2LBJ_1_fmo_input.F27.011
-rw-r--r-- 1 hazwong frank        0 Dec  6 00:44 /scratch/hazwong/820845/2LBJ_1/usrc/2LBJ_1_fmo_input.F27.012
-rw-r--r-- 1 hazwong frank        0 Dec  6 00:44 /scratch/hazwong/820845/2LBJ_1/usrc/2LBJ_1_fmo_input.F27.013
-rw-r--r-- 1 hazwong frank        0 Dec  6 00:44 /scratch/hazwong/820845/2LBJ_1/usrc/2LBJ_1_fmo_input.F27.014
-rw-r--r-- 1 hazwong frank        0 Dec  6 00:44 /scratch/hazwong/820845/2LBJ_1/usrc/2LBJ_1_fmo_input.F27.015
-rw-r--r-- 1 hazwong frank 22200320 Dec  6 04:37 /scratch/hazwong/820845/2LBJ_1/usrc/2LBJ_1_fmo_input.F40.000
-rw-r--r-- 1 hazwong frank 22200320 Dec  6 04:37 /scratch/hazwong/820845/2LBJ_1/usrc/2LBJ_1_fmo_input.F40.001
-rw-r--r-- 1 hazwong frank 22200320 Dec  6 04:37 /scratch/hazwong/820845/2LBJ_1/usrc/2LBJ_1_fmo_input.F40.002
-rw-r--r-- 1 hazwong frank 22200320 Dec  6 04:37 /scratch/hazwong/820845/2LBJ_1/usrc/2LBJ_1_fmo_input.F40.003
-rw-r--r-- 1 hazwong frank 22200320 Dec  6 04:37 /scratch/hazwong/820845/2LBJ_1/usrc/2LBJ_1_fmo_input.F40.004
-rw-r--r-- 1 hazwong frank 22200320 Dec  6 04:37 /scratch/hazwong/820845/2LBJ_1/usrc/2LBJ_1_fmo_input.F40.005
-rw-r--r-- 1 hazwong frank 22200320 Dec  6 04:37 /scratch/hazwong/820845/2LBJ_1/usrc/2LBJ_1_fmo_input.F40.006
-rw-r--r-- 1 hazwong frank 22200320 Dec  6 04:37 /scratch/hazwong/820845/2LBJ_1/usrc/2LBJ_1_fmo_input.F40.007
-rw-r--r-- 1 hazwong frank 22200320 Dec  6 04:37 /scratch/hazwong/820845/2LBJ_1/usrc/2LBJ_1_fmo_input.F40.008
-rw-r--r-- 1 hazwong frank 22200320 Dec  6 04:37 /scratch/hazwong/820845/2LBJ_1/usrc/2LBJ_1_fmo_input.F40.009
-rw-r--r-- 1 hazwong frank 22200320 Dec  6 04:37 /scratch/hazwong/820845/2LBJ_1/usrc/2LBJ_1_fmo_input.F40.010
-rw-r--r-- 1 hazwong frank 22200320 Dec  6 04:37 /scratch/hazwong/820845/2LBJ_1/usrc/2LBJ_1_fmo_input.F40.011
-rw-r--r-- 1 hazwong frank 22200320 Dec  6 04:37 /scratch/hazwong/820845/2LBJ_1/usrc/2LBJ_1_fmo_input.F40.012
-rw-r--r-- 1 hazwong frank 22200320 Dec  6 04:37 /scratch/hazwong/820845/2LBJ_1/usrc/2LBJ_1_fmo_input.F40.013
-rw-r--r-- 1 hazwong frank 22200320 Dec  6 04:37 /scratch/hazwong/820845/2LBJ_1/usrc/2LBJ_1_fmo_input.F40.014
-rw-r--r-- 1 hazwong frank 22200320 Dec  6 04:37 /scratch/hazwong/820845/2LBJ_1/usrc/2LBJ_1_fmo_input.F40.015
ls: No match.
ls: No match.
ls: No match.
Fri Dec  6 11:10:15 EST 2019
0.189u 0.089s 10:26:08.95 0.0%	0+0k 1640+136io 27pf+0w
