----- GAMESS execution script 'rungms' -----
This job is running on host gollum089.lsa.umich.edu
under operating system Linux at Thu Mar 21 23:19:41 EDT 2019
Available scratch disk space (Kbyte units) at beginning of the job is
Filesystem             1K-blocks        Used   Available Use% Mounted on
frank-00:/home/hazwong
                     58597580800 30531761152 28065819648  53% /home/hazwong
GAMESS temporary binary files will be written to /home/hazwong/test/git_repository/RNAFMO/testing/1XHP/gamess/usrc_58
GAMESS supplementary output files will be written to /home/hazwong/test/git_repository/RNAFMO/testing/1XHP/gamess/src_58/
Copying input file 1XHP_nlb_decoy_58.inp to your run's scratch directory...
This is a GDDI run, keeping various output files on local disks
 
Assuming a single but multicore node.
 

 Distributed Data Interface kickoff program.
 Initiating 8 compute processes on 1 nodes to run the following command:
 /export/apps/gamess/src/build//gamess.R3.x 1XHP_nlb_decoy_58 

          ******************************************************
          *         GAMESS VERSION = 30 SEP 2018 (R3)         *
          *             FROM IOWA STATE UNIVERSITY             *
          * M.W.SCHMIDT, K.K.BALDRIDGE, J.A.BOATZ, S.T.ELBERT, *
          *   M.S.GORDON, J.H.JENSEN, S.KOSEKI, N.MATSUNAGA,   *
          *          K.A.NGUYEN, S.J.SU, T.L.WINDUS,           *
          *       TOGETHER WITH M.DUPUIS, J.A.MONTGOMERY       *
          *         J.COMPUT.CHEM.  14, 1347-1363(1993)        *
          **************** 64 BIT LINUX VERSION ****************

  SINCE 1993, STUDENTS AND POSTDOCS WORKING AT IOWA STATE UNIVERSITY
  AND ALSO IN THEIR VARIOUS JOBS AFTER LEAVING ISU HAVE MADE IMPORTANT
  CONTRIBUTIONS TO THE CODE:
     IVANA ADAMOVIC, CHRISTINE AIKENS, YURI ALEXEEV, POOJA ARORA,
     ANDREY ASADCHEV, ROB BELL, PRADIPTA BANDYOPADHYAY, JONATHAN BENTZ,
     BRETT BODE, KURT BRORSEN, CALEB CARLIN, GALINA CHABAN, WEI CHEN,
     CHEOL HO CHOI, PAUL DAY, ALBERT DEFUSCO, NUWAN DESILVA, TIM DUDLEY,
     DMITRI FEDOROV, ALEX FINDLATER, GRAHAM FLETCHER, MARK FREITAG,
     KURT GLAESEMANN, ANASTASIA GUNINA,
     DAN KEMP, GRANT MERRILL, NORIYUKI MINEZAWA, JONATHAN MULLIN,
     TAKESHI NAGATA, SEAN NEDD, HEATHER NETZLOFF, BOSILJKA NJEGIC, RYAN OLSON,
     MIKE PAK, BUU PHAM,
     SPENCER PRUITT, LUKE ROSKOP, JIM SHOEMAKER, LYUDMILA SLIPCHENKO,
     TONY SMITH, SAROM SOK LEANG, JIE SONG, TETSUYA TAKETSUGU, SIMON WEBB,
     PENG XU, SOOHAENG YOO, FEDERICO ZAHARIEV

  ADDITIONAL CODE HAS BEEN PROVIDED BY COLLABORATORS IN OTHER GROUPS:
     IOWA STATE UNIVERSITY:
          JOE IVANIC, AARON WEST, LAIMUTIS BYTAUTAS, KLAUS RUEDENBERG
     UNIVERSITY OF TOKYO: KIMIHIKO HIRAO, TAKAHITO NAKAJIMA,
          TAKAO TSUNEDA, MUNEAKI KAMIYA, SUSUMU YANAGISAWA,
          KIYOSHI YAGI, MAHITO CHIBA, SEIKEN TOKURA, NAOAKI KAWAKAMI
     UNIVERSITY OF AARHUS: FRANK JENSEN
     UNIVERSITY OF IOWA: VISVALDAS KAIRYS, HUI LI
     NATIONAL INST. OF STANDARDS AND TECHNOLOGY: WALT STEVENS, DAVID GARMER
     UNIVERSITY OF PISA: BENEDETTA MENNUCCI, JACOPO TOMASI
     UNIVERSITY OF MEMPHIS: HENRY KURTZ, PRAKASHAN KORAMBATH
     UNIVERSITY OF ALBERTA: TOBY ZENG, MARIUSZ KLOBUKOWSKI
     UNIVERSITY OF NEW ENGLAND: MARK SPACKMAN
     MIE UNIVERSITY: HIROAKI UMEDA
     NAT. INST. OF ADVANCED INDUSTRIAL SCIENCE AND TECHNOLOGY: KAZUO KITAURA
     MICHIGAN STATE UNIVERSITY:
          KAROL KOWALSKI, MARTA WLOCH, JEFFREY GOUR, JESSE LUTZ,
          WEI LI, JUN SHEN, J. EMILIANO DEUSTUA, PIOTR PIECUCH
     UNIVERSITY OF MINNESOTA:
          YINAN SHU
     UNIVERSITY OF SILESIA: MONIKA MUSIAL, STANISLAW KUCHARSKI
     FACULTES UNIVERSITAIRES NOTRE-DAME DE LA PAIX:
          OLIVIER QUINET, BENOIT CHAMPAGNE
     UNIVERSITY OF CALIFORNIA - SANTA BARBARA: BERNARD KIRTMAN
     INSTITUTE FOR MOLECULAR SCIENCE:
          KAZUYA ISHIMURA, MICHIO KATOUDA, AND SHIGERU NAGASE
     UNIVERSITY OF NOTRE DAME: ANNA POMOGAEVA, DAN CHIPMAN
     KYUSHU UNIVERSITY:
          HARUYUKI NAKANO,
          FENG LONG GU, JACEK KORCHOWIEC, MARCIN MAKOWSKI, AND YURIKO AOKI,
          HIROTOSHI MORI AND EISAKU MIYOSHI
     PENNSYLVANIA STATE UNIVERSITY:
          TZVETELIN IORDANOV, CHET SWALINA, JONATHAN SKONE,
          SHARON HAMMES-SCHIFFER
     WASEDA UNIVERSITY:
          MASATO KOBAYASHI, TOMOKO AKAMA, TSUGUKI TOUMA,
          TAKESHI YOSHIKAWA, YASUHIRO IKABATA, JUNJI SEINO,
          YUYA NAKAJIMA, HIROMI NAKAI
     NANJING UNIVERSITY: SHUHUA LI
     UNIVERSITY OF NEBRASKA:
          PEIFENG SU, DEJUN SI, NANDUN THELLAMUREGE, YALI WANG, HUI LI
     UNIVERSITY OF ZURICH: ROBERTO PEVERATI, KIM BALDRIDGE
     N. COPERNICUS UNIVERSITY AND JACKSON STATE UNIVERSITY:
          MARIA BARYSZ
     UNIVERSITY OF COPENHAGEN: Jimmy Kromann, CASPER STEINMANN
     TOKYO INSTITUTE OF TECHNOLOGY: HIROYA NAKATA
     NAGOYA UNIVERSITY: YOSHIO NISHIMOTO, STEPHAN IRLE
     MOSCOW STATE UNIVERSITY: VLADIMIR MIRONOV


 PARALLEL VERSION RUNNING ON        8 PROCESSORS IN        1 NODES.

 EXECUTION OF GAMESS BEGUN Thu Mar 21 23:19:42 2019

            ECHO OF THE FIRST FEW INPUT CARDS -
 INPUT CARD>!*** FMO 5.2 (Gamess) INPUT generated by Facio 21.1.1.32 ***                    
 INPUT CARD> $CONTRL RUNTYP=OPTFMO NPRINT=-5 ISPHER=-1 MAXIT=50 $END                        
 INPUT CARD> $SYSTEM MWORDS=29 $END                                                         
 INPUT CARD> $GDDI NGROUP=1 $END                                                            
 INPUT CARD> $INTGRL NINTIC=-9000000 $END                                                   
 INPUT CARD> $SCF DIRSCF=.FALSE. NPUNCH=0 $END                                              
 INPUT CARD>!*** NumCPU : 2  MemPerNode : 512MB                                             
 INPUT CARD> $FMOPRP                                                                        
 INPUT CARD>    NAODIR=210                                                                  
 INPUT CARD>    NGRFMO(1)=1, 1, 0, 0, 0,   0, 0, 0, 0, 0                                    
 INPUT CARD>    NPRINT=9                                                                    
 INPUT CARD> $END                                                                           
 INPUT CARD> $FMO                                                                           
 INPUT CARD>      SCFTYP(1)=RHF                                                             
 INPUT CARD>      MODGRD=10                                                                 
 INPUT CARD>      MODMUL=0                                                                  
 INPUT CARD>      MAXCAO=5                                                                  
 INPUT CARD>      MAXBND=34                                                                 
 INPUT CARD>      NLAYER=1                                                                  
 INPUT CARD>      NFRAG=32                                                                  
 INPUT CARD>      ICHARG(1)=-1, -1, -1, -1, -1, -1, -1, -1, -1, -1,                         
 INPUT CARD>-1, -1, -1, -1, -1, -1, -1, -1, -1, -1,                                         
 INPUT CARD>-1, -1, -1, -1, -1, -1, -1, -1, -1, -1,                                         
 INPUT CARD>-1, 0                                                                           
 INPUT CARD>      FRGNAM(1)=Frag1, Frag2, Frag3, Frag4, Frag5, Frag6, Frag7, Frag8, Frag9, F
 INPUT CARD>      indat(1)=0                                                                
 INPUT CARD>               1   -36   0                                                      
 INPUT CARD>               37   -69   0                                                     
 INPUT CARD>               70   -103   0                                                    
 INPUT CARD>               104   -134   0                                                   
 INPUT CARD>               135   -167   0                                                   
 INPUT CARD>               168   -201   0                                                   
 INPUT CARD>               202   -231   0                                                   
 INPUT CARD>               232   -261   0                                                   
 INPUT CARD>               262   -292   0                                                   
 INPUT CARD>               293   -323   0                                                   
 INPUT CARD>               324   -354   0                                                   
 INPUT CARD>               355   -385   0                                                   
 INPUT CARD>               386   -415   0                                                   
 INPUT CARD>               416   -449   0                                                   
 INPUT CARD>               450   -480   0                                                   
 INPUT CARD>               481   -513   0                                                   
 INPUT CARD>               514   -543   0                                                   
 INPUT CARD>               544   -576   0                                                   
 INPUT CARD>               577   -609   0                                                   
 INPUT CARD>               610   -643   0                                                   
 INPUT CARD>               644   -677   0                                                   
 INPUT CARD>               678   -710   0                                                   
 INPUT CARD>               711   -740   0                                                   
 INPUT CARD>               741   -774   0                                                   


 -------------------------------------------------------------
 GROUP DDI, PROGRAMMED BY: RYAN M. OLSON AND DMITRI G. FEDOROV
        FEDOROV ET AL., J. COMPUT. CHEM., 25 (2004) 872.
 -------------------------------------------------------------

 -------------------------------------------------------
 GDDI: INITIALIZATION COMPLETED FOR GROUP     1 OF     1
 WITH     8 PROCESSES BALTYP=DLB   global rank=        0
 -------------------------------------------------------

   29000000 WORDS OF MEMORY AVAILABLE


     RUN TITLE
     ---------
  FMO calculation : XXNAMEXX                                                     

 THE POINT GROUP OF THE MOLECULE IS C1      
 THE ORDER OF THE PRINCIPAL AXIS IS     0

 ATOM   ATOMIC CHARGE
 C.1-1       6.0
 O.1-1       8.0
 N.1-1       7.0
 H.1-1       1.0
 P.1-1      15.0

     ATOMIC BASIS SET LIBRARY
     ----------------
 THE CONTRACTED PRIMITIVE FUNCTIONS HAVE BEEN UNNORMALIZED
 THE CONTRACTED BASIS FUNCTIONS ARE NOW NORMALIZED TO UNITY

  SHELL TYPE  PRIMITIVE        EXPONENT          CONTRACTION COEFFICIENT(S)

 C.1-1     

      1   S       1           172.2560000    0.061766907377
      1   S       2            25.9109000    0.358794042852
      1   S       3             5.5333500    0.700713083689

      2   L       4             3.6649800   -0.395895162119    0.236459946619
      2   L       5             0.7705450    1.215834355681    0.860618805716

      3   L       6             0.1958570    1.000000000000    1.000000000000

 O.1-1     

      4   S       7           322.0370000    0.059239393389
      4   S       8            48.4308000    0.351499960776
      4   S       9            10.4206000    0.707657921031

      5   L      10             7.4029400   -0.404453583190    0.244586106967
      5   L      11             1.5762000    1.221561761397    0.853955373466

      6   L      12             0.3736840    1.000000000000    1.000000000000

 N.1-1     

      7   S      13           242.7660000    0.059865700508
      7   S      14            36.4851000    0.352955002994
      7   S      15             7.8144900    0.706513005993

      8   L      16             5.4252200   -0.413300077430    0.237972016222
      8   L      17             1.1491500    1.224417266851    0.858953058551

      9   L      18             0.2832050    1.000000000000    1.000000000000

 H.1-1     

     10   S      19             5.4471780    0.156284978695
     10   S      20             0.8245472    0.904690876670

     11   S      21             0.1831916    1.000000000000

 P.1-1     

     12   S      22          1054.9000000    0.065540713549
     12   S      23           159.1950000    0.384036079392
     12   S      24            34.5304000    0.674541139449

     13   L      25            44.2866000   -0.102130053458    0.110851002536
     13   L      26            10.1019000    0.081592242708    0.456495010442
     13   L      27             2.7399700    0.969788507613    0.606936013883

     14   L      28             1.2186500   -0.371496021877    0.091582310217
     14   L      29             0.3955460    1.270993496131    0.934924104303

     15   L      30             0.1228110    1.000000000000    1.000000000000

 TOTAL NUMBER OF BASIS SET SHELLS             =   15
 NUMBER OF CARTESIAN GAUSSIAN BASIS FUNCTIONS =   42

     $CONTRL OPTIONS
     ---------------
 SCFTYP=RHF          RUNTYP=OPTFMO       EXETYP=RUN     
 MPLEVL=       0     CITYP =NONE         CCTYP =NONE         VBTYP =NONE    
 DFTTYP=NONE         TDDFT =NONE    
 MULT  =       1     ICHARG=       0     NZVAR =       0     COORD =UNIQUE  
 PP    =NONE         RELWFN=NONE         LOCAL =NONE         NUMGRD=       F
 ISPHER=      -1     NOSYM =       0     MAXIT =      50     UNITS =ANGS    
 PLTORB=       F     MOLPLT=       F     AIMPAC=       F     FRIEND=        
 NPRINT=      -5     IREST =       0     GEOM  =INPUT   
 NORMF =       0     NORMP =       0     ITOL  =      24     ICUT  =      12
 INTTYP=BEST         GRDTYP=BEST         QMTTOL= 1.0E-06

     $SYSTEM OPTIONS
     ---------------
  REPLICATED MEMORY=    29000000 WORDS (ON EVERY NODE).
 DISTRIBUTED MEMDDI=           0 MILLION WORDS IN AGGREGATE,
 MEMDDI DISTRIBUTED OVER   8 PROCESSORS IS           0 WORDS/PROCESSOR.
 TOTAL MEMORY REQUESTED ON EACH PROCESSOR=    29000000 WORDS.
 TIMLIM=      525600.00 MINUTES, OR     365.0 DAYS.
 PARALL= T  BALTYP=  DLB     KDIAG=    0  COREFL= F
 MXSEQ2=     300 MXSEQ3=     150  mem10=         0

          ----------------
          PROPERTIES INPUT
          ----------------

     MOMENTS            FIELD           POTENTIAL          DENSITY
 IEMOM =       1   IEFLD =       0   IEPOT =       0   IEDEN =       0
 WHERE =COMASS     WHERE =NUCLEI     WHERE =NUCLEI     WHERE =NUCLEI  
 OUTPUT=BOTH       OUTPUT=BOTH       OUTPUT=NONE       OUTPUT=BOTH    
 IEMINT=       0   IEFINT=       0                     IEDINT=       0
                                                       MORB  =       0
          EXTRAPOLATION IN EFFECT
          SOSCF IN EFFECT
 ORBITAL PRINTING OPTION: NPREO=     1 32767     2     1

     -------------------------------
     INTEGRAL TRANSFORMATION OPTIONS
     -------------------------------
     NWORD  =            0
     CUTOFF = 1.0E-10     MPTRAN =       0
     DIRTRF =       F     AOINTS =DUP     

          ----------------------
          INTEGRAL INPUT OPTIONS
          ----------------------
 NOPK  =       1 NORDER=       0 SCHWRZ=       T

 ..... DONE SETTING UP THE RUN .....
 CPU     0: STEP CPU TIME=     0.06 TOTAL CPU TIME=          0.1 (      0.0 MIN)
 TOTAL WALL CLOCK TIME=          0.3 SECONDS, CPU UTILIZATION IS    22.22%

 ALLOCATED      9030000 WORDS FOR IN CORE 2E INTEGRALS.


 """""""""""""""""""""""""""""""""""""""""""""""""""""""""""""""""""""""""""
 FMO geometry optimisation driver:

 Method=HSSUPD   UPDATE=BFGS       Hess=GUESS    LINSER=   0   NFRZ=     0
   STEP=  0.7500 STPMIN=  0.0000 STPMAX=  1.0000 STPFAC=  1.0000

 Using     28676 words of memory.
 """""""""""""""""""""""""""""""""""""""""""""""""""""""""""""""""""""""""""

 Using   590016 words of incore integral buffer to store inverse Hessian.

 CPU     0: STEP CPU TIME=     0.01 TOTAL CPU TIME=          0.1 (      0.0 MIN)
 TOTAL WALL CLOCK TIME=          0.3 SECONDS, CPU UTILIZATION IS    25.00%

                    ----------------------
                    AO INTEGRAL TECHNOLOGY
                    ----------------------
     S,P,L SHELL ROTATED AXIS INTEGRALS, REPROGRAMMED BY
        KAZUYA ISHIMURA (IMS) AND JOSE SIERRA (SYNSTAR).
     S,P,D,L SHELL ROTATED AXIS INTEGRALS PROGRAMMED BY
        KAZUYA ISHIMURA (INSTITUTE FOR MOLECULAR SCIENCE).
     S,P,D,F,G SHELL TO TOTAL QUARTET ANGULAR MOMENTUM SUM 5,
        ERIC PROGRAM BY GRAHAM FLETCHER (ELORET AND NASA ADVANCED
        SUPERCOMPUTING DIVISION, AMES RESEARCH CENTER).
     S,P,D,F,G,L SHELL GENERAL RYS QUADRATURE PROGRAMMED BY
        MICHEL DUPUIS (PACIFIC NORTHWEST NATIONAL LABORATORY).
 CPU     0: STEP CPU TIME=     0.03 TOTAL CPU TIME=          0.1 (      0.0 MIN)
 TOTAL WALL CLOCK TIME=          0.4 SECONDS, CPU UTILIZATION IS    28.57%
 CPU     0: STEP CPU TIME=     0.00 TOTAL CPU TIME=          0.1 (      0.0 MIN)
 TOTAL WALL CLOCK TIME=          0.4 SECONDS, CPU UTILIZATION IS    28.57%
 Initialising fragments
 CPU     0: STEP CPU TIME=     0.01 TOTAL CPU TIME=          0.1 (      0.0 MIN)
 TOTAL WALL CLOCK TIME=          0.4 SECONDS, CPU UTILIZATION IS    31.43%
 CPU     0: STEP CPU TIME=     0.00 TOTAL CPU TIME=          0.1 (      0.0 MIN)
 TOTAL WALL CLOCK TIME=          0.4 SECONDS, CPU UTILIZATION IS    31.43%

 -----------------------------------------------------------------------
                  The Fragment Molecular Orbital (FMO) method.
                       The program is developed at the
                     Nanoscience Research Institute (NRI)
     (formerly, Research Institute for Computational Sciences, RICS)
 National Institute of Advanced Industrial Science and Technology (AIST)
     AIST Tsukuba Central 2, Umezono 1-1-1, Tsukuba, 305-8568, Japan.

                         Version 5.3
                    coded by D. G. Fedorov and K. Kitaura,
 with contributions from N. Asada, K.R. Brorsen, M. Chiba, C. Choi, N. Minezawa,
 T. Nagata, H. Nakata, Y. Nishimoto, S.R. Pruitt, C. Steinmann, and F. Zahariev.
       All publications using the FMO method in GAMESS should reference:
          D. G. Fedorov, K. Kitaura, J. Chem. Phys. 120, 6832 (2004).
 -----------------------------------------------------------------------

 Used memory (words):      1729362
 Number of fragments:     32
 Number of layers:         1
 N-body FMO method:        2
 Number of atoms:       1024
 Total charge:           -31
 Total spin multiplicity:  1
 Number of basis sets:     1
 Number of LMO types:      2
 Number of boundaries:    31
 MonomerSCF convergence:   0.1000E-06
 Max monomerSCF iter:     30
 MonomerSCF criterion:     internal
 Max AOs per n-mer:      253      495
 Projection operator constant:  0.10E+07
 Layer electron correlation information
     nbody=  2
    SCFTYP=RHF     
    MPLEVL=  0
    DFTTYP=NONE    
     CITYP=NONE    
     CCTYP=NONE    
     TDDFT=NONE    
 FMO method: FMO2-RHF

 Bond fragmentation scheme: HOP

 FMO approximations.
    Using point charge approximation for the 2e ESP with the VdW factor   2.00
    Using ES-dimer approximation with the VdW factor   2.00
    The uniform distances will be used in ESPs.
    Van der Waals radii in Angstrom are:
       R(H  )=  1.2000
       R(O  )=  1.4000
       R(C  )=  1.5000
       R(N  )=  1.5000
       R(P  )=  1.8000
    FMO gradient: add ESP derivative terms.
    FMO gradient: add Mulliken charge derivative.
    FMO gradient: add HOP derivatives.

 FMO initial guess options.
    Using monomer density to form dimer guess.

 FMO extensions.

 FMO automation options.

 FMO SCF converger options.
    SCF convergers:
     65     65     65     65     65     65     65     65     65     65
    Fragment densities will be exchanged.

 FMO parallelisation options.
    Smart parallel load balancing: large jobs first.
    ESPs will be shell parallelised.
    Broadcast all fragments at once.
    Do the fragment initialisation in the reverse order.
    Layer 1, monomer(SCF,MP2,MCSCF) groups are:    1    0    0
    Layer 1,   dimer(SCF,ESD,MCSCF) groups are:    1    0    0

 FMO properties and print-out level.
    Interfragment CT method:    4
       Compact print-out level.
    Atomic charges will be printed.

 Array dimensions maxbnd,maxknd,maxcbs,maxcao,maxbbd are:
                      34     10     13      5     13

 --------------------------------------------------




 Starting layer 1 nbody=2
 SCFTYP=RHF     MPLEVL=0 DFTTYP=NONE    CITYP=NONE    CCTYP=NONE    TDDFT=NONE    


 CPU     0: STEP CPU TIME=     0.01 TOTAL CPU TIME=          0.1 (      0.0 MIN)
 TOTAL WALL CLOCK TIME=          0.5 SECONDS, CPU UTILIZATION IS    22.64%

 Running initial guess for monomer      32


          -------------
          GUESS OPTIONS
          -------------
          GUESS =HUCKEL            NORB  =       0          NORDER=       0
          MIX   =       F          PRTMO =       F          PUNMO =       F
          TOLZ  = 1.0E-08          TOLE  = 1.0E-05
          SYMDEN=       F          PURIFY=       F

 INITIAL GUESS ORBITALS GENERATED BY HUCKEL   ROUTINE.
 HUCKEL GUESS REQUIRES    259752 WORDS.

 SYMMETRIES FOR INITIAL GUESS ORBITALS FOLLOW.   BOTH SET(S).
    59 ORBITALS ARE OCCUPIED (   16 CORE ORBITALS).
    17=A       18=A       19=A       20=A       21=A       22=A       23=A   
    24=A       25=A       26=A       27=A       28=A       29=A       30=A   
    31=A       32=A       33=A       34=A       35=A       36=A       37=A   
    38=A       39=A       40=A       41=A       42=A       43=A       44=A   
    45=A       46=A       47=A       48=A       49=A       50=A       51=A   
    52=A       53=A       54=A       55=A       56=A       57=A       58=A   
    59=A       60=A       61=A       62=A       63=A       64=A       65=A   
    66=A       67=A       68=A       69=A   
 ...... END OF INITIAL ORBITAL SELECTION ......
 CPU     0: STEP CPU TIME=     0.03 TOTAL CPU TIME=          0.1 (      0.0 MIN)
 TOTAL WALL CLOCK TIME=          0.6 SECONDS, CPU UTILIZATION IS    25.86%

 Running initial guess for monomer      31


          -------------
          GUESS OPTIONS
          -------------
          GUESS =HUCKEL            NORB  =       0          NORDER=       0
          MIX   =       F          PRTMO =       F          PUNMO =       F
          TOLZ  = 1.0E-08          TOLE  = 1.0E-05
          SYMDEN=       F          PURIFY=       F

 INITIAL GUESS ORBITALS GENERATED BY HUCKEL   ROUTINE.
 HUCKEL GUESS REQUIRES    405894 WORDS.

 SYMMETRIES FOR INITIAL GUESS ORBITALS FOLLOW.   BOTH SET(S).
    79 ORBITALS ARE OCCUPIED (   24 CORE ORBITALS).
    25=A       26=A       27=A       28=A       29=A       30=A       31=A   
    32=A       33=A       34=A       35=A       36=A       37=A       38=A   
    39=A       40=A       41=A       42=A       43=A       44=A       45=A   
    46=A       47=A       48=A       49=A       50=A       51=A       52=A   
    53=A       54=A       55=A       56=A       57=A       58=A       59=A   
    60=A       61=A       62=A       63=A       64=A       65=A       66=A   
    67=A       68=A       69=A       70=A       71=A       72=A       73=A   
    74=A       75=A       76=A       77=A       78=A       79=A       80=A   
    81=A       82=A       83=A       84=A       85=A       86=A       87=A   
    88=A       89=A   
 ...... END OF INITIAL ORBITAL SELECTION ......
 CPU     0: STEP CPU TIME=     0.06 TOTAL CPU TIME=          0.2 (      0.0 MIN)
 TOTAL WALL CLOCK TIME=          0.7 SECONDS, CPU UTILIZATION IS    30.88%

 Running initial guess for monomer      30


          -------------
          GUESS OPTIONS
          -------------
          GUESS =HUCKEL            NORB  =       0          NORDER=       0
          MIX   =       F          PRTMO =       F          PUNMO =       F
          TOLZ  = 1.0E-08          TOLE  = 1.0E-05
          SYMDEN=       F          PURIFY=       F

 INITIAL GUESS ORBITALS GENERATED BY HUCKEL   ROUTINE.
 HUCKEL GUESS REQUIRES    405894 WORDS.

 SYMMETRIES FOR INITIAL GUESS ORBITALS FOLLOW.   BOTH SET(S).
    79 ORBITALS ARE OCCUPIED (   24 CORE ORBITALS).
    25=A       26=A       27=A       28=A       29=A       30=A       31=A   
    32=A       33=A       34=A       35=A       36=A       37=A       38=A   
    39=A       40=A       41=A       42=A       43=A       44=A       45=A   
    46=A       47=A       48=A       49=A       50=A       51=A       52=A   
    53=A       54=A       55=A       56=A       57=A       58=A       59=A   
    60=A       61=A       62=A       63=A       64=A       65=A       66=A   
    67=A       68=A       69=A       70=A       71=A       72=A       73=A   
    74=A       75=A       76=A       77=A       78=A       79=A       80=A   
    81=A       82=A       83=A       84=A       85=A       86=A       87=A   
    88=A       89=A   
 ...... END OF INITIAL ORBITAL SELECTION ......
 CPU     0: STEP CPU TIME=     0.07 TOTAL CPU TIME=          0.3 (      0.0 MIN)
 TOTAL WALL CLOCK TIME=          0.8 SECONDS, CPU UTILIZATION IS    35.00%

 Running initial guess for monomer      29


          -------------
          GUESS OPTIONS
          -------------
          GUESS =HUCKEL            NORB  =       0          NORDER=       0
          MIX   =       F          PRTMO =       F          PUNMO =       F
          TOLZ  = 1.0E-08          TOLE  = 1.0E-05
          SYMDEN=       F          PURIFY=       F

 INITIAL GUESS ORBITALS GENERATED BY HUCKEL   ROUTINE.
 HUCKEL GUESS REQUIRES    520404 WORDS.

 SYMMETRIES FOR INITIAL GUESS ORBITALS FOLLOW.   BOTH SET(S).
    89 ORBITALS ARE OCCUPIED (   27 CORE ORBITALS).
    28=A       29=A       30=A       31=A       32=A       33=A       34=A   
    35=A       36=A       37=A       38=A       39=A       40=A       41=A   
    42=A       43=A       44=A       45=A       46=A       47=A       48=A   
    49=A       50=A       51=A       52=A       53=A       54=A       55=A   
    56=A       57=A       58=A       59=A       60=A       61=A       62=A   
    63=A       64=A       65=A       66=A       67=A       68=A       69=A   
    70=A       71=A       72=A       73=A       74=A       75=A       76=A   
    77=A       78=A       79=A       80=A       81=A       82=A       83=A   
    84=A       85=A       86=A       87=A       88=A       89=A       90=A   
    91=A       92=A       93=A       94=A       95=A       96=A       97=A   
    98=A       99=A   
 ...... END OF INITIAL ORBITAL SELECTION ......
 CPU     0: STEP CPU TIME=     0.07 TOTAL CPU TIME=          0.3 (      0.0 MIN)
 TOTAL WALL CLOCK TIME=          0.9 SECONDS, CPU UTILIZATION IS    37.63%

 Running initial guess for monomer      28


          -------------
          GUESS OPTIONS
          -------------
          GUESS =HUCKEL            NORB  =       0          NORDER=       0
          MIX   =       F          PRTMO =       F          PUNMO =       F
          TOLZ  = 1.0E-08          TOLE  = 1.0E-05
          SYMDEN=       F          PURIFY=       F

 INITIAL GUESS ORBITALS GENERATED BY HUCKEL   ROUTINE.
 HUCKEL GUESS REQUIRES    413697 WORDS.

 SYMMETRIES FOR INITIAL GUESS ORBITALS FOLLOW.   BOTH SET(S).
    79 ORBITALS ARE OCCUPIED (   24 CORE ORBITALS).
    25=A       26=A       27=A       28=A       29=A       30=A       31=A   
    32=A       33=A       34=A       35=A       36=A       37=A       38=A   
    39=A       40=A       41=A       42=A       43=A       44=A       45=A   
    46=A       47=A       48=A       49=A       50=A       51=A       52=A   
    53=A       54=A       55=A       56=A       57=A       58=A       59=A   
    60=A       61=A       62=A       63=A       64=A       65=A       66=A   
    67=A       68=A       69=A       70=A       71=A       72=A       73=A   
    74=A       75=A       76=A       77=A       78=A       79=A       80=A   
    81=A       82=A       83=A       84=A       85=A       86=A       87=A   
    88=A       89=A   
 ...... END OF INITIAL ORBITAL SELECTION ......
 CPU     0: STEP CPU TIME=     0.05 TOTAL CPU TIME=          0.4 (      0.0 MIN)
 TOTAL WALL CLOCK TIME=          1.1 SECONDS, CPU UTILIZATION IS    37.74%

 Running initial guess for monomer      27


          -------------
          GUESS OPTIONS
          -------------
          GUESS =HUCKEL            NORB  =       0          NORDER=       0
          MIX   =       F          PRTMO =       F          PUNMO =       F
          TOLZ  = 1.0E-08          TOLE  = 1.0E-05
          SYMDEN=       F          PURIFY=       F

 INITIAL GUESS ORBITALS GENERATED BY HUCKEL   ROUTINE.
 HUCKEL GUESS REQUIRES    413697 WORDS.

 SYMMETRIES FOR INITIAL GUESS ORBITALS FOLLOW.   BOTH SET(S).
    79 ORBITALS ARE OCCUPIED (   24 CORE ORBITALS).
    25=A       26=A       27=A       28=A       29=A       30=A       31=A   
    32=A       33=A       34=A       35=A       36=A       37=A       38=A   
    39=A       40=A       41=A       42=A       43=A       44=A       45=A   
    46=A       47=A       48=A       49=A       50=A       51=A       52=A   
    53=A       54=A       55=A       56=A       57=A       58=A       59=A   
    60=A       61=A       62=A       63=A       64=A       65=A       66=A   
    67=A       68=A       69=A       70=A       71=A       72=A       73=A   
    74=A       75=A       76=A       77=A       78=A       79=A       80=A   
    81=A       82=A       83=A       84=A       85=A       86=A       87=A   
    88=A       89=A   
 ...... END OF INITIAL ORBITAL SELECTION ......
 CPU     0: STEP CPU TIME=     0.06 TOTAL CPU TIME=          0.5 (      0.0 MIN)
 TOTAL WALL CLOCK TIME=          1.2 SECONDS, CPU UTILIZATION IS    39.32%

 Running initial guess for monomer      26


          -------------
          GUESS OPTIONS
          -------------
          GUESS =HUCKEL            NORB  =       0          NORDER=       0
          MIX   =       F          PRTMO =       F          PUNMO =       F
          TOLZ  = 1.0E-08          TOLE  = 1.0E-05
          SYMDEN=       F          PURIFY=       F

 INITIAL GUESS ORBITALS GENERATED BY HUCKEL   ROUTINE.
 HUCKEL GUESS REQUIRES    483461 WORDS.

 SYMMETRIES FOR INITIAL GUESS ORBITALS FOLLOW.   BOTH SET(S).
    85 ORBITALS ARE OCCUPIED (   26 CORE ORBITALS).
    27=A       28=A       29=A       30=A       31=A       32=A       33=A   
    34=A       35=A       36=A       37=A       38=A       39=A       40=A   
    41=A       42=A       43=A       44=A       45=A       46=A       47=A   
    48=A       49=A       50=A       51=A       52=A       53=A       54=A   
    55=A       56=A       57=A       58=A       59=A       60=A       61=A   
    62=A       63=A       64=A       65=A       66=A       67=A       68=A   
    69=A       70=A       71=A       72=A       73=A       74=A       75=A   
    76=A       77=A       78=A       79=A       80=A       81=A       82=A   
    83=A       84=A       85=A       86=A       87=A       88=A       89=A   
    90=A       91=A       92=A       93=A       94=A       95=A   
 ...... END OF INITIAL ORBITAL SELECTION ......
 CPU     0: STEP CPU TIME=     0.07 TOTAL CPU TIME=          0.5 (      0.0 MIN)
 TOTAL WALL CLOCK TIME=          1.3 SECONDS, CPU UTILIZATION IS    40.77%

 Running initial guess for monomer      25


          -------------
          GUESS OPTIONS
          -------------
          GUESS =HUCKEL            NORB  =       0          NORDER=       0
          MIX   =       F          PRTMO =       F          PUNMO =       F
          TOLZ  = 1.0E-08          TOLE  = 1.0E-05
          SYMDEN=       F          PURIFY=       F

 INITIAL GUESS ORBITALS GENERATED BY HUCKEL   ROUTINE.
 HUCKEL GUESS REQUIRES    483461 WORDS.

 SYMMETRIES FOR INITIAL GUESS ORBITALS FOLLOW.   BOTH SET(S).
    85 ORBITALS ARE OCCUPIED (   26 CORE ORBITALS).
    27=A       28=A       29=A       30=A       31=A       32=A       33=A   
    34=A       35=A       36=A       37=A       38=A       39=A       40=A   
    41=A       42=A       43=A       44=A       45=A       46=A       47=A   
    48=A       49=A       50=A       51=A       52=A       53=A       54=A   
    55=A       56=A       57=A       58=A       59=A       60=A       61=A   
    62=A       63=A       64=A       65=A       66=A       67=A       68=A   
    69=A       70=A       71=A       72=A       73=A       74=A       75=A   
    76=A       77=A       78=A       79=A       80=A       81=A       82=A   
    83=A       84=A       85=A       86=A       87=A       88=A       89=A   
    90=A       91=A       92=A       93=A       94=A       95=A   
 ...... END OF INITIAL ORBITAL SELECTION ......
 CPU     0: STEP CPU TIME=     0.07 TOTAL CPU TIME=          0.6 (      0.0 MIN)
 TOTAL WALL CLOCK TIME=          1.4 SECONDS, CPU UTILIZATION IS    41.96%

 Running initial guess for monomer      24


          -------------
          GUESS OPTIONS
          -------------
          GUESS =HUCKEL            NORB  =       0          NORDER=       0
          MIX   =       F          PRTMO =       F          PUNMO =       F
          TOLZ  = 1.0E-08          TOLE  = 1.0E-05
          SYMDEN=       F          PURIFY=       F

 INITIAL GUESS ORBITALS GENERATED BY HUCKEL   ROUTINE.
 HUCKEL GUESS REQUIRES    520404 WORDS.

 SYMMETRIES FOR INITIAL GUESS ORBITALS FOLLOW.   BOTH SET(S).
    89 ORBITALS ARE OCCUPIED (   27 CORE ORBITALS).
    28=A       29=A       30=A       31=A       32=A       33=A       34=A   
    35=A       36=A       37=A       38=A       39=A       40=A       41=A   
    42=A       43=A       44=A       45=A       46=A       47=A       48=A   
    49=A       50=A       51=A       52=A       53=A       54=A       55=A   
    56=A       57=A       58=A       59=A       60=A       61=A       62=A   
    63=A       64=A       65=A       66=A       67=A       68=A       69=A   
    70=A       71=A       72=A       73=A       74=A       75=A       76=A   
    77=A       78=A       79=A       80=A       81=A       82=A       83=A   
    84=A       85=A       86=A       87=A       88=A       89=A       90=A   
    91=A       92=A       93=A       94=A       95=A       96=A       97=A   
    98=A       99=A   
 ...... END OF INITIAL ORBITAL SELECTION ......
 CPU     0: STEP CPU TIME=     0.08 TOTAL CPU TIME=          0.7 (      0.0 MIN)
 TOTAL WALL CLOCK TIME=          1.6 SECONDS, CPU UTILIZATION IS    43.31%

 Running initial guess for monomer      23


          -------------
          GUESS OPTIONS
          -------------
          GUESS =HUCKEL            NORB  =       0          NORDER=       0
          MIX   =       F          PRTMO =       F          PUNMO =       F
          TOLZ  = 1.0E-08          TOLE  = 1.0E-05
          SYMDEN=       F          PURIFY=       F

 INITIAL GUESS ORBITALS GENERATED BY HUCKEL   ROUTINE.
 HUCKEL GUESS REQUIRES    405894 WORDS.

 SYMMETRIES FOR INITIAL GUESS ORBITALS FOLLOW.   BOTH SET(S).
    79 ORBITALS ARE OCCUPIED (   24 CORE ORBITALS).
    25=A       26=A       27=A       28=A       29=A       30=A       31=A   
    32=A       33=A       34=A       35=A       36=A       37=A       38=A   
    39=A       40=A       41=A       42=A       43=A       44=A       45=A   
    46=A       47=A       48=A       49=A       50=A       51=A       52=A   
    53=A       54=A       55=A       56=A       57=A       58=A       59=A   
    60=A       61=A       62=A       63=A       64=A       65=A       66=A   
    67=A       68=A       69=A       70=A       71=A       72=A       73=A   
    74=A       75=A       76=A       77=A       78=A       79=A       80=A   
    81=A       82=A       83=A       84=A       85=A       86=A       87=A   
    88=A       89=A   
 ...... END OF INITIAL ORBITAL SELECTION ......
 CPU     0: STEP CPU TIME=     0.06 TOTAL CPU TIME=          0.7 (      0.0 MIN)
 TOTAL WALL CLOCK TIME=          1.7 SECONDS, CPU UTILIZATION IS    44.05%

 Running initial guess for monomer      22


          -------------
          GUESS OPTIONS
          -------------
          GUESS =HUCKEL            NORB  =       0          NORDER=       0
          MIX   =       F          PRTMO =       F          PUNMO =       F
          TOLZ  = 1.0E-08          TOLE  = 1.0E-05
          SYMDEN=       F          PURIFY=       F

 INITIAL GUESS ORBITALS GENERATED BY HUCKEL   ROUTINE.
 HUCKEL GUESS REQUIRES    483461 WORDS.

 SYMMETRIES FOR INITIAL GUESS ORBITALS FOLLOW.   BOTH SET(S).
    85 ORBITALS ARE OCCUPIED (   26 CORE ORBITALS).
    27=A       28=A       29=A       30=A       31=A       32=A       33=A   
    34=A       35=A       36=A       37=A       38=A       39=A       40=A   
    41=A       42=A       43=A       44=A       45=A       46=A       47=A   
    48=A       49=A       50=A       51=A       52=A       53=A       54=A   
    55=A       56=A       57=A       58=A       59=A       60=A       61=A   
    62=A       63=A       64=A       65=A       66=A       67=A       68=A   
    69=A       70=A       71=A       72=A       73=A       74=A       75=A   
    76=A       77=A       78=A       79=A       80=A       81=A       82=A   
    83=A       84=A       85=A       86=A       87=A       88=A       89=A   
    90=A       91=A       92=A       93=A       94=A       95=A   
 ...... END OF INITIAL ORBITAL SELECTION ......
 CPU     0: STEP CPU TIME=     0.07 TOTAL CPU TIME=          0.8 (      0.0 MIN)
 TOTAL WALL CLOCK TIME=          1.8 SECONDS, CPU UTILIZATION IS    44.75%

 Running initial guess for monomer      21


          -------------
          GUESS OPTIONS
          -------------
          GUESS =HUCKEL            NORB  =       0          NORDER=       0
          MIX   =       F          PRTMO =       F          PUNMO =       F
          TOLZ  = 1.0E-08          TOLE  = 1.0E-05
          SYMDEN=       F          PURIFY=       F

 INITIAL GUESS ORBITALS GENERATED BY HUCKEL   ROUTINE.
 HUCKEL GUESS REQUIRES    520404 WORDS.

 SYMMETRIES FOR INITIAL GUESS ORBITALS FOLLOW.   BOTH SET(S).
    89 ORBITALS ARE OCCUPIED (   27 CORE ORBITALS).
    28=A       29=A       30=A       31=A       32=A       33=A       34=A   
    35=A       36=A       37=A       38=A       39=A       40=A       41=A   
    42=A       43=A       44=A       45=A       46=A       47=A       48=A   
    49=A       50=A       51=A       52=A       53=A       54=A       55=A   
    56=A       57=A       58=A       59=A       60=A       61=A       62=A   
    63=A       64=A       65=A       66=A       67=A       68=A       69=A   
    70=A       71=A       72=A       73=A       74=A       75=A       76=A   
    77=A       78=A       79=A       80=A       81=A       82=A       83=A   
    84=A       85=A       86=A       87=A       88=A       89=A       90=A   
    91=A       92=A       93=A       94=A       95=A       96=A       97=A   
    98=A       99=A   
 ...... END OF INITIAL ORBITAL SELECTION ......
 CPU     0: STEP CPU TIME=     0.07 TOTAL CPU TIME=          0.9 (      0.0 MIN)
 TOTAL WALL CLOCK TIME=          2.0 SECONDS, CPU UTILIZATION IS    44.90%

 Running initial guess for monomer      20


          -------------
          GUESS OPTIONS
          -------------
          GUESS =HUCKEL            NORB  =       0          NORDER=       0
          MIX   =       F          PRTMO =       F          PUNMO =       F
          TOLZ  = 1.0E-08          TOLE  = 1.0E-05
          SYMDEN=       F          PURIFY=       F

 INITIAL GUESS ORBITALS GENERATED BY HUCKEL   ROUTINE.
 HUCKEL GUESS REQUIRES    520404 WORDS.

 SYMMETRIES FOR INITIAL GUESS ORBITALS FOLLOW.   BOTH SET(S).
    89 ORBITALS ARE OCCUPIED (   27 CORE ORBITALS).
    28=A       29=A       30=A       31=A       32=A       33=A       34=A   
    35=A       36=A       37=A       38=A       39=A       40=A       41=A   
    42=A       43=A       44=A       45=A       46=A       47=A       48=A   
    49=A       50=A       51=A       52=A       53=A       54=A       55=A   
    56=A       57=A       58=A       59=A       60=A       61=A       62=A   
    63=A       64=A       65=A       66=A       67=A       68=A       69=A   
    70=A       71=A       72=A       73=A       74=A       75=A       76=A   
    77=A       78=A       79=A       80=A       81=A       82=A       83=A   
    84=A       85=A       86=A       87=A       88=A       89=A       90=A   
    91=A       92=A       93=A       94=A       95=A       96=A       97=A   
    98=A       99=A   
 ...... END OF INITIAL ORBITAL SELECTION ......
 CPU     0: STEP CPU TIME=     0.08 TOTAL CPU TIME=          1.0 (      0.0 MIN)
 TOTAL WALL CLOCK TIME=          2.1 SECONDS, CPU UTILIZATION IS    45.71%

 Running initial guess for monomer      19


          -------------
          GUESS OPTIONS
          -------------
          GUESS =HUCKEL            NORB  =       0          NORDER=       0
          MIX   =       F          PRTMO =       F          PUNMO =       F
          TOLZ  = 1.0E-08          TOLE  = 1.0E-05
          SYMDEN=       F          PURIFY=       F

 INITIAL GUESS ORBITALS GENERATED BY HUCKEL   ROUTINE.
 HUCKEL GUESS REQUIRES    483461 WORDS.

 SYMMETRIES FOR INITIAL GUESS ORBITALS FOLLOW.   BOTH SET(S).
    85 ORBITALS ARE OCCUPIED (   26 CORE ORBITALS).
    27=A       28=A       29=A       30=A       31=A       32=A       33=A   
    34=A       35=A       36=A       37=A       38=A       39=A       40=A   
    41=A       42=A       43=A       44=A       45=A       46=A       47=A   
    48=A       49=A       50=A       51=A       52=A       53=A       54=A   
    55=A       56=A       57=A       58=A       59=A       60=A       61=A   
    62=A       63=A       64=A       65=A       66=A       67=A       68=A   
    69=A       70=A       71=A       72=A       73=A       74=A       75=A   
    76=A       77=A       78=A       79=A       80=A       81=A       82=A   
    83=A       84=A       85=A       86=A       87=A       88=A       89=A   
    90=A       91=A       92=A       93=A       94=A       95=A   
 ...... END OF INITIAL ORBITAL SELECTION ......
 CPU     0: STEP CPU TIME=     0.07 TOTAL CPU TIME=          1.0 (      0.0 MIN)
 TOTAL WALL CLOCK TIME=          2.2 SECONDS, CPU UTILIZATION IS    45.98%

 Running initial guess for monomer      18


          -------------
          GUESS OPTIONS
          -------------
          GUESS =HUCKEL            NORB  =       0          NORDER=       0
          MIX   =       F          PRTMO =       F          PUNMO =       F
          TOLZ  = 1.0E-08          TOLE  = 1.0E-05
          SYMDEN=       F          PURIFY=       F

 INITIAL GUESS ORBITALS GENERATED BY HUCKEL   ROUTINE.
 HUCKEL GUESS REQUIRES    483461 WORDS.

 SYMMETRIES FOR INITIAL GUESS ORBITALS FOLLOW.   BOTH SET(S).
    85 ORBITALS ARE OCCUPIED (   26 CORE ORBITALS).
    27=A       28=A       29=A       30=A       31=A       32=A       33=A   
    34=A       35=A       36=A       37=A       38=A       39=A       40=A   
    41=A       42=A       43=A       44=A       45=A       46=A       47=A   
    48=A       49=A       50=A       51=A       52=A       53=A       54=A   
    55=A       56=A       57=A       58=A       59=A       60=A       61=A   
    62=A       63=A       64=A       65=A       66=A       67=A       68=A   
    69=A       70=A       71=A       72=A       73=A       74=A       75=A   
    76=A       77=A       78=A       79=A       80=A       81=A       82=A   
    83=A       84=A       85=A       86=A       87=A       88=A       89=A   
    90=A       91=A       92=A       93=A       94=A       95=A   
 ...... END OF INITIAL ORBITAL SELECTION ......
 CPU     0: STEP CPU TIME=     0.07 TOTAL CPU TIME=          1.1 (      0.0 MIN)
 TOTAL WALL CLOCK TIME=          2.4 SECONDS, CPU UTILIZATION IS    46.22%

 Running initial guess for monomer      17


          -------------
          GUESS OPTIONS
          -------------
          GUESS =HUCKEL            NORB  =       0          NORDER=       0
          MIX   =       F          PRTMO =       F          PUNMO =       F
          TOLZ  = 1.0E-08          TOLE  = 1.0E-05
          SYMDEN=       F          PURIFY=       F

 INITIAL GUESS ORBITALS GENERATED BY HUCKEL   ROUTINE.
 HUCKEL GUESS REQUIRES    405894 WORDS.

 SYMMETRIES FOR INITIAL GUESS ORBITALS FOLLOW.   BOTH SET(S).
    79 ORBITALS ARE OCCUPIED (   24 CORE ORBITALS).
    25=A       26=A       27=A       28=A       29=A       30=A       31=A   
    32=A       33=A       34=A       35=A       36=A       37=A       38=A   
    39=A       40=A       41=A       42=A       43=A       44=A       45=A   
    46=A       47=A       48=A       49=A       50=A       51=A       52=A   
    53=A       54=A       55=A       56=A       57=A       58=A       59=A   
    60=A       61=A       62=A       63=A       64=A       65=A       66=A   
    67=A       68=A       69=A       70=A       71=A       72=A       73=A   
    74=A       75=A       76=A       77=A       78=A       79=A       80=A   
    81=A       82=A       83=A       84=A       85=A       86=A       87=A   
    88=A       89=A   
 ...... END OF INITIAL ORBITAL SELECTION ......
 CPU     0: STEP CPU TIME=     0.06 TOTAL CPU TIME=          1.2 (      0.0 MIN)
 TOTAL WALL CLOCK TIME=          2.5 SECONDS, CPU UTILIZATION IS    46.59%

 Running initial guess for monomer      16


          -------------
          GUESS OPTIONS
          -------------
          GUESS =HUCKEL            NORB  =       0          NORDER=       0
          MIX   =       F          PRTMO =       F          PUNMO =       F
          TOLZ  = 1.0E-08          TOLE  = 1.0E-05
          SYMDEN=       F          PURIFY=       F

 INITIAL GUESS ORBITALS GENERATED BY HUCKEL   ROUTINE.
 HUCKEL GUESS REQUIRES    483461 WORDS.

 SYMMETRIES FOR INITIAL GUESS ORBITALS FOLLOW.   BOTH SET(S).
    85 ORBITALS ARE OCCUPIED (   26 CORE ORBITALS).
    27=A       28=A       29=A       30=A       31=A       32=A       33=A   
    34=A       35=A       36=A       37=A       38=A       39=A       40=A   
    41=A       42=A       43=A       44=A       45=A       46=A       47=A   
    48=A       49=A       50=A       51=A       52=A       53=A       54=A   
    55=A       56=A       57=A       58=A       59=A       60=A       61=A   
    62=A       63=A       64=A       65=A       66=A       67=A       68=A   
    69=A       70=A       71=A       72=A       73=A       74=A       75=A   
    76=A       77=A       78=A       79=A       80=A       81=A       82=A   
    83=A       84=A       85=A       86=A       87=A       88=A       89=A   
    90=A       91=A       92=A       93=A       94=A       95=A   
 ...... END OF INITIAL ORBITAL SELECTION ......
 CPU     0: STEP CPU TIME=     0.07 TOTAL CPU TIME=          1.2 (      0.0 MIN)
 TOTAL WALL CLOCK TIME=          2.6 SECONDS, CPU UTILIZATION IS    46.77%

 Running initial guess for monomer      15


          -------------
          GUESS OPTIONS
          -------------
          GUESS =HUCKEL            NORB  =       0          NORDER=       0
          MIX   =       F          PRTMO =       F          PUNMO =       F
          TOLZ  = 1.0E-08          TOLE  = 1.0E-05
          SYMDEN=       F          PURIFY=       F

 INITIAL GUESS ORBITALS GENERATED BY HUCKEL   ROUTINE.
 HUCKEL GUESS REQUIRES    413697 WORDS.

 SYMMETRIES FOR INITIAL GUESS ORBITALS FOLLOW.   BOTH SET(S).
    79 ORBITALS ARE OCCUPIED (   24 CORE ORBITALS).
    25=A       26=A       27=A       28=A       29=A       30=A       31=A   
    32=A       33=A       34=A       35=A       36=A       37=A       38=A   
    39=A       40=A       41=A       42=A       43=A       44=A       45=A   
    46=A       47=A       48=A       49=A       50=A       51=A       52=A   
    53=A       54=A       55=A       56=A       57=A       58=A       59=A   
    60=A       61=A       62=A       63=A       64=A       65=A       66=A   
    67=A       68=A       69=A       70=A       71=A       72=A       73=A   
    74=A       75=A       76=A       77=A       78=A       79=A       80=A   
    81=A       82=A       83=A       84=A       85=A       86=A       87=A   
    88=A       89=A   
 ...... END OF INITIAL ORBITAL SELECTION ......
 CPU     0: STEP CPU TIME=     0.05 TOTAL CPU TIME=          1.3 (      0.0 MIN)
 TOTAL WALL CLOCK TIME=          2.8 SECONDS, CPU UTILIZATION IS    46.55%

 Running initial guess for monomer      14


          -------------
          GUESS OPTIONS
          -------------
          GUESS =HUCKEL            NORB  =       0          NORDER=       0
          MIX   =       F          PRTMO =       F          PUNMO =       F
          TOLZ  = 1.0E-08          TOLE  = 1.0E-05
          SYMDEN=       F          PURIFY=       F

 INITIAL GUESS ORBITALS GENERATED BY HUCKEL   ROUTINE.
 HUCKEL GUESS REQUIRES    520404 WORDS.

 SYMMETRIES FOR INITIAL GUESS ORBITALS FOLLOW.   BOTH SET(S).
    89 ORBITALS ARE OCCUPIED (   27 CORE ORBITALS).
    28=A       29=A       30=A       31=A       32=A       33=A       34=A   
    35=A       36=A       37=A       38=A       39=A       40=A       41=A   
    42=A       43=A       44=A       45=A       46=A       47=A       48=A   
    49=A       50=A       51=A       52=A       53=A       54=A       55=A   
    56=A       57=A       58=A       59=A       60=A       61=A       62=A   
    63=A       64=A       65=A       66=A       67=A       68=A       69=A   
    70=A       71=A       72=A       73=A       74=A       75=A       76=A   
    77=A       78=A       79=A       80=A       81=A       82=A       83=A   
    84=A       85=A       86=A       87=A       88=A       89=A       90=A   
    91=A       92=A       93=A       94=A       95=A       96=A       97=A   
    98=A       99=A   
 ...... END OF INITIAL ORBITAL SELECTION ......
 CPU     0: STEP CPU TIME=     0.07 TOTAL CPU TIME=          1.4 (      0.0 MIN)
 TOTAL WALL CLOCK TIME=          2.9 SECONDS, CPU UTILIZATION IS    46.71%

 Running initial guess for monomer      13


          -------------
          GUESS OPTIONS
          -------------
          GUESS =HUCKEL            NORB  =       0          NORDER=       0
          MIX   =       F          PRTMO =       F          PUNMO =       F
          TOLZ  = 1.0E-08          TOLE  = 1.0E-05
          SYMDEN=       F          PURIFY=       F

 INITIAL GUESS ORBITALS GENERATED BY HUCKEL   ROUTINE.
 HUCKEL GUESS REQUIRES    405894 WORDS.

 SYMMETRIES FOR INITIAL GUESS ORBITALS FOLLOW.   BOTH SET(S).
    79 ORBITALS ARE OCCUPIED (   24 CORE ORBITALS).
    25=A       26=A       27=A       28=A       29=A       30=A       31=A   
    32=A       33=A       34=A       35=A       36=A       37=A       38=A   
    39=A       40=A       41=A       42=A       43=A       44=A       45=A   
    46=A       47=A       48=A       49=A       50=A       51=A       52=A   
    53=A       54=A       55=A       56=A       57=A       58=A       59=A   
    60=A       61=A       62=A       63=A       64=A       65=A       66=A   
    67=A       68=A       69=A       70=A       71=A       72=A       73=A   
    74=A       75=A       76=A       77=A       78=A       79=A       80=A   
    81=A       82=A       83=A       84=A       85=A       86=A       87=A   
    88=A       89=A   
 ...... END OF INITIAL ORBITAL SELECTION ......
 CPU     0: STEP CPU TIME=     0.06 TOTAL CPU TIME=          1.4 (      0.0 MIN)
 TOTAL WALL CLOCK TIME=          3.0 SECONDS, CPU UTILIZATION IS    47.00%

 Running initial guess for monomer      12


          -------------
          GUESS OPTIONS
          -------------
          GUESS =HUCKEL            NORB  =       0          NORDER=       0
          MIX   =       F          PRTMO =       F          PUNMO =       F
          TOLZ  = 1.0E-08          TOLE  = 1.0E-05
          SYMDEN=       F          PURIFY=       F

 INITIAL GUESS ORBITALS GENERATED BY HUCKEL   ROUTINE.
 HUCKEL GUESS REQUIRES    413697 WORDS.

 SYMMETRIES FOR INITIAL GUESS ORBITALS FOLLOW.   BOTH SET(S).
    79 ORBITALS ARE OCCUPIED (   24 CORE ORBITALS).
    25=A       26=A       27=A       28=A       29=A       30=A       31=A   
    32=A       33=A       34=A       35=A       36=A       37=A       38=A   
    39=A       40=A       41=A       42=A       43=A       44=A       45=A   
    46=A       47=A       48=A       49=A       50=A       51=A       52=A   
    53=A       54=A       55=A       56=A       57=A       58=A       59=A   
    60=A       61=A       62=A       63=A       64=A       65=A       66=A   
    67=A       68=A       69=A       70=A       71=A       72=A       73=A   
    74=A       75=A       76=A       77=A       78=A       79=A       80=A   
    81=A       82=A       83=A       84=A       85=A       86=A       87=A   
    88=A       89=A   
 ...... END OF INITIAL ORBITAL SELECTION ......
 CPU     0: STEP CPU TIME=     0.06 TOTAL CPU TIME=          1.5 (      0.0 MIN)
 TOTAL WALL CLOCK TIME=          3.1 SECONDS, CPU UTILIZATION IS    47.12%

 Running initial guess for monomer      11


          -------------
          GUESS OPTIONS
          -------------
          GUESS =HUCKEL            NORB  =       0          NORDER=       0
          MIX   =       F          PRTMO =       F          PUNMO =       F
          TOLZ  = 1.0E-08          TOLE  = 1.0E-05
          SYMDEN=       F          PURIFY=       F

 INITIAL GUESS ORBITALS GENERATED BY HUCKEL   ROUTINE.
 HUCKEL GUESS REQUIRES    413697 WORDS.

 SYMMETRIES FOR INITIAL GUESS ORBITALS FOLLOW.   BOTH SET(S).
    79 ORBITALS ARE OCCUPIED (   24 CORE ORBITALS).
    25=A       26=A       27=A       28=A       29=A       30=A       31=A   
    32=A       33=A       34=A       35=A       36=A       37=A       38=A   
    39=A       40=A       41=A       42=A       43=A       44=A       45=A   
    46=A       47=A       48=A       49=A       50=A       51=A       52=A   
    53=A       54=A       55=A       56=A       57=A       58=A       59=A   
    60=A       61=A       62=A       63=A       64=A       65=A       66=A   
    67=A       68=A       69=A       70=A       71=A       72=A       73=A   
    74=A       75=A       76=A       77=A       78=A       79=A       80=A   
    81=A       82=A       83=A       84=A       85=A       86=A       87=A   
    88=A       89=A   
 ...... END OF INITIAL ORBITAL SELECTION ......
 CPU     0: STEP CPU TIME=     0.05 TOTAL CPU TIME=          1.5 (      0.0 MIN)
 TOTAL WALL CLOCK TIME=          3.2 SECONDS, CPU UTILIZATION IS    47.06%

 Running initial guess for monomer      10


          -------------
          GUESS OPTIONS
          -------------
          GUESS =HUCKEL            NORB  =       0          NORDER=       0
          MIX   =       F          PRTMO =       F          PUNMO =       F
          TOLZ  = 1.0E-08          TOLE  = 1.0E-05
          SYMDEN=       F          PURIFY=       F

 INITIAL GUESS ORBITALS GENERATED BY HUCKEL   ROUTINE.
 HUCKEL GUESS REQUIRES    413697 WORDS.

 SYMMETRIES FOR INITIAL GUESS ORBITALS FOLLOW.   BOTH SET(S).
    79 ORBITALS ARE OCCUPIED (   24 CORE ORBITALS).
    25=A       26=A       27=A       28=A       29=A       30=A       31=A   
    32=A       33=A       34=A       35=A       36=A       37=A       38=A   
    39=A       40=A       41=A       42=A       43=A       44=A       45=A   
    46=A       47=A       48=A       49=A       50=A       51=A       52=A   
    53=A       54=A       55=A       56=A       57=A       58=A       59=A   
    60=A       61=A       62=A       63=A       64=A       65=A       66=A   
    67=A       68=A       69=A       70=A       71=A       72=A       73=A   
    74=A       75=A       76=A       77=A       78=A       79=A       80=A   
    81=A       82=A       83=A       84=A       85=A       86=A       87=A   
    88=A       89=A   
 ...... END OF INITIAL ORBITAL SELECTION ......
 CPU     0: STEP CPU TIME=     0.06 TOTAL CPU TIME=          1.6 (      0.0 MIN)
 TOTAL WALL CLOCK TIME=          3.3 SECONDS, CPU UTILIZATION IS    47.31%

 Running initial guess for monomer       9


          -------------
          GUESS OPTIONS
          -------------
          GUESS =HUCKEL            NORB  =       0          NORDER=       0
          MIX   =       F          PRTMO =       F          PUNMO =       F
          TOLZ  = 1.0E-08          TOLE  = 1.0E-05
          SYMDEN=       F          PURIFY=       F

 INITIAL GUESS ORBITALS GENERATED BY HUCKEL   ROUTINE.
 HUCKEL GUESS REQUIRES    413697 WORDS.

 SYMMETRIES FOR INITIAL GUESS ORBITALS FOLLOW.   BOTH SET(S).
    79 ORBITALS ARE OCCUPIED (   24 CORE ORBITALS).
    25=A       26=A       27=A       28=A       29=A       30=A       31=A   
    32=A       33=A       34=A       35=A       36=A       37=A       38=A   
    39=A       40=A       41=A       42=A       43=A       44=A       45=A   
    46=A       47=A       48=A       49=A       50=A       51=A       52=A   
    53=A       54=A       55=A       56=A       57=A       58=A       59=A   
    60=A       61=A       62=A       63=A       64=A       65=A       66=A   
    67=A       68=A       69=A       70=A       71=A       72=A       73=A   
    74=A       75=A       76=A       77=A       78=A       79=A       80=A   
    81=A       82=A       83=A       84=A       85=A       86=A       87=A   
    88=A       89=A   
 ...... END OF INITIAL ORBITAL SELECTION ......
 CPU     0: STEP CPU TIME=     0.07 TOTAL CPU TIME=          1.7 (      0.0 MIN)
 TOTAL WALL CLOCK TIME=          3.4 SECONDS, CPU UTILIZATION IS    47.97%

 Running initial guess for monomer       8


          -------------
          GUESS OPTIONS
          -------------
          GUESS =HUCKEL            NORB  =       0          NORDER=       0
          MIX   =       F          PRTMO =       F          PUNMO =       F
          TOLZ  = 1.0E-08          TOLE  = 1.0E-05
          SYMDEN=       F          PURIFY=       F

 INITIAL GUESS ORBITALS GENERATED BY HUCKEL   ROUTINE.
 HUCKEL GUESS REQUIRES    405894 WORDS.

 SYMMETRIES FOR INITIAL GUESS ORBITALS FOLLOW.   BOTH SET(S).
    79 ORBITALS ARE OCCUPIED (   24 CORE ORBITALS).
    25=A       26=A       27=A       28=A       29=A       30=A       31=A   
    32=A       33=A       34=A       35=A       36=A       37=A       38=A   
    39=A       40=A       41=A       42=A       43=A       44=A       45=A   
    46=A       47=A       48=A       49=A       50=A       51=A       52=A   
    53=A       54=A       55=A       56=A       57=A       58=A       59=A   
    60=A       61=A       62=A       63=A       64=A       65=A       66=A   
    67=A       68=A       69=A       70=A       71=A       72=A       73=A   
    74=A       75=A       76=A       77=A       78=A       79=A       80=A   
    81=A       82=A       83=A       84=A       85=A       86=A       87=A   
    88=A       89=A   
 ...... END OF INITIAL ORBITAL SELECTION ......
 CPU     0: STEP CPU TIME=     0.05 TOTAL CPU TIME=          1.7 (      0.0 MIN)
 TOTAL WALL CLOCK TIME=          3.6 SECONDS, CPU UTILIZATION IS    47.89%

 Running initial guess for monomer       7


          -------------
          GUESS OPTIONS
          -------------
          GUESS =HUCKEL            NORB  =       0          NORDER=       0
          MIX   =       F          PRTMO =       F          PUNMO =       F
          TOLZ  = 1.0E-08          TOLE  = 1.0E-05
          SYMDEN=       F          PURIFY=       F

 INITIAL GUESS ORBITALS GENERATED BY HUCKEL   ROUTINE.
 HUCKEL GUESS REQUIRES    405894 WORDS.

 SYMMETRIES FOR INITIAL GUESS ORBITALS FOLLOW.   BOTH SET(S).
    79 ORBITALS ARE OCCUPIED (   24 CORE ORBITALS).
    25=A       26=A       27=A       28=A       29=A       30=A       31=A   
    32=A       33=A       34=A       35=A       36=A       37=A       38=A   
    39=A       40=A       41=A       42=A       43=A       44=A       45=A   
    46=A       47=A       48=A       49=A       50=A       51=A       52=A   
    53=A       54=A       55=A       56=A       57=A       58=A       59=A   
    60=A       61=A       62=A       63=A       64=A       65=A       66=A   
    67=A       68=A       69=A       70=A       71=A       72=A       73=A   
    74=A       75=A       76=A       77=A       78=A       79=A       80=A   
    81=A       82=A       83=A       84=A       85=A       86=A       87=A   
    88=A       89=A   
 ...... END OF INITIAL ORBITAL SELECTION ......
 CPU     0: STEP CPU TIME=     0.06 TOTAL CPU TIME=          1.8 (      0.0 MIN)
 TOTAL WALL CLOCK TIME=          3.6 SECONDS, CPU UTILIZATION IS    48.22%

 Running initial guess for monomer       6


          -------------
          GUESS OPTIONS
          -------------
          GUESS =HUCKEL            NORB  =       0          NORDER=       0
          MIX   =       F          PRTMO =       F          PUNMO =       F
          TOLZ  = 1.0E-08          TOLE  = 1.0E-05
          SYMDEN=       F          PURIFY=       F

 INITIAL GUESS ORBITALS GENERATED BY HUCKEL   ROUTINE.
 HUCKEL GUESS REQUIRES    520404 WORDS.

 SYMMETRIES FOR INITIAL GUESS ORBITALS FOLLOW.   BOTH SET(S).
    89 ORBITALS ARE OCCUPIED (   27 CORE ORBITALS).
    28=A       29=A       30=A       31=A       32=A       33=A       34=A   
    35=A       36=A       37=A       38=A       39=A       40=A       41=A   
    42=A       43=A       44=A       45=A       46=A       47=A       48=A   
    49=A       50=A       51=A       52=A       53=A       54=A       55=A   
    56=A       57=A       58=A       59=A       60=A       61=A       62=A   
    63=A       64=A       65=A       66=A       67=A       68=A       69=A   
    70=A       71=A       72=A       73=A       74=A       75=A       76=A   
    77=A       78=A       79=A       80=A       81=A       82=A       83=A   
    84=A       85=A       86=A       87=A       88=A       89=A       90=A   
    91=A       92=A       93=A       94=A       95=A       96=A       97=A   
    98=A       99=A   
 ...... END OF INITIAL ORBITAL SELECTION ......
 CPU     0: STEP CPU TIME=     0.07 TOTAL CPU TIME=          1.8 (      0.0 MIN)
 TOTAL WALL CLOCK TIME=          3.8 SECONDS, CPU UTILIZATION IS    48.41%

 Running initial guess for monomer       5


          -------------
          GUESS OPTIONS
          -------------
          GUESS =HUCKEL            NORB  =       0          NORDER=       0
          MIX   =       F          PRTMO =       F          PUNMO =       F
          TOLZ  = 1.0E-08          TOLE  = 1.0E-05
          SYMDEN=       F          PURIFY=       F

 INITIAL GUESS ORBITALS GENERATED BY HUCKEL   ROUTINE.
 HUCKEL GUESS REQUIRES    483461 WORDS.

 SYMMETRIES FOR INITIAL GUESS ORBITALS FOLLOW.   BOTH SET(S).
    85 ORBITALS ARE OCCUPIED (   26 CORE ORBITALS).
    27=A       28=A       29=A       30=A       31=A       32=A       33=A   
    34=A       35=A       36=A       37=A       38=A       39=A       40=A   
    41=A       42=A       43=A       44=A       45=A       46=A       47=A   
    48=A       49=A       50=A       51=A       52=A       53=A       54=A   
    55=A       56=A       57=A       58=A       59=A       60=A       61=A   
    62=A       63=A       64=A       65=A       66=A       67=A       68=A   
    69=A       70=A       71=A       72=A       73=A       74=A       75=A   
    76=A       77=A       78=A       79=A       80=A       81=A       82=A   
    83=A       84=A       85=A       86=A       87=A       88=A       89=A   
    90=A       91=A       92=A       93=A       94=A       95=A   
 ...... END OF INITIAL ORBITAL SELECTION ......
 CPU     0: STEP CPU TIME=     0.08 TOTAL CPU TIME=          1.9 (      0.0 MIN)
 TOTAL WALL CLOCK TIME=          3.9 SECONDS, CPU UTILIZATION IS    48.97%

 Running initial guess for monomer       4


          -------------
          GUESS OPTIONS
          -------------
          GUESS =HUCKEL            NORB  =       0          NORDER=       0
          MIX   =       F          PRTMO =       F          PUNMO =       F
          TOLZ  = 1.0E-08          TOLE  = 1.0E-05
          SYMDEN=       F          PURIFY=       F

 INITIAL GUESS ORBITALS GENERATED BY HUCKEL   ROUTINE.
 HUCKEL GUESS REQUIRES    413697 WORDS.

 SYMMETRIES FOR INITIAL GUESS ORBITALS FOLLOW.   BOTH SET(S).
    79 ORBITALS ARE OCCUPIED (   24 CORE ORBITALS).
    25=A       26=A       27=A       28=A       29=A       30=A       31=A   
    32=A       33=A       34=A       35=A       36=A       37=A       38=A   
    39=A       40=A       41=A       42=A       43=A       44=A       45=A   
    46=A       47=A       48=A       49=A       50=A       51=A       52=A   
    53=A       54=A       55=A       56=A       57=A       58=A       59=A   
    60=A       61=A       62=A       63=A       64=A       65=A       66=A   
    67=A       68=A       69=A       70=A       71=A       72=A       73=A   
    74=A       75=A       76=A       77=A       78=A       79=A       80=A   
    81=A       82=A       83=A       84=A       85=A       86=A       87=A   
    88=A       89=A   
 ...... END OF INITIAL ORBITAL SELECTION ......
 CPU     0: STEP CPU TIME=     0.05 TOTAL CPU TIME=          2.0 (      0.0 MIN)
 TOTAL WALL CLOCK TIME=          4.0 SECONDS, CPU UTILIZATION IS    48.88%

 Running initial guess for monomer       3


          -------------
          GUESS OPTIONS
          -------------
          GUESS =HUCKEL            NORB  =       0          NORDER=       0
          MIX   =       F          PRTMO =       F          PUNMO =       F
          TOLZ  = 1.0E-08          TOLE  = 1.0E-05
          SYMDEN=       F          PURIFY=       F

 INITIAL GUESS ORBITALS GENERATED BY HUCKEL   ROUTINE.
 HUCKEL GUESS REQUIRES    520404 WORDS.

 SYMMETRIES FOR INITIAL GUESS ORBITALS FOLLOW.   BOTH SET(S).
    89 ORBITALS ARE OCCUPIED (   27 CORE ORBITALS).
    28=A       29=A       30=A       31=A       32=A       33=A       34=A   
    35=A       36=A       37=A       38=A       39=A       40=A       41=A   
    42=A       43=A       44=A       45=A       46=A       47=A       48=A   
    49=A       50=A       51=A       52=A       53=A       54=A       55=A   
    56=A       57=A       58=A       59=A       60=A       61=A       62=A   
    63=A       64=A       65=A       66=A       67=A       68=A       69=A   
    70=A       71=A       72=A       73=A       74=A       75=A       76=A   
    77=A       78=A       79=A       80=A       81=A       82=A       83=A   
    84=A       85=A       86=A       87=A       88=A       89=A       90=A   
    91=A       92=A       93=A       94=A       95=A       96=A       97=A   
    98=A       99=A   
 ...... END OF INITIAL ORBITAL SELECTION ......
 CPU     0: STEP CPU TIME=     0.07 TOTAL CPU TIME=          2.0 (      0.0 MIN)
 TOTAL WALL CLOCK TIME=          4.1 SECONDS, CPU UTILIZATION IS    49.03%

 Running initial guess for monomer       2


          -------------
          GUESS OPTIONS
          -------------
          GUESS =HUCKEL            NORB  =       0          NORDER=       0
          MIX   =       F          PRTMO =       F          PUNMO =       F
          TOLZ  = 1.0E-08          TOLE  = 1.0E-05
          SYMDEN=       F          PURIFY=       F

 INITIAL GUESS ORBITALS GENERATED BY HUCKEL   ROUTINE.
 HUCKEL GUESS REQUIRES    483461 WORDS.

 SYMMETRIES FOR INITIAL GUESS ORBITALS FOLLOW.   BOTH SET(S).
    85 ORBITALS ARE OCCUPIED (   26 CORE ORBITALS).
    27=A       28=A       29=A       30=A       31=A       32=A       33=A   
    34=A       35=A       36=A       37=A       38=A       39=A       40=A   
    41=A       42=A       43=A       44=A       45=A       46=A       47=A   
    48=A       49=A       50=A       51=A       52=A       53=A       54=A   
    55=A       56=A       57=A       58=A       59=A       60=A       61=A   
    62=A       63=A       64=A       65=A       66=A       67=A       68=A   
    69=A       70=A       71=A       72=A       73=A       74=A       75=A   
    76=A       77=A       78=A       79=A       80=A       81=A       82=A   
    83=A       84=A       85=A       86=A       87=A       88=A       89=A   
    90=A       91=A       92=A       93=A       94=A       95=A   
 ...... END OF INITIAL ORBITAL SELECTION ......
 CPU     0: STEP CPU TIME=     0.08 TOTAL CPU TIME=          2.1 (      0.0 MIN)
 TOTAL WALL CLOCK TIME=          4.3 SECONDS, CPU UTILIZATION IS    49.53%

 Running initial guess for monomer       1


          -------------
          GUESS OPTIONS
          -------------
          GUESS =HUCKEL            NORB  =       0          NORDER=       0
          MIX   =       F          PRTMO =       F          PUNMO =       F
          TOLZ  = 1.0E-08          TOLE  = 1.0E-05
          SYMDEN=       F          PURIFY=       F

 INITIAL GUESS ORBITALS GENERATED BY HUCKEL   ROUTINE.
 HUCKEL GUESS REQUIRES    567794 WORDS.

 SYMMETRIES FOR INITIAL GUESS ORBITALS FOLLOW.   BOTH SET(S).
    94 ORBITALS ARE OCCUPIED (   28 CORE ORBITALS).
    29=A       30=A       31=A       32=A       33=A       34=A       35=A   
    36=A       37=A       38=A       39=A       40=A       41=A       42=A   
    43=A       44=A       45=A       46=A       47=A       48=A       49=A   
    50=A       51=A       52=A       53=A       54=A       55=A       56=A   
    57=A       58=A       59=A       60=A       61=A       62=A       63=A   
    64=A       65=A       66=A       67=A       68=A       69=A       70=A   
    71=A       72=A       73=A       74=A       75=A       76=A       77=A   
    78=A       79=A       80=A       81=A       82=A       83=A       84=A   
    85=A       86=A       87=A       88=A       89=A       90=A       91=A   
    92=A       93=A       94=A       95=A       96=A       97=A       98=A   
    99=A      100=A      101=A      102=A      103=A      104=A   
 ...... END OF INITIAL ORBITAL SELECTION ......
 CPU     0: STEP CPU TIME=     0.09 TOTAL CPU TIME=          2.2 (      0.0 MIN)
 TOTAL WALL CLOCK TIME=          4.4 SECONDS, CPU UTILIZATION IS    49.89%

 There are         412 separated and      84 SCF (       0 of them correlated) dimers.
 Estimate of max dimer size:  486 AOs,  178 occ. MOs

 Fragment statistics

      I  NAME     Q NAT0 NATB NA  NAO LAY MUL SCFTYP        NOP     MOL    CONV
 ==============================================================================
      1 FRAG1    -1   36   1   94  253 1  1 G RHF             0      -1      -1
      2 FRAG2    -1   33   1   85  233 1  1 G RHF             0      -1      -1
      3 FRAG3    -1   34   1   89  242 1  1 G RHF             0      -1      -1
      4 FRAG4    -1   31   1   79  215 1  1 G RHF             0      -1      -1
      5 FRAG5    -1   33   1   85  233 1  1 G RHF             0      -1      -1
      6 FRAG6    -1   34   1   89  242 1  1 G RHF             0      -1      -1
      7 FRAG7    -1   30   1   79  213 1  1 G RHF             0      -1      -1
      8 FRAG8    -1   30   1   79  213 1  1 G RHF             0      -1      -1
      9 FRAG9    -1   31   1   79  215 1  1 G RHF             0      -1      -1
     10 F        -1   31   1   79  215 1  1 G RHF             0      -1      -1
     11 frg00011 -1   31   1   79  215 1  1 G RHF             0      -1      -1
     12 frg00012 -1   31   1   79  215 1  1 G RHF             0      -1      -1
     13 frg00013 -1   30   1   79  213 1  1 G RHF             0      -1      -1
     14 frg00014 -1   34   1   89  242 1  1 G RHF             0      -1      -1
     15 frg00015 -1   31   1   79  215 1  1 G RHF             0      -1      -1
     16 frg00016 -1   33   1   85  233 1  1 G RHF             0      -1      -1
     17 frg00017 -1   30   1   79  213 1  1 G RHF             0      -1      -1
     18 frg00018 -1   33   1   85  233 1  1 G RHF             0      -1      -1
     19 frg00019 -1   33   1   85  233 1  1 G RHF             0      -1      -1
     20 frg00020 -1   34   1   89  242 1  1 G RHF             0      -1      -1
     21 frg00021 -1   34   1   89  242 1  1 G RHF             0      -1      -1
     22 frg00022 -1   33   1   85  233 1  1 G RHF             0      -1      -1
     23 frg00023 -1   30   1   79  213 1  1 G RHF             0      -1      -1
     24 frg00024 -1   34   1   89  242 1  1 G RHF             0      -1      -1
     25 frg00025 -1   33   1   85  233 1  1 G RHF             0      -1      -1
     26 frg00026 -1   33   1   85  233 1  1 G RHF             0      -1      -1
     27 frg00027 -1   31   1   79  215 1  1 G RHF             0      -1      -1
     28 frg00028 -1   31   1   79  215 1  1 G RHF             0      -1      -1
     29 frg00029 -1   34   1   89  242 1  1 G RHF             0      -1      -1
     30 frg00030 -1   30   1   79  213 1  1 G RHF             0      -1      -1
     31 frg00031 -1   30   1   79  213 1  1 G RHF             0      -1      -1
     32 frg00032  0   28   0   59  168 1  1 G RHF             0      -1      -1

 Close fragment pairs, distance relative to vdW radii

     25     8   0.39859 very close!
 CPU     0: STEP CPU TIME=     0.00 TOTAL CPU TIME=          2.2 (      0.0 MIN)
 TOTAL WALL CLOCK TIME=          4.4 SECONDS, CPU UTILIZATION IS    49.89%
 dmexch needs              4921958  words of memory.
 CPU     0: STEP CPU TIME=     0.01 TOTAL CPU TIME=          2.2 (      0.0 MIN)
 TOTAL WALL CLOCK TIME=          4.4 SECONDS, CPU UTILIZATION IS    50.00%

 Data exchange of    816588 words took     0.0 s.

 RHF      monomer      1 corr= NONE       , L1=   253, L0=   253 ID=      1

 Int dimensions: LABSIZ=1, NINTIC=  6005000 ININTIC=  3002500
 Max L1 incore=   170 current l1=   253 force dirscf= T

 DIRECT SCF CALCULATION, SCHWRZ=T   FDIFF=T,  DIRTHR=  0.00E+00 NITDIR=10

                                                                                   NONZERO     BLOCKS
 ITER EX DEM     TOTAL ENERGY        E CHANGE  DENSITY CHANGE    DIIS ERROR      INTEGRALS    SKIPPED
   1  0  0   998279.0434618379998279.0434618379   1.129988940   0.000000000      146107884    9755081
   2  1  0    -1458.8186760141*****************   0.304088723   0.000000000      146157065    9775442
   3  2  0    -1459.1229221064    -0.3042460923   0.333935329   0.000000000      145088270    9912774
   4  3  0    -1459.2164410016    -0.0935188952   0.240534641   0.000000000      144281074    9974434
   5  4  0    -1459.2729822058    -0.0565412042   0.197351710   0.000000000      143540947   10019227
   6  5  0    -1459.3025674480    -0.0295852423   0.167891210   0.000000000      142778442   10058784
   7  6  0    -1459.3232744508    -0.0207070027   0.133191877   0.000000000      142059636   10090980
   8  7  0    -1459.3351920987    -0.0119176479   0.112503105   0.000000000      141260836   10123944
   9  8  0    -1459.3436498400    -0.0084577413   0.089286091   0.000000000      140484169   10152917
  10  9  0    -1459.3488070796    -0.0051572396   0.074480507   0.000000000      139670649   10182322
  11 10  0    -1459.3524442105    -0.0036371309   0.059350607   0.000000000      138863942   10209212
  12 11  0    -1459.3547504274    -0.0023062169   0.049025509   0.000000000      138013556   10236649
  13 12  0    -1459.3563624210    -0.0016119936   0.039206293   0.000000000      137150638   10262790
  14 13  0    -1459.3574121546    -0.0010497335   0.032158008   0.000000000      136253484   10288909
  15 14  0    -1459.3581409194    -0.0007287648   0.025781547   0.000000000      135340529   10314240
  16 15  0    -1459.3586243046    -0.0004833852   0.021039942   0.000000000      134402460   10339781
  17 16  0    -1459.3589585716    -0.0003342670   0.016893859   0.000000000      133475183   10364401
  18 17  0    -1459.3591831995    -0.0002246279   0.013789446   0.000000000      132523959   10389058
  19 18  0    -1459.3593383018    -0.0001551024   0.011555447   0.000000000      131547835   10413471
  20 19  0    -1459.3594435387    -0.0001052369   0.009732557   0.000000000      130557642   10437803
  21 20  0    -1459.3595162279    -0.0000726892   0.008174982   0.000000000      129566687   10461834
  22 21  0    -1459.3595659166    -0.0000496888   0.006891531   0.000000000      128536688   10486112
  23 22  0    -1459.3596002919    -0.0000343752   0.005798999   0.000000000      127506893   10510209
  24 23  0    -1459.3596239342    -0.0000236423   0.004892332   0.000000000      126452848   10534137
  25 24  0    -1459.3596403295    -0.0000163953   0.004122437   0.000000000      125418189   10557651
  26 25  0    -1459.3596516653    -0.0000113359   0.003480214   0.000000000      124354821   10581141
  27 26  0    -1459.3596595488    -0.0000078834   0.002935729   0.000000000      123267560   10604934
  28 27  0    -1459.3596650249    -0.0000054761   0.002479821   0.000000000      122202969   10628173
  29 28  0    -1459.3596688446    -0.0000038197   0.002093670   0.000000000      121099788   10651763
  30 29  0    -1459.3596715098    -0.0000026652   0.001769438   0.000000000      120004559   10674965
  31 30  0    -1459.3596733749    -0.0000018650   0.001494968   0.000000000      118930735   10697868
  32 31  0    -1459.3596746810    -0.0000013061   0.001264030   0.000000000      117843893   10720692
  33 32  0    -1459.3596755978    -0.0000009169   0.001068589   0.000000000      116722975   10743801
  34 33  0    -1459.3596762419    -0.0000006440   0.000903888   0.000000000      115621724   10766621
  35 34  0    -1459.3596766959    -0.0000004540   0.000764514   0.000000000      114496364   10789399
  36 35  0    -1459.3596770161    -0.0000003202   0.000646920   0.000000000      113386041   10812146
  37 36  0    -1459.3596772422    -0.0000002260   0.000547406   0.000000000      112273580   10834828
  38 37  0    -1459.3596774017    -0.0000001596   0.000463362   0.000000000      111159762   10857236
  39 38  0    -1459.3596775151    -0.0000001133   0.000392232   0.000000000      110007748   10880208
  40 39  0    -1459.3596775949    -0.0000000799   0.000332115   0.000000000      108885012   10903036
  41 40  0    -1459.3596776520    -0.0000000570   0.000281226   0.000000000      107728460   10925715
  42 41  0    -1459.3596776927    -0.0000000408   0.000238190   0.000000000      106586964   10948154
  43 42  0    -1459.3596777213    -0.0000000285   0.000201753   0.000000000      105428343   10970832
  44 43  0    -1459.3596777419    -0.0000000206   0.000170923   0.000000000      104302786   10993344
  45 44  0    -1459.3596777564    -0.0000000145   0.000144815   0.000000000      103166878   11015854
  46 45  0    -1459.3596777669    -0.0000000105   0.000122715   0.000000000      102024855   11038424
  47 46  0    -1459.3596777748    -0.0000000079   0.000103996   0.000000000      100865207   11060913
  48 47  0    -1459.3596777795    -0.0000000047   0.000088145   0.000000000       99722454   11083207
  49 48  0    -1459.3596777836    -0.0000000041   0.000074715   0.000000000       98597124   11105565
  50 49  0    -1459.3596777865    -0.0000000029   0.000063340   0.000000000       97465162   11127689

 SCF IS UNCONVERGED, TOO MANY ITERATIONS
     TIME TO FORM FOCK OPERATORS=      37.3 SECONDS (       0.7 SEC/ITER)
     FOCK TIME ON FIRST ITERATION=       1.0, LAST ITERATION=       0.6
     TIME TO SOLVE SCF EQUATIONS=       1.2 SECONDS (       0.0 SEC/ITER)

 FINAL RHF ENERGY IS        0.0000000000 AFTER  50 ITERATIONS
 ...... END OF RHF CALCULATION ......
 CPU     0: STEP CPU TIME=    42.44 TOTAL CPU TIME=         44.7 (      0.7 MIN)
 TOTAL WALL CLOCK TIME=         47.8 SECONDS, CPU UTILIZATION IS    93.35%

 Iter=  1 iFrag=      1 EFMO=     0.000000000, DD= 1.108542314, DE= 0.000000000


 RHF      monomer     24 corr= NONE       , L1=   242, L0=   242 ID=      2

 Int dimensions: LABSIZ=1, NINTIC=  6005000 ININTIC=  3002500
 Max L1 incore=   170 current l1=   242 force dirscf= T

 DIRECT SCF CALCULATION, SCHWRZ=T   FDIFF=T,  DIRTHR=  0.00E+00 NITDIR=10

                                                                                   NONZERO     BLOCKS
[...]

          ---------------------
          ELECTROSTATIC MOMENTS
          ---------------------

 POINT   1           X           Y           Z (BOHR)    CHARGE
                 0.475325    0.293760    0.664562       -1.00 (A.U.)
         DX          DY          DZ         /D/  (DEBYE)
    59.126450  136.269328    6.485702  148.685342

 Atomic populations
     I    Z      Q
     1   5.0   5.3872754
     2   1.0   0.7256895
     3   1.0   0.7769799
     4   6.0   5.9855349
     5   1.0   0.7361244
     6   8.0   8.6376257
     7   6.0   5.6374006
     8   1.0   0.7215684
     9   7.0   8.0620326
    10   6.0   5.7406449
    11   1.0   0.6205359
    12   6.0   4.7455414
    13   8.0   8.6589401
    14   7.0   8.0601379
    15   1.0   0.5410436
    16   6.0   5.1034370
    17   8.0   8.6707693
    18   6.0   6.4834147
    19   1.0   0.7005393
    20   6.0   5.9388623
    21   1.0   0.7772852
    22   8.0   8.7130222
    23   1.0   0.6164821
    24   6.0   5.9593232
    25   1.0   0.6998626
    26   8.0   8.8474015
    27  15.0  12.9593701
    28   8.0   9.0028439
    29   8.0   8.9651927
    30   8.0   9.0880025
    31   1.0   0.4371162
 Redoing 1e ESP:                    -1

 Iter= 23 iFrag=     31 EFMOu= -1372.477494445

 RHF      monomer      8 corr= NONE       , L1=   213, L0=   213 ID=     31

 Int dimensions: LABSIZ=1, NINTIC=  6005000 ININTIC=  3002500
 Max L1 incore=   170 current l1=   213 force dirscf= T

 DIRECT SCF CALCULATION, SCHWRZ=T   FDIFF=T,  DIRTHR=  0.00E+00 NITDIR=10

                                                                                   NONZERO     BLOCKS
 ITER EX DEM     TOTAL ENERGY        E CHANGE  DENSITY CHANGE    DIIS ERROR      INTEGRALS    SKIPPED
   1  0  0    -1240.3806887889 -1240.3806887889   0.000000127   0.000000000       95904096    4325644
   2  1  0    -1240.3806887892    -0.0000000003   0.000000084   0.000000000       36977281    5789526
   3  2  0    -1240.3806887898    -0.0000000006   0.000000057   0.000000000       34402330    5831462

          -----------------
          DENSITY CONVERGED
          -----------------
     TIME TO FORM FOCK OPERATORS=       1.0 SECONDS (       0.3 SEC/ITER)
     FOCK TIME ON FIRST ITERATION=       0.6, LAST ITERATION=       0.2
     TIME TO SOLVE SCF EQUATIONS=       0.1 SECONDS (       0.0 SEC/ITER)

 FINAL RHF ENERGY IS    -1240.3806887898 AFTER   3 ITERATIONS
 ...... END OF RHF CALCULATION ......
 CPU     0: STEP CPU TIME=     9.31 TOTAL CPU TIME=      11652.5 (    194.2 MIN)
 TOTAL WALL CLOCK TIME=      11960.9 SECONDS, CPU UTILIZATION IS    97.42%

..... END OF SINGLE POINT GRADIENT .....
 CPU     0: STEP CPU TIME=     1.42 TOTAL CPU TIME=      11654.0 (    194.2 MIN)
 TOTAL WALL CLOCK TIME=      11962.3 SECONDS, CPU UTILIZATION IS    97.42%

          ---------------------
          ELECTROSTATIC MOMENTS
          ---------------------

 POINT   1           X           Y           Z (BOHR)    CHARGE
                 0.475325    0.293760    0.664562       -1.00 (A.U.)
         DX          DY          DZ         /D/  (DEBYE)
    14.813967  -13.388355  -31.133131   36.986126

 Atomic populations
     I    Z      Q
     1   5.0   5.4440747
     2   1.0   0.7502596
     3   1.0   0.7464112
     4   6.0   5.9626901
     5   1.0   0.7378823
     6   8.0   8.6798923
     7   6.0   5.6192631
     8   1.0   0.7359480
     9   7.0   8.0616694
    10   6.0   5.7584208
    11   1.0   0.6288895
    12   6.0   4.7462312
    13   8.0   8.6787930
    14   7.0   8.0266332
    15   1.0   0.5579926
    16   6.0   4.9988388
    17   8.0   8.7373263
    18   6.0   6.4711446
    19   1.0   0.7143900
    20   6.0   5.9690194
    21   1.0   0.7152989
    22   8.0   8.7163343
    23   1.0   0.6202514
    24   6.0   5.9299014
    25   1.0   0.7044797
    26   8.0   8.8538172
    27  15.0  12.9765503
    28   8.0   9.0121243
    29   8.0   8.9460031
    30   8.0   9.0866789
    31   1.0   0.4127903
 Redoing 1e ESP:                    -1

 Iter= 23 iFrag=      8 EFMOu= -1372.437377372

 RHF      monomer     32 corr= NONE       , L1=   168, L0=   168 ID=     32

 Int dimensions: LABSIZ=1, NINTIC=  6005000 ININTIC=  3002500
 Max L1 incore=   170 current l1=   168 force dirscf= F

 ITER EX DEM     TOTAL ENERGY        E CHANGE  DENSITY CHANGE     ORB. GRAD
   1  0  0     -719.0910434451  -719.0910434451   0.000000028   0.000000000
   2  1  0     -719.0910434445     0.0000000006   0.000000000   0.000000003

          -----------------
          DENSITY CONVERGED
          -----------------
     TIME TO FORM FOCK OPERATORS=       0.1 SECONDS (       0.0 SEC/ITER)
     TIME TO SOLVE SCF EQUATIONS=       0.0 SECONDS (       0.0 SEC/ITER)

 FINAL RHF ENERGY IS     -719.0910434445 AFTER   2 ITERATIONS
 ...... END OF RHF CALCULATION ......
 CPU     0: STEP CPU TIME=     3.40 TOTAL CPU TIME=      11657.4 (    194.3 MIN)
 TOTAL WALL CLOCK TIME=      11966.3 SECONDS, CPU UTILIZATION IS    97.42%

..... END OF SINGLE POINT GRADIENT .....
 CPU     0: STEP CPU TIME=     1.04 TOTAL CPU TIME=      11658.4 (    194.3 MIN)
 TOTAL WALL CLOCK TIME=      11967.4 SECONDS, CPU UTILIZATION IS    97.42%

          ---------------------
          ELECTROSTATIC MOMENTS
          ---------------------

 POINT   1           X           Y           Z (BOHR)    CHARGE
                 0.475325    0.293760    0.664562       -0.00 (A.U.)
         DX          DY          DZ         /D/  (DEBYE)
    -3.603626    3.285606   10.826276   11.873903

 Atomic populations
     I    Z      Q
     1   5.0   5.3506374
     2   1.0   0.7231151
     3   1.0   0.7967515
     4   6.0   5.9893103
     5   1.0   0.7457950
     6   8.0   8.6253064
     7   6.0   5.6193919
     8   1.0   0.7064037
     9   7.0   8.0471868
    10   6.0   5.7034156
    11   1.0   0.6460711
    12   6.0   6.4278853
    13   1.0   0.7313919
    14   6.0   4.8625897
    15   8.0   8.7419581
    16   7.0   7.8878039
    17   6.0   5.1543376
    18   7.0   7.9548052
    19   1.0   0.5566624
    20   1.0   0.6316310
    21   6.0   6.0020457
    22   1.0   0.7636760
    23   8.0   8.7321005
    24   1.0   0.5981526
    25   6.0   5.9305444
    26   1.0   0.7278354
    27   8.0   8.7106200
    28   1.0   0.6325755
 Redoing 1e ESP:                    -1

 Iter= 23 iFrag=     32 EFMOu=  -791.220663389
 CPU     0: STEP CPU TIME=     0.10 TOTAL CPU TIME=      11658.5 (    194.3 MIN)
 TOTAL WALL CLOCK TIME=      11967.5 SECONDS, CPU UTILIZATION IS    97.42%

  Monomer SCF synchronisation on iteration  23.1 took     0.0 s.
 CPU     0: STEP CPU TIME=     0.00 TOTAL CPU TIME=      11658.5 (    194.3 MIN)
 TOTAL WALL CLOCK TIME=      11967.5 SECONDS, CPU UTILIZATION IS    97.42%
 dmexch needs              4921958  words of memory.
 CPU     0: STEP CPU TIME=     0.01 TOTAL CPU TIME=      11658.5 (    194.3 MIN)
 TOTAL WALL CLOCK TIME=      11967.5 SECONDS, CPU UTILIZATION IS    97.42%

 Data exchange of    816588 words took     0.0 s.

 ------------Monomer SCF for layer 1 converged in 23 iterations!------------
 CPU     0: STEP CPU TIME=     0.00 TOTAL CPU TIME=      11658.5 (    194.3 MIN)
 TOTAL WALL CLOCK TIME=      11967.5 SECONDS, CPU UTILIZATION IS    97.42%
 CPU     0: STEP CPU TIME=     0.00 TOTAL CPU TIME=      11658.5 (    194.3 MIN)
 TOTAL WALL CLOCK TIME=      11967.5 SECONDS, CPU UTILIZATION IS    97.42%

 RHF      dimer      2      1 corr= NONE       , LL1=   486 ID=             1
 Int dimensions: LABSIZ=2, NINTIC=  4500000 ININTIC=  4500000
 Max L1 incore=   156 current l1=   477 force dirscf= T

 DIRECT SCF CALCULATION, SCHWRZ=T   FDIFF=T,  DIRTHR=  0.00E+00 NITDIR=10

                                                                                   NONZERO     BLOCKS
 ITER EX DEM     TOTAL ENERGY        E CHANGE  DENSITY CHANGE    DIIS ERROR      INTEGRALS    SKIPPED
   1  0  0    -2795.4645513532 -2795.4645513532   0.331594315   0.000000000      967507801  141253793
   2  1  0    -2795.7147601270    -0.2502087738   0.077966873   0.000000000      920840727  144565846
   3  2  0    -2795.7229211866    -0.0081610596   0.026163621   0.000000000      861917990  146351683
   4  3  0    -2795.7235848194    -0.0006636327   0.003986436   0.000000000      799831684  147723560
   5  4  0    -2795.7236629426    -0.0000781233   0.002760844   0.000000000      742767754  148898963
   6  5  0    -2795.7236759845    -0.0000130419   0.000954816   0.000000000      709318034  149524640
   7  6  0    -2795.7236790697    -0.0000030852   0.000626939   0.000000000      669406245  150309749
   8  7  0    -2795.7236800342    -0.0000009645   0.000374586   0.000000000      650776111  150642455
   9  8  0    -2795.7236803928    -0.0000003587   0.000251947   0.000000000      625845070  151123333
  10  9  0    -2795.7236805396    -0.0000001468   0.000158408   0.000000000      610021417  151414440
  11 10  0    -2795.7236806028    -0.0000000632   0.000104639   0.000000000      592034961  151755562
  12 11  0    -2795.7236806313    -0.0000000285   0.000067486   0.000000000      577241399  152027795
  13 12  0    -2795.7236806444    -0.0000000131   0.000044420   0.000000000      562085759  152309435
  14 13  0    -2795.7236806504    -0.0000000060   0.000029016   0.000000000      548841808  152554405
  15 14  0    -2795.7236806537    -0.0000000033   0.000019106   0.000000000      536033311  152790054
  16 15  0    -2795.7236806559    -0.0000000022   0.000015700   0.000000000      524488819  153002160
  17 16  0    -2795.7236806563    -0.0000000004   0.000013706   0.000000000      513385230  153203214
  18 17  0    -2795.7236806566    -0.0000000003   0.000012047   0.000000000      503287824  153386756
  19 18  0    -2795.7236806566    -0.0000000000   0.000010598   0.000000000      493690647  153559484
  20 19  0    -2795.7236806569    -0.0000000003   0.000009360   0.000000000      484856392  153717827
  21 20  0    -2795.7236806570    -0.0000000001   0.000008301   0.000000000      476476132  153865170
  22 21  0    -2795.7236806566     0.0000000004   0.000007441   0.000000000      468675939  154001837
  23 22  0    -2795.7236806567    -0.0000000001   0.000006685   0.000000000      461354275  154127917
  24 23  0    -2795.7236806570    -0.0000000002   0.000006009   0.000000000      454387806  154246973
  25 24  0    -2795.7236806569     0.0000000000   0.000005408   0.000000000      447779344  154358713
  26 25  0    -2795.7236806569     0.0000000000   0.000004869   0.000000000      441520109  154465395
  27 26  0    -2795.7236806570    -0.0000000001   0.000004387   0.000000000      435576700  154567087
  28 27  0    -2795.7236806572    -0.0000000002   0.000003953   0.000000000      429810050  154664936
  29 28  0    -2795.7236806564     0.0000000008   0.000003563   0.000000000      424249658  154759717
  30 29  0    -2795.7236806567    -0.0000000003   0.000003212   0.000000000      418818544  154851464
  31 30  0    -2795.7236806567     0.0000000000   0.000002896   0.000000000      413522535  154941363
  32 31  0    -2795.7236806579    -0.0000000012   0.000002611   0.000000000      408304141  155029402
  33 32  0    -2795.7236806569     0.0000000009   0.000002354   0.000000000      403208216  155116239
  34 33  0    -2795.7236806568     0.0000000001   0.000002123   0.000000000      398194419  155201710
  35 34  0    -2795.7236806569    -0.0000000001   0.000001914   0.000000000      393228238  155286396
  36 35  0    -2795.7236806573    -0.0000000004   0.000001726   0.000000000      388339589  155369629
  37 36  0    -2795.7236806574    -0.0000000001   0.000001556   0.000000000      383459724  155452688
  38 37  0    -2795.7236806569     0.0000000005   0.000001402   0.000000000      378582678  155535240
  39 38  0    -2795.7236806570    -0.0000000001   0.000001264   0.000000000      373707390  155616876
  40 39  0    -2795.7236806568     0.0000000002   0.000001139   0.000000000      368865375  155698000
  41 40  0    -2795.7236806569    -0.0000000001   0.000001027   0.000000000      364109242  155777792
  42 41  0    -2795.7236806567     0.0000000002   0.000000926   0.000000000      359341340  155856717
  43 42  0    -2795.7236806570    -0.0000000002   0.000000834   0.000000000      354570262  155935941
  44 43  0    -2795.7236806571    -0.0000000002   0.000000752   0.000000000      349822157  156014398
  45 44  0    -2795.7236806567     0.0000000004   0.000000677   0.000000000      345108351  156091781
  46 45  0    -2795.7236806569    -0.0000000002   0.000000610   0.000000000      340374985  156169285
  47 46  0    -2795.7236806568     0.0000000000   0.000000550   0.000000000      335682784  156246883
  48 47  0    -2795.7236806573    -0.0000000005   0.000000496   0.000000000      331020611  156323219
  49 48  0    -2795.7236806568     0.0000000005   0.000000447   0.000000000      326385884  156398478
  50 49  0    -2795.7236806569    -0.0000000000   0.000000402   0.000000000      321807958  156473161

 SCF IS UNCONVERGED, TOO MANY ITERATIONS
     TIME TO FORM FOCK OPERATORS=     159.6 SECONDS (       3.2 SEC/ITER)
     FOCK TIME ON FIRST ITERATION=       6.5, LAST ITERATION=       2.2
     TIME TO SOLVE SCF EQUATIONS=       7.0 SECONDS (       0.1 SEC/ITER)

 FINAL RHF ENERGY IS        0.0000000000 AFTER  50 ITERATIONS
 ...... END OF RHF CALCULATION ......
 CPU     0: STEP CPU TIME=   180.33 TOTAL CPU TIME=      11838.8 (    197.3 MIN)
 TOTAL WALL CLOCK TIME=      12153.6 SECONDS, CPU UTILIZATION IS    97.41%
 NO GRADIENT, SCF DID NOT CONVERGE

 Gradient requires converged SCF.

 EXECUTION OF GAMESS TERMINATED -ABNORMALLY- AT Fri Mar 22 02:42:18 2019
             15709996  WORDS OF DYNAMIC MEMORY USED
 CPU     0: STEP CPU TIME=     0.00 TOTAL CPU TIME=      11838.8 (    197.3 MIN)
 TOTAL WALL CLOCK TIME=      12153.6 SECONDS, CPU UTILIZATION IS    97.41%
 ddikick.x: application process 0 quit unexpectedly.
 ddikick.x: Sending kill signal to DDI processes.
 ddikick.x: Execution terminated due to error(s).
----- accounting info -----
Files used on the master node gollum089.lsa.umich.edu were:
-rw-r--r-- 1 hazwong frank    47210 Mar 21 23:19 /home/hazwong/test/git_repository/RNAFMO/testing/1XHP/gamess/usrc_58/1XHP_nlb_decoy_58.F05
-rw-r--r-- 1 hazwong frank      514 Mar 22 02:42 /home/hazwong/test/git_repository/RNAFMO/testing/1XHP/gamess/usrc_58/1XHP_nlb_decoy_58.F06.001
-rw-r--r-- 1 hazwong frank      514 Mar 22 02:42 /home/hazwong/test/git_repository/RNAFMO/testing/1XHP/gamess/usrc_58/1XHP_nlb_decoy_58.F06.002
-rw-r--r-- 1 hazwong frank      514 Mar 22 02:42 /home/hazwong/test/git_repository/RNAFMO/testing/1XHP/gamess/usrc_58/1XHP_nlb_decoy_58.F06.003
-rw-r--r-- 1 hazwong frank      514 Mar 22 02:42 /home/hazwong/test/git_repository/RNAFMO/testing/1XHP/gamess/usrc_58/1XHP_nlb_decoy_58.F06.004
-rw-r--r-- 1 hazwong frank      514 Mar 22 02:42 /home/hazwong/test/git_repository/RNAFMO/testing/1XHP/gamess/usrc_58/1XHP_nlb_decoy_58.F06.005
-rw-r--r-- 1 hazwong frank      514 Mar 22 02:42 /home/hazwong/test/git_repository/RNAFMO/testing/1XHP/gamess/usrc_58/1XHP_nlb_decoy_58.F06.006
-rw-r--r-- 1 hazwong frank      514 Mar 22 02:42 /home/hazwong/test/git_repository/RNAFMO/testing/1XHP/gamess/usrc_58/1XHP_nlb_decoy_58.F06.007
-rw-r--r-- 1 hazwong frank      960 Mar 21 23:20 /home/hazwong/test/git_repository/RNAFMO/testing/1XHP/gamess/usrc_58/1XHP_nlb_decoy_58.F07
-rw-r--r-- 1 hazwong frank        0 Mar 21 23:19 /home/hazwong/test/git_repository/RNAFMO/testing/1XHP/gamess/usrc_58/1XHP_nlb_decoy_58.F07.001
-rw-r--r-- 1 hazwong frank        0 Mar 21 23:19 /home/hazwong/test/git_repository/RNAFMO/testing/1XHP/gamess/usrc_58/1XHP_nlb_decoy_58.F07.002
-rw-r--r-- 1 hazwong frank        0 Mar 21 23:19 /home/hazwong/test/git_repository/RNAFMO/testing/1XHP/gamess/usrc_58/1XHP_nlb_decoy_58.F07.003
-rw-r--r-- 1 hazwong frank        0 Mar 21 23:19 /home/hazwong/test/git_repository/RNAFMO/testing/1XHP/gamess/usrc_58/1XHP_nlb_decoy_58.F07.004
-rw-r--r-- 1 hazwong frank        0 Mar 21 23:19 /home/hazwong/test/git_repository/RNAFMO/testing/1XHP/gamess/usrc_58/1XHP_nlb_decoy_58.F07.005
-rw-r--r-- 1 hazwong frank        0 Mar 21 23:19 /home/hazwong/test/git_repository/RNAFMO/testing/1XHP/gamess/usrc_58/1XHP_nlb_decoy_58.F07.006
-rw-r--r-- 1 hazwong frank        0 Mar 21 23:19 /home/hazwong/test/git_repository/RNAFMO/testing/1XHP/gamess/usrc_58/1XHP_nlb_decoy_58.F07.007
-rw-r--r-- 1 hazwong frank  2160192 Mar 22 02:39 /home/hazwong/test/git_repository/RNAFMO/testing/1XHP/gamess/usrc_58/1XHP_nlb_decoy_58.F08.000
-rw-r--r-- 1 hazwong frank  2700240 Mar 22 02:34 /home/hazwong/test/git_repository/RNAFMO/testing/1XHP/gamess/usrc_58/1XHP_nlb_decoy_58.F08.001
-rw-r--r-- 1 hazwong frank  3240288 Mar 22 02:34 /home/hazwong/test/git_repository/RNAFMO/testing/1XHP/gamess/usrc_58/1XHP_nlb_decoy_58.F08.002
-rw-r--r-- 1 hazwong frank  1800160 Mar 22 02:39 /home/hazwong/test/git_repository/RNAFMO/testing/1XHP/gamess/usrc_58/1XHP_nlb_decoy_58.F08.003
-rw-r--r-- 1 hazwong frank  3780336 Mar 22 02:39 /home/hazwong/test/git_repository/RNAFMO/testing/1XHP/gamess/usrc_58/1XHP_nlb_decoy_58.F08.004
-rw-r--r-- 1 hazwong frank  2880256 Mar 22 02:39 /home/hazwong/test/git_repository/RNAFMO/testing/1XHP/gamess/usrc_58/1XHP_nlb_decoy_58.F08.005
-rw-r--r-- 1 hazwong frank  4500400 Mar 22 02:39 /home/hazwong/test/git_repository/RNAFMO/testing/1XHP/gamess/usrc_58/1XHP_nlb_decoy_58.F08.006
-rw-r--r-- 1 hazwong frank  5040448 Mar 22 02:39 /home/hazwong/test/git_repository/RNAFMO/testing/1XHP/gamess/usrc_58/1XHP_nlb_decoy_58.F08.007
-rw-r--r-- 1 hazwong frank 14789440 Mar 22 02:42 /home/hazwong/test/git_repository/RNAFMO/testing/1XHP/gamess/usrc_58/1XHP_nlb_decoy_58.F10.000
-rw-r--r-- 1 hazwong frank        0 Mar 21 23:19 /home/hazwong/test/git_repository/RNAFMO/testing/1XHP/gamess/usrc_58/1XHP_nlb_decoy_58.F38.000
-rw-r--r-- 1 hazwong frank        0 Mar 21 23:19 /home/hazwong/test/git_repository/RNAFMO/testing/1XHP/gamess/usrc_58/1XHP_nlb_decoy_58.F38.001
-rw-r--r-- 1 hazwong frank        0 Mar 21 23:19 /home/hazwong/test/git_repository/RNAFMO/testing/1XHP/gamess/usrc_58/1XHP_nlb_decoy_58.F38.002
-rw-r--r-- 1 hazwong frank        0 Mar 21 23:19 /home/hazwong/test/git_repository/RNAFMO/testing/1XHP/gamess/usrc_58/1XHP_nlb_decoy_58.F38.003
-rw-r--r-- 1 hazwong frank        0 Mar 21 23:19 /home/hazwong/test/git_repository/RNAFMO/testing/1XHP/gamess/usrc_58/1XHP_nlb_decoy_58.F38.004
-rw-r--r-- 1 hazwong frank        0 Mar 21 23:19 /home/hazwong/test/git_repository/RNAFMO/testing/1XHP/gamess/usrc_58/1XHP_nlb_decoy_58.F38.005
-rw-r--r-- 1 hazwong frank        0 Mar 21 23:19 /home/hazwong/test/git_repository/RNAFMO/testing/1XHP/gamess/usrc_58/1XHP_nlb_decoy_58.F38.006
-rw-r--r-- 1 hazwong frank        0 Mar 21 23:19 /home/hazwong/test/git_repository/RNAFMO/testing/1XHP/gamess/usrc_58/1XHP_nlb_decoy_58.F38.007
-rw-r--r-- 1 hazwong frank 13778944 Mar 22 02:39 /home/hazwong/test/git_repository/RNAFMO/testing/1XHP/gamess/usrc_58/1XHP_nlb_decoy_58.F40.000
-rw-r--r-- 1 hazwong frank 13778944 Mar 22 02:39 /home/hazwong/test/git_repository/RNAFMO/testing/1XHP/gamess/usrc_58/1XHP_nlb_decoy_58.F40.001
-rw-r--r-- 1 hazwong frank 13778944 Mar 22 02:39 /home/hazwong/test/git_repository/RNAFMO/testing/1XHP/gamess/usrc_58/1XHP_nlb_decoy_58.F40.002
-rw-r--r-- 1 hazwong frank 13778944 Mar 22 02:39 /home/hazwong/test/git_repository/RNAFMO/testing/1XHP/gamess/usrc_58/1XHP_nlb_decoy_58.F40.003
-rw-r--r-- 1 hazwong frank 13778944 Mar 22 02:39 /home/hazwong/test/git_repository/RNAFMO/testing/1XHP/gamess/usrc_58/1XHP_nlb_decoy_58.F40.004
-rw-r--r-- 1 hazwong frank 13778944 Mar 22 02:39 /home/hazwong/test/git_repository/RNAFMO/testing/1XHP/gamess/usrc_58/1XHP_nlb_decoy_58.F40.005
-rw-r--r-- 1 hazwong frank 13778944 Mar 22 02:39 /home/hazwong/test/git_repository/RNAFMO/testing/1XHP/gamess/usrc_58/1XHP_nlb_decoy_58.F40.006
-rw-r--r-- 1 hazwong frank 13778944 Mar 22 02:39 /home/hazwong/test/git_repository/RNAFMO/testing/1XHP/gamess/usrc_58/1XHP_nlb_decoy_58.F40.007
Fri Mar 22 02:42:20 EDT 2019
0.252u 0.059s 3:22:39.12 0.0%	0+0k 0+368io 0pf+0w
