----- GAMESS execution script 'rungms' -----
This job is running on host gollum089.lsa.umich.edu
under operating system Linux at Tue Mar 19 20:06:10 EDT 2019
Available scratch disk space (Kbyte units) at beginning of the job is
Filesystem             1K-blocks        Used   Available Use% Mounted on
frank-00:/home/hazwong
                     58597580800 30529604608 28067976192  53% /home/hazwong
GAMESS temporary binary files will be written to /home/hazwong/test/git_repository/RNAFMO/testing/1XHP/gamess/usrc_36
GAMESS supplementary output files will be written to /home/hazwong/test/git_repository/RNAFMO/testing/1XHP/gamess/src_36/
Copying input file 1XHP_nlb_decoy_36.inp to your run's scratch directory...
This is a GDDI run, keeping various output files on local disks
 
Assuming a single but multicore node.
 

 Distributed Data Interface kickoff program.
 Initiating 8 compute processes on 1 nodes to run the following command:
 /export/apps/gamess/src/build//gamess.R3.x 1XHP_nlb_decoy_36 

          ******************************************************
          *         GAMESS VERSION = 30 SEP 2018 (R3)         *
          *             FROM IOWA STATE UNIVERSITY             *
          * M.W.SCHMIDT, K.K.BALDRIDGE, J.A.BOATZ, S.T.ELBERT, *
          *   M.S.GORDON, J.H.JENSEN, S.KOSEKI, N.MATSUNAGA,   *
          *          K.A.NGUYEN, S.J.SU, T.L.WINDUS,           *
          *       TOGETHER WITH M.DUPUIS, J.A.MONTGOMERY       *
          *         J.COMPUT.CHEM.  14, 1347-1363(1993)        *
          **************** 64 BIT LINUX VERSION ****************

  SINCE 1993, STUDENTS AND POSTDOCS WORKING AT IOWA STATE UNIVERSITY
  AND ALSO IN THEIR VARIOUS JOBS AFTER LEAVING ISU HAVE MADE IMPORTANT
  CONTRIBUTIONS TO THE CODE:
     IVANA ADAMOVIC, CHRISTINE AIKENS, YURI ALEXEEV, POOJA ARORA,
     ANDREY ASADCHEV, ROB BELL, PRADIPTA BANDYOPADHYAY, JONATHAN BENTZ,
     BRETT BODE, KURT BRORSEN, CALEB CARLIN, GALINA CHABAN, WEI CHEN,
     CHEOL HO CHOI, PAUL DAY, ALBERT DEFUSCO, NUWAN DESILVA, TIM DUDLEY,
     DMITRI FEDOROV, ALEX FINDLATER, GRAHAM FLETCHER, MARK FREITAG,
     KURT GLAESEMANN, ANASTASIA GUNINA,
     DAN KEMP, GRANT MERRILL, NORIYUKI MINEZAWA, JONATHAN MULLIN,
     TAKESHI NAGATA, SEAN NEDD, HEATHER NETZLOFF, BOSILJKA NJEGIC, RYAN OLSON,
     MIKE PAK, BUU PHAM,
     SPENCER PRUITT, LUKE ROSKOP, JIM SHOEMAKER, LYUDMILA SLIPCHENKO,
     TONY SMITH, SAROM SOK LEANG, JIE SONG, TETSUYA TAKETSUGU, SIMON WEBB,
     PENG XU, SOOHAENG YOO, FEDERICO ZAHARIEV

  ADDITIONAL CODE HAS BEEN PROVIDED BY COLLABORATORS IN OTHER GROUPS:
     IOWA STATE UNIVERSITY:
          JOE IVANIC, AARON WEST, LAIMUTIS BYTAUTAS, KLAUS RUEDENBERG
     UNIVERSITY OF TOKYO: KIMIHIKO HIRAO, TAKAHITO NAKAJIMA,
          TAKAO TSUNEDA, MUNEAKI KAMIYA, SUSUMU YANAGISAWA,
          KIYOSHI YAGI, MAHITO CHIBA, SEIKEN TOKURA, NAOAKI KAWAKAMI
     UNIVERSITY OF AARHUS: FRANK JENSEN
     UNIVERSITY OF IOWA: VISVALDAS KAIRYS, HUI LI
     NATIONAL INST. OF STANDARDS AND TECHNOLOGY: WALT STEVENS, DAVID GARMER
     UNIVERSITY OF PISA: BENEDETTA MENNUCCI, JACOPO TOMASI
     UNIVERSITY OF MEMPHIS: HENRY KURTZ, PRAKASHAN KORAMBATH
     UNIVERSITY OF ALBERTA: TOBY ZENG, MARIUSZ KLOBUKOWSKI
     UNIVERSITY OF NEW ENGLAND: MARK SPACKMAN
     MIE UNIVERSITY: HIROAKI UMEDA
     NAT. INST. OF ADVANCED INDUSTRIAL SCIENCE AND TECHNOLOGY: KAZUO KITAURA
     MICHIGAN STATE UNIVERSITY:
          KAROL KOWALSKI, MARTA WLOCH, JEFFREY GOUR, JESSE LUTZ,
          WEI LI, JUN SHEN, J. EMILIANO DEUSTUA, PIOTR PIECUCH
     UNIVERSITY OF MINNESOTA:
          YINAN SHU
     UNIVERSITY OF SILESIA: MONIKA MUSIAL, STANISLAW KUCHARSKI
     FACULTES UNIVERSITAIRES NOTRE-DAME DE LA PAIX:
          OLIVIER QUINET, BENOIT CHAMPAGNE
     UNIVERSITY OF CALIFORNIA - SANTA BARBARA: BERNARD KIRTMAN
     INSTITUTE FOR MOLECULAR SCIENCE:
          KAZUYA ISHIMURA, MICHIO KATOUDA, AND SHIGERU NAGASE
     UNIVERSITY OF NOTRE DAME: ANNA POMOGAEVA, DAN CHIPMAN
     KYUSHU UNIVERSITY:
          HARUYUKI NAKANO,
          FENG LONG GU, JACEK KORCHOWIEC, MARCIN MAKOWSKI, AND YURIKO AOKI,
          HIROTOSHI MORI AND EISAKU MIYOSHI
     PENNSYLVANIA STATE UNIVERSITY:
          TZVETELIN IORDANOV, CHET SWALINA, JONATHAN SKONE,
          SHARON HAMMES-SCHIFFER
     WASEDA UNIVERSITY:
          MASATO KOBAYASHI, TOMOKO AKAMA, TSUGUKI TOUMA,
          TAKESHI YOSHIKAWA, YASUHIRO IKABATA, JUNJI SEINO,
          YUYA NAKAJIMA, HIROMI NAKAI
     NANJING UNIVERSITY: SHUHUA LI
     UNIVERSITY OF NEBRASKA:
          PEIFENG SU, DEJUN SI, NANDUN THELLAMUREGE, YALI WANG, HUI LI
     UNIVERSITY OF ZURICH: ROBERTO PEVERATI, KIM BALDRIDGE
     N. COPERNICUS UNIVERSITY AND JACKSON STATE UNIVERSITY:
          MARIA BARYSZ
     UNIVERSITY OF COPENHAGEN: Jimmy Kromann, CASPER STEINMANN
     TOKYO INSTITUTE OF TECHNOLOGY: HIROYA NAKATA
     NAGOYA UNIVERSITY: YOSHIO NISHIMOTO, STEPHAN IRLE
     MOSCOW STATE UNIVERSITY: VLADIMIR MIRONOV


 PARALLEL VERSION RUNNING ON        8 PROCESSORS IN        1 NODES.

 EXECUTION OF GAMESS BEGUN Tue Mar 19 20:06:10 2019

            ECHO OF THE FIRST FEW INPUT CARDS -
 INPUT CARD>!*** FMO 5.2 (Gamess) INPUT generated by Facio 21.1.1.32 ***                    
 INPUT CARD> $CONTRL RUNTYP=OPTFMO NPRINT=-5 ISPHER=-1 MAXIT=50 $END                        
 INPUT CARD> $SYSTEM MWORDS=29 $END                                                         
 INPUT CARD> $GDDI NGROUP=1 $END                                                            
 INPUT CARD> $INTGRL NINTIC=-9000000 $END                                                   
 INPUT CARD> $SCF DIRSCF=.FALSE. NPUNCH=0 $END                                              
 INPUT CARD>!*** NumCPU : 2  MemPerNode : 512MB                                             
 INPUT CARD> $FMOPRP                                                                        
 INPUT CARD>    NAODIR=210                                                                  
 INPUT CARD>    NGRFMO(1)=1, 1, 0, 0, 0,   0, 0, 0, 0, 0                                    
 INPUT CARD>    NPRINT=9                                                                    
 INPUT CARD> $END                                                                           
 INPUT CARD> $FMO                                                                           
 INPUT CARD>      SCFTYP(1)=RHF                                                             
 INPUT CARD>      MODGRD=10                                                                 
 INPUT CARD>      MODMUL=0                                                                  
 INPUT CARD>      MAXCAO=5                                                                  
 INPUT CARD>      MAXBND=34                                                                 
 INPUT CARD>      NLAYER=1                                                                  
 INPUT CARD>      NFRAG=32                                                                  
 INPUT CARD>      ICHARG(1)=-1, -1, -1, -1, -1, -1, -1, -1, -1, -1,                         
 INPUT CARD>-1, -1, -1, -1, -1, -1, -1, -1, -1, -1,                                         
 INPUT CARD>-1, -1, -1, -1, -1, -1, -1, -1, -1, -1,                                         
 INPUT CARD>-1, 0                                                                           
 INPUT CARD>      FRGNAM(1)=Frag1, Frag2, Frag3, Frag4, Frag5, Frag6, Frag7, Frag8, Frag9, F
 INPUT CARD>      indat(1)=0                                                                
 INPUT CARD>               1   -36   0                                                      
 INPUT CARD>               37   -69   0                                                     
 INPUT CARD>               70   -103   0                                                    
 INPUT CARD>               104   -134   0                                                   
 INPUT CARD>               135   -167   0                                                   
 INPUT CARD>               168   -201   0                                                   
 INPUT CARD>               202   -231   0                                                   
 INPUT CARD>               232   -261   0                                                   
 INPUT CARD>               262   -292   0                                                   
 INPUT CARD>               293   -323   0                                                   
 INPUT CARD>               324   -354   0                                                   
 INPUT CARD>               355   -385   0                                                   
 INPUT CARD>               386   -415   0                                                   
 INPUT CARD>               416   -449   0                                                   
 INPUT CARD>               450   -480   0                                                   
 INPUT CARD>               481   -513   0                                                   
 INPUT CARD>               514   -543   0                                                   
 INPUT CARD>               544   -576   0                                                   
 INPUT CARD>               577   -609   0                                                   
 INPUT CARD>               610   -643   0                                                   
 INPUT CARD>               644   -677   0                                                   
 INPUT CARD>               678   -710   0                                                   
 INPUT CARD>               711   -740   0                                                   
 INPUT CARD>               741   -774   0                                                   


 -------------------------------------------------------------
 GROUP DDI, PROGRAMMED BY: RYAN M. OLSON AND DMITRI G. FEDOROV
        FEDOROV ET AL., J. COMPUT. CHEM., 25 (2004) 872.
 -------------------------------------------------------------

 -------------------------------------------------------
 GDDI: INITIALIZATION COMPLETED FOR GROUP     1 OF     1
 WITH     8 PROCESSES BALTYP=DLB   global rank=        0
 -------------------------------------------------------

   29000000 WORDS OF MEMORY AVAILABLE


     RUN TITLE
     ---------
  FMO calculation : XXNAMEXX                                                     

 THE POINT GROUP OF THE MOLECULE IS C1      
 THE ORDER OF THE PRINCIPAL AXIS IS     0

 ATOM   ATOMIC CHARGE
 C.1-1       6.0
 O.1-1       8.0
 N.1-1       7.0
 H.1-1       1.0
 P.1-1      15.0

     ATOMIC BASIS SET LIBRARY
     ----------------
 THE CONTRACTED PRIMITIVE FUNCTIONS HAVE BEEN UNNORMALIZED
 THE CONTRACTED BASIS FUNCTIONS ARE NOW NORMALIZED TO UNITY

  SHELL TYPE  PRIMITIVE        EXPONENT          CONTRACTION COEFFICIENT(S)

 C.1-1     

      1   S       1           172.2560000    0.061766907377
      1   S       2            25.9109000    0.358794042852
      1   S       3             5.5333500    0.700713083689

      2   L       4             3.6649800   -0.395895162119    0.236459946619
      2   L       5             0.7705450    1.215834355681    0.860618805716

      3   L       6             0.1958570    1.000000000000    1.000000000000

 O.1-1     

      4   S       7           322.0370000    0.059239393389
      4   S       8            48.4308000    0.351499960776
      4   S       9            10.4206000    0.707657921031

      5   L      10             7.4029400   -0.404453583190    0.244586106967
      5   L      11             1.5762000    1.221561761397    0.853955373466

      6   L      12             0.3736840    1.000000000000    1.000000000000

 N.1-1     

      7   S      13           242.7660000    0.059865700508
      7   S      14            36.4851000    0.352955002994
      7   S      15             7.8144900    0.706513005993

      8   L      16             5.4252200   -0.413300077430    0.237972016222
      8   L      17             1.1491500    1.224417266851    0.858953058551

      9   L      18             0.2832050    1.000000000000    1.000000000000

 H.1-1     

     10   S      19             5.4471780    0.156284978695
     10   S      20             0.8245472    0.904690876670

     11   S      21             0.1831916    1.000000000000

 P.1-1     

     12   S      22          1054.9000000    0.065540713549
     12   S      23           159.1950000    0.384036079392
     12   S      24            34.5304000    0.674541139449

     13   L      25            44.2866000   -0.102130053458    0.110851002536
     13   L      26            10.1019000    0.081592242708    0.456495010442
     13   L      27             2.7399700    0.969788507613    0.606936013883

     14   L      28             1.2186500   -0.371496021877    0.091582310217
     14   L      29             0.3955460    1.270993496131    0.934924104303

     15   L      30             0.1228110    1.000000000000    1.000000000000

 TOTAL NUMBER OF BASIS SET SHELLS             =   15
 NUMBER OF CARTESIAN GAUSSIAN BASIS FUNCTIONS =   42

     $CONTRL OPTIONS
     ---------------
 SCFTYP=RHF          RUNTYP=OPTFMO       EXETYP=RUN     
 MPLEVL=       0     CITYP =NONE         CCTYP =NONE         VBTYP =NONE    
 DFTTYP=NONE         TDDFT =NONE    
 MULT  =       1     ICHARG=       0     NZVAR =       0     COORD =UNIQUE  
 PP    =NONE         RELWFN=NONE         LOCAL =NONE         NUMGRD=       F
 ISPHER=      -1     NOSYM =       0     MAXIT =      50     UNITS =ANGS    
 PLTORB=       F     MOLPLT=       F     AIMPAC=       F     FRIEND=        
 NPRINT=      -5     IREST =       0     GEOM  =INPUT   
 NORMF =       0     NORMP =       0     ITOL  =      24     ICUT  =      12
 INTTYP=BEST         GRDTYP=BEST         QMTTOL= 1.0E-06

     $SYSTEM OPTIONS
     ---------------
  REPLICATED MEMORY=    29000000 WORDS (ON EVERY NODE).
 DISTRIBUTED MEMDDI=           0 MILLION WORDS IN AGGREGATE,
 MEMDDI DISTRIBUTED OVER   8 PROCESSORS IS           0 WORDS/PROCESSOR.
 TOTAL MEMORY REQUESTED ON EACH PROCESSOR=    29000000 WORDS.
 TIMLIM=      525600.00 MINUTES, OR     365.0 DAYS.
 PARALL= T  BALTYP=  DLB     KDIAG=    0  COREFL= F
 MXSEQ2=     300 MXSEQ3=     150  mem10=         0

          ----------------
          PROPERTIES INPUT
          ----------------

     MOMENTS            FIELD           POTENTIAL          DENSITY
 IEMOM =       1   IEFLD =       0   IEPOT =       0   IEDEN =       0
 WHERE =COMASS     WHERE =NUCLEI     WHERE =NUCLEI     WHERE =NUCLEI  
 OUTPUT=BOTH       OUTPUT=BOTH       OUTPUT=NONE       OUTPUT=BOTH    
 IEMINT=       0   IEFINT=       0                     IEDINT=       0
                                                       MORB  =       0
          EXTRAPOLATION IN EFFECT
          SOSCF IN EFFECT
 ORBITAL PRINTING OPTION: NPREO=     1 32767     2     1

     -------------------------------
     INTEGRAL TRANSFORMATION OPTIONS
     -------------------------------
     NWORD  =            0
     CUTOFF = 1.0E-10     MPTRAN =       0
     DIRTRF =       F     AOINTS =DUP     

          ----------------------
          INTEGRAL INPUT OPTIONS
          ----------------------
 NOPK  =       1 NORDER=       0 SCHWRZ=       T

 ..... DONE SETTING UP THE RUN .....
 CPU     0: STEP CPU TIME=     0.06 TOTAL CPU TIME=          0.1 (      0.0 MIN)
 TOTAL WALL CLOCK TIME=          0.1 SECONDS, CPU UTILIZATION IS    85.71%

 ALLOCATED      9030000 WORDS FOR IN CORE 2E INTEGRALS.


 """""""""""""""""""""""""""""""""""""""""""""""""""""""""""""""""""""""""""
 FMO geometry optimisation driver:

 Method=HSSUPD   UPDATE=BFGS       Hess=GUESS    LINSER=   0   NFRZ=     0
   STEP=  0.7500 STPMIN=  0.0000 STPMAX=  1.0000 STPFAC=  1.0000

 Using     28676 words of memory.
 """""""""""""""""""""""""""""""""""""""""""""""""""""""""""""""""""""""""""

 Using   590016 words of incore integral buffer to store inverse Hessian.

 CPU     0: STEP CPU TIME=     0.01 TOTAL CPU TIME=          0.1 (      0.0 MIN)
 TOTAL WALL CLOCK TIME=          0.1 SECONDS, CPU UTILIZATION IS    53.85%

                    ----------------------
                    AO INTEGRAL TECHNOLOGY
                    ----------------------
     S,P,L SHELL ROTATED AXIS INTEGRALS, REPROGRAMMED BY
        KAZUYA ISHIMURA (IMS) AND JOSE SIERRA (SYNSTAR).
     S,P,D,L SHELL ROTATED AXIS INTEGRALS PROGRAMMED BY
        KAZUYA ISHIMURA (INSTITUTE FOR MOLECULAR SCIENCE).
     S,P,D,F,G SHELL TO TOTAL QUARTET ANGULAR MOMENTUM SUM 5,
        ERIC PROGRAM BY GRAHAM FLETCHER (ELORET AND NASA ADVANCED
        SUPERCOMPUTING DIVISION, AMES RESEARCH CENTER).
     S,P,D,F,G,L SHELL GENERAL RYS QUADRATURE PROGRAMMED BY
        MICHEL DUPUIS (PACIFIC NORTHWEST NATIONAL LABORATORY).
 CPU     0: STEP CPU TIME=     0.03 TOTAL CPU TIME=          0.1 (      0.0 MIN)
 TOTAL WALL CLOCK TIME=          0.3 SECONDS, CPU UTILIZATION IS    37.04%
 CPU     0: STEP CPU TIME=     0.00 TOTAL CPU TIME=          0.1 (      0.0 MIN)
 TOTAL WALL CLOCK TIME=          0.3 SECONDS, CPU UTILIZATION IS    37.04%
 Initialising fragments
 CPU     0: STEP CPU TIME=     0.00 TOTAL CPU TIME=          0.1 (      0.0 MIN)
 TOTAL WALL CLOCK TIME=          0.3 SECONDS, CPU UTILIZATION IS    37.04%
 CPU     0: STEP CPU TIME=     0.00 TOTAL CPU TIME=          0.1 (      0.0 MIN)
 TOTAL WALL CLOCK TIME=          0.3 SECONDS, CPU UTILIZATION IS    37.04%

 -----------------------------------------------------------------------
                  The Fragment Molecular Orbital (FMO) method.
                       The program is developed at the
                     Nanoscience Research Institute (NRI)
     (formerly, Research Institute for Computational Sciences, RICS)
 National Institute of Advanced Industrial Science and Technology (AIST)
     AIST Tsukuba Central 2, Umezono 1-1-1, Tsukuba, 305-8568, Japan.

                         Version 5.3
                    coded by D. G. Fedorov and K. Kitaura,
 with contributions from N. Asada, K.R. Brorsen, M. Chiba, C. Choi, N. Minezawa,
 T. Nagata, H. Nakata, Y. Nishimoto, S.R. Pruitt, C. Steinmann, and F. Zahariev.
       All publications using the FMO method in GAMESS should reference:
          D. G. Fedorov, K. Kitaura, J. Chem. Phys. 120, 6832 (2004).
 -----------------------------------------------------------------------

 Used memory (words):      1729362
 Number of fragments:     32
 Number of layers:         1
 N-body FMO method:        2
 Number of atoms:       1024
 Total charge:           -31
 Total spin multiplicity:  1
 Number of basis sets:     1
 Number of LMO types:      2
 Number of boundaries:    31
 MonomerSCF convergence:   0.1000E-06
 Max monomerSCF iter:     30
 MonomerSCF criterion:     internal
 Max AOs per n-mer:      253      495
 Projection operator constant:  0.10E+07
 Layer electron correlation information
     nbody=  2
    SCFTYP=RHF     
    MPLEVL=  0
    DFTTYP=NONE    
     CITYP=NONE    
     CCTYP=NONE    
     TDDFT=NONE    
 FMO method: FMO2-RHF

 Bond fragmentation scheme: HOP

 FMO approximations.
    Using point charge approximation for the 2e ESP with the VdW factor   2.00
    Using ES-dimer approximation with the VdW factor   2.00
    The uniform distances will be used in ESPs.
    Van der Waals radii in Angstrom are:
       R(H  )=  1.2000
       R(O  )=  1.4000
       R(C  )=  1.5000
       R(N  )=  1.5000
       R(P  )=  1.8000
    FMO gradient: add ESP derivative terms.
    FMO gradient: add Mulliken charge derivative.
    FMO gradient: add HOP derivatives.

 FMO initial guess options.
    Using monomer density to form dimer guess.

 FMO extensions.

 FMO automation options.

 FMO SCF converger options.
    SCF convergers:
     65     65     65     65     65     65     65     65     65     65
    Fragment densities will be exchanged.

 FMO parallelisation options.
    Smart parallel load balancing: large jobs first.
    ESPs will be shell parallelised.
    Broadcast all fragments at once.
    Do the fragment initialisation in the reverse order.
    Layer 1, monomer(SCF,MP2,MCSCF) groups are:    1    0    0
    Layer 1,   dimer(SCF,ESD,MCSCF) groups are:    1    0    0

 FMO properties and print-out level.
    Interfragment CT method:    4
       Compact print-out level.
    Atomic charges will be printed.

 Array dimensions maxbnd,maxknd,maxcbs,maxcao,maxbbd are:
                      34     10     13      5     13

 --------------------------------------------------




 Starting layer 1 nbody=2
 SCFTYP=RHF     MPLEVL=0 DFTTYP=NONE    CITYP=NONE    CCTYP=NONE    TDDFT=NONE    


 CPU     0: STEP CPU TIME=     0.03 TOTAL CPU TIME=          0.1 (      0.0 MIN)
 TOTAL WALL CLOCK TIME=          0.4 SECONDS, CPU UTILIZATION IS    37.14%

 Running initial guess for monomer      32


          -------------
          GUESS OPTIONS
          -------------
          GUESS =HUCKEL            NORB  =       0          NORDER=       0
          MIX   =       F          PRTMO =       F          PUNMO =       F
          TOLZ  = 1.0E-08          TOLE  = 1.0E-05
          SYMDEN=       F          PURIFY=       F

 INITIAL GUESS ORBITALS GENERATED BY HUCKEL   ROUTINE.
 HUCKEL GUESS REQUIRES    259752 WORDS.

 SYMMETRIES FOR INITIAL GUESS ORBITALS FOLLOW.   BOTH SET(S).
    59 ORBITALS ARE OCCUPIED (   16 CORE ORBITALS).
    17=A       18=A       19=A       20=A       21=A       22=A       23=A   
    24=A       25=A       26=A       27=A       28=A       29=A       30=A   
    31=A       32=A       33=A       34=A       35=A       36=A       37=A   
    38=A       39=A       40=A       41=A       42=A       43=A       44=A   
    45=A       46=A       47=A       48=A       49=A       50=A       51=A   
    52=A       53=A       54=A       55=A       56=A       57=A       58=A   
    59=A       60=A       61=A       62=A       63=A       64=A       65=A   
    66=A       67=A       68=A       69=A   
 ...... END OF INITIAL ORBITAL SELECTION ......
 CPU     0: STEP CPU TIME=     0.03 TOTAL CPU TIME=          0.2 (      0.0 MIN)
 TOTAL WALL CLOCK TIME=          0.4 SECONDS, CPU UTILIZATION IS    38.10%

 Running initial guess for monomer      31


          -------------
          GUESS OPTIONS
          -------------
          GUESS =HUCKEL            NORB  =       0          NORDER=       0
          MIX   =       F          PRTMO =       F          PUNMO =       F
          TOLZ  = 1.0E-08          TOLE  = 1.0E-05
          SYMDEN=       F          PURIFY=       F

 INITIAL GUESS ORBITALS GENERATED BY HUCKEL   ROUTINE.
 HUCKEL GUESS REQUIRES    405894 WORDS.

 SYMMETRIES FOR INITIAL GUESS ORBITALS FOLLOW.   BOTH SET(S).
    79 ORBITALS ARE OCCUPIED (   24 CORE ORBITALS).
    25=A       26=A       27=A       28=A       29=A       30=A       31=A   
    32=A       33=A       34=A       35=A       36=A       37=A       38=A   
    39=A       40=A       41=A       42=A       43=A       44=A       45=A   
    46=A       47=A       48=A       49=A       50=A       51=A       52=A   
    53=A       54=A       55=A       56=A       57=A       58=A       59=A   
    60=A       61=A       62=A       63=A       64=A       65=A       66=A   
    67=A       68=A       69=A       70=A       71=A       72=A       73=A   
    74=A       75=A       76=A       77=A       78=A       79=A       80=A   
    81=A       82=A       83=A       84=A       85=A       86=A       87=A   
    88=A       89=A   
 ...... END OF INITIAL ORBITAL SELECTION ......
 CPU     0: STEP CPU TIME=     0.06 TOTAL CPU TIME=          0.2 (      0.0 MIN)
 TOTAL WALL CLOCK TIME=          0.5 SECONDS, CPU UTILIZATION IS    41.51%

 Running initial guess for monomer      30


          -------------
          GUESS OPTIONS
          -------------
          GUESS =HUCKEL            NORB  =       0          NORDER=       0
          MIX   =       F          PRTMO =       F          PUNMO =       F
          TOLZ  = 1.0E-08          TOLE  = 1.0E-05
          SYMDEN=       F          PURIFY=       F

 INITIAL GUESS ORBITALS GENERATED BY HUCKEL   ROUTINE.
 HUCKEL GUESS REQUIRES    405894 WORDS.

 SYMMETRIES FOR INITIAL GUESS ORBITALS FOLLOW.   BOTH SET(S).
    79 ORBITALS ARE OCCUPIED (   24 CORE ORBITALS).
    25=A       26=A       27=A       28=A       29=A       30=A       31=A   
    32=A       33=A       34=A       35=A       36=A       37=A       38=A   
    39=A       40=A       41=A       42=A       43=A       44=A       45=A   
    46=A       47=A       48=A       49=A       50=A       51=A       52=A   
    53=A       54=A       55=A       56=A       57=A       58=A       59=A   
    60=A       61=A       62=A       63=A       64=A       65=A       66=A   
    67=A       68=A       69=A       70=A       71=A       72=A       73=A   
    74=A       75=A       76=A       77=A       78=A       79=A       80=A   
    81=A       82=A       83=A       84=A       85=A       86=A       87=A   
    88=A       89=A   
 ...... END OF INITIAL ORBITAL SELECTION ......
 CPU     0: STEP CPU TIME=     0.05 TOTAL CPU TIME=          0.3 (      0.0 MIN)
 TOTAL WALL CLOCK TIME=          0.7 SECONDS, CPU UTILIZATION IS    41.54%

 Running initial guess for monomer      29


          -------------
          GUESS OPTIONS
          -------------
          GUESS =HUCKEL            NORB  =       0          NORDER=       0
          MIX   =       F          PRTMO =       F          PUNMO =       F
          TOLZ  = 1.0E-08          TOLE  = 1.0E-05
          SYMDEN=       F          PURIFY=       F

 INITIAL GUESS ORBITALS GENERATED BY HUCKEL   ROUTINE.
 HUCKEL GUESS REQUIRES    520404 WORDS.

 SYMMETRIES FOR INITIAL GUESS ORBITALS FOLLOW.   BOTH SET(S).
    89 ORBITALS ARE OCCUPIED (   27 CORE ORBITALS).
    28=A       29=A       30=A       31=A       32=A       33=A       34=A   
    35=A       36=A       37=A       38=A       39=A       40=A       41=A   
    42=A       43=A       44=A       45=A       46=A       47=A       48=A   
    49=A       50=A       51=A       52=A       53=A       54=A       55=A   
    56=A       57=A       58=A       59=A       60=A       61=A       62=A   
    63=A       64=A       65=A       66=A       67=A       68=A       69=A   
    70=A       71=A       72=A       73=A       74=A       75=A       76=A   
    77=A       78=A       79=A       80=A       81=A       82=A       83=A   
    84=A       85=A       86=A       87=A       88=A       89=A       90=A   
    91=A       92=A       93=A       94=A       95=A       96=A       97=A   
    98=A       99=A   
 ...... END OF INITIAL ORBITAL SELECTION ......
 CPU     0: STEP CPU TIME=     0.08 TOTAL CPU TIME=          0.3 (      0.0 MIN)
 TOTAL WALL CLOCK TIME=          0.8 SECONDS, CPU UTILIZATION IS    43.75%

 Running initial guess for monomer      28


          -------------
          GUESS OPTIONS
          -------------
          GUESS =HUCKEL            NORB  =       0          NORDER=       0
          MIX   =       F          PRTMO =       F          PUNMO =       F
          TOLZ  = 1.0E-08          TOLE  = 1.0E-05
          SYMDEN=       F          PURIFY=       F

 INITIAL GUESS ORBITALS GENERATED BY HUCKEL   ROUTINE.
 HUCKEL GUESS REQUIRES    413697 WORDS.

 SYMMETRIES FOR INITIAL GUESS ORBITALS FOLLOW.   BOTH SET(S).
    79 ORBITALS ARE OCCUPIED (   24 CORE ORBITALS).
    25=A       26=A       27=A       28=A       29=A       30=A       31=A   
    32=A       33=A       34=A       35=A       36=A       37=A       38=A   
    39=A       40=A       41=A       42=A       43=A       44=A       45=A   
    46=A       47=A       48=A       49=A       50=A       51=A       52=A   
    53=A       54=A       55=A       56=A       57=A       58=A       59=A   
    60=A       61=A       62=A       63=A       64=A       65=A       66=A   
    67=A       68=A       69=A       70=A       71=A       72=A       73=A   
    74=A       75=A       76=A       77=A       78=A       79=A       80=A   
    81=A       82=A       83=A       84=A       85=A       86=A       87=A   
    88=A       89=A   
 ...... END OF INITIAL ORBITAL SELECTION ......
 CPU     0: STEP CPU TIME=     0.05 TOTAL CPU TIME=          0.4 (      0.0 MIN)
 TOTAL WALL CLOCK TIME=          0.9 SECONDS, CPU UTILIZATION IS    42.55%

 Running initial guess for monomer      27


          -------------
          GUESS OPTIONS
          -------------
          GUESS =HUCKEL            NORB  =       0          NORDER=       0
          MIX   =       F          PRTMO =       F          PUNMO =       F
          TOLZ  = 1.0E-08          TOLE  = 1.0E-05
          SYMDEN=       F          PURIFY=       F

 INITIAL GUESS ORBITALS GENERATED BY HUCKEL   ROUTINE.
 HUCKEL GUESS REQUIRES    413697 WORDS.

 SYMMETRIES FOR INITIAL GUESS ORBITALS FOLLOW.   BOTH SET(S).
    79 ORBITALS ARE OCCUPIED (   24 CORE ORBITALS).
    25=A       26=A       27=A       28=A       29=A       30=A       31=A   
    32=A       33=A       34=A       35=A       36=A       37=A       38=A   
    39=A       40=A       41=A       42=A       43=A       44=A       45=A   
    46=A       47=A       48=A       49=A       50=A       51=A       52=A   
    53=A       54=A       55=A       56=A       57=A       58=A       59=A   
    60=A       61=A       62=A       63=A       64=A       65=A       66=A   
    67=A       68=A       69=A       70=A       71=A       72=A       73=A   
    74=A       75=A       76=A       77=A       78=A       79=A       80=A   
    81=A       82=A       83=A       84=A       85=A       86=A       87=A   
    88=A       89=A   
 ...... END OF INITIAL ORBITAL SELECTION ......
 CPU     0: STEP CPU TIME=     0.06 TOTAL CPU TIME=          0.5 (      0.0 MIN)
 TOTAL WALL CLOCK TIME=          1.1 SECONDS, CPU UTILIZATION IS    43.40%

 Running initial guess for monomer      26


          -------------
          GUESS OPTIONS
          -------------
          GUESS =HUCKEL            NORB  =       0          NORDER=       0
          MIX   =       F          PRTMO =       F          PUNMO =       F
          TOLZ  = 1.0E-08          TOLE  = 1.0E-05
          SYMDEN=       F          PURIFY=       F

 INITIAL GUESS ORBITALS GENERATED BY HUCKEL   ROUTINE.
 HUCKEL GUESS REQUIRES    483461 WORDS.

 SYMMETRIES FOR INITIAL GUESS ORBITALS FOLLOW.   BOTH SET(S).
    85 ORBITALS ARE OCCUPIED (   26 CORE ORBITALS).
    27=A       28=A       29=A       30=A       31=A       32=A       33=A   
    34=A       35=A       36=A       37=A       38=A       39=A       40=A   
    41=A       42=A       43=A       44=A       45=A       46=A       47=A   
    48=A       49=A       50=A       51=A       52=A       53=A       54=A   
    55=A       56=A       57=A       58=A       59=A       60=A       61=A   
    62=A       63=A       64=A       65=A       66=A       67=A       68=A   
    69=A       70=A       71=A       72=A       73=A       74=A       75=A   
    76=A       77=A       78=A       79=A       80=A       81=A       82=A   
    83=A       84=A       85=A       86=A       87=A       88=A       89=A   
    90=A       91=A       92=A       93=A       94=A       95=A   
 ...... END OF INITIAL ORBITAL SELECTION ......
 CPU     0: STEP CPU TIME=     0.07 TOTAL CPU TIME=          0.5 (      0.0 MIN)
 TOTAL WALL CLOCK TIME=          1.2 SECONDS, CPU UTILIZATION IS    44.54%

 Running initial guess for monomer      25


          -------------
          GUESS OPTIONS
          -------------
          GUESS =HUCKEL            NORB  =       0          NORDER=       0
          MIX   =       F          PRTMO =       F          PUNMO =       F
          TOLZ  = 1.0E-08          TOLE  = 1.0E-05
          SYMDEN=       F          PURIFY=       F

 INITIAL GUESS ORBITALS GENERATED BY HUCKEL   ROUTINE.
 HUCKEL GUESS REQUIRES    483461 WORDS.

 SYMMETRIES FOR INITIAL GUESS ORBITALS FOLLOW.   BOTH SET(S).
    85 ORBITALS ARE OCCUPIED (   26 CORE ORBITALS).
    27=A       28=A       29=A       30=A       31=A       32=A       33=A   
    34=A       35=A       36=A       37=A       38=A       39=A       40=A   
    41=A       42=A       43=A       44=A       45=A       46=A       47=A   
    48=A       49=A       50=A       51=A       52=A       53=A       54=A   
    55=A       56=A       57=A       58=A       59=A       60=A       61=A   
    62=A       63=A       64=A       65=A       66=A       67=A       68=A   
    69=A       70=A       71=A       72=A       73=A       74=A       75=A   
    76=A       77=A       78=A       79=A       80=A       81=A       82=A   
    83=A       84=A       85=A       86=A       87=A       88=A       89=A   
    90=A       91=A       92=A       93=A       94=A       95=A   
 ...... END OF INITIAL ORBITAL SELECTION ......
 CPU     0: STEP CPU TIME=     0.07 TOTAL CPU TIME=          0.6 (      0.0 MIN)
 TOTAL WALL CLOCK TIME=          1.4 SECONDS, CPU UTILIZATION IS    44.44%

 Running initial guess for monomer      24


          -------------
          GUESS OPTIONS
          -------------
          GUESS =HUCKEL            NORB  =       0          NORDER=       0
          MIX   =       F          PRTMO =       F          PUNMO =       F
          TOLZ  = 1.0E-08          TOLE  = 1.0E-05
          SYMDEN=       F          PURIFY=       F

 INITIAL GUESS ORBITALS GENERATED BY HUCKEL   ROUTINE.
 HUCKEL GUESS REQUIRES    520404 WORDS.

 SYMMETRIES FOR INITIAL GUESS ORBITALS FOLLOW.   BOTH SET(S).
    89 ORBITALS ARE OCCUPIED (   27 CORE ORBITALS).
    28=A       29=A       30=A       31=A       32=A       33=A       34=A   
    35=A       36=A       37=A       38=A       39=A       40=A       41=A   
    42=A       43=A       44=A       45=A       46=A       47=A       48=A   
    49=A       50=A       51=A       52=A       53=A       54=A       55=A   
    56=A       57=A       58=A       59=A       60=A       61=A       62=A   
    63=A       64=A       65=A       66=A       67=A       68=A       69=A   
    70=A       71=A       72=A       73=A       74=A       75=A       76=A   
    77=A       78=A       79=A       80=A       81=A       82=A       83=A   
    84=A       85=A       86=A       87=A       88=A       89=A       90=A   
    91=A       92=A       93=A       94=A       95=A       96=A       97=A   
    98=A       99=A   
 ...... END OF INITIAL ORBITAL SELECTION ......
 CPU     0: STEP CPU TIME=     0.08 TOTAL CPU TIME=          0.7 (      0.0 MIN)
 TOTAL WALL CLOCK TIME=          1.5 SECONDS, CPU UTILIZATION IS    45.33%

 Running initial guess for monomer      23


          -------------
          GUESS OPTIONS
          -------------
          GUESS =HUCKEL            NORB  =       0          NORDER=       0
          MIX   =       F          PRTMO =       F          PUNMO =       F
          TOLZ  = 1.0E-08          TOLE  = 1.0E-05
          SYMDEN=       F          PURIFY=       F

 INITIAL GUESS ORBITALS GENERATED BY HUCKEL   ROUTINE.
 HUCKEL GUESS REQUIRES    405894 WORDS.

 SYMMETRIES FOR INITIAL GUESS ORBITALS FOLLOW.   BOTH SET(S).
    79 ORBITALS ARE OCCUPIED (   24 CORE ORBITALS).
    25=A       26=A       27=A       28=A       29=A       30=A       31=A   
    32=A       33=A       34=A       35=A       36=A       37=A       38=A   
    39=A       40=A       41=A       42=A       43=A       44=A       45=A   
    46=A       47=A       48=A       49=A       50=A       51=A       52=A   
    53=A       54=A       55=A       56=A       57=A       58=A       59=A   
    60=A       61=A       62=A       63=A       64=A       65=A       66=A   
    67=A       68=A       69=A       70=A       71=A       72=A       73=A   
    74=A       75=A       76=A       77=A       78=A       79=A       80=A   
    81=A       82=A       83=A       84=A       85=A       86=A       87=A   
    88=A       89=A   
 ...... END OF INITIAL ORBITAL SELECTION ......
 CPU     0: STEP CPU TIME=     0.06 TOTAL CPU TIME=          0.7 (      0.0 MIN)
 TOTAL WALL CLOCK TIME=          1.6 SECONDS, CPU UTILIZATION IS    45.68%

 Running initial guess for monomer      22


          -------------
          GUESS OPTIONS
          -------------
          GUESS =HUCKEL            NORB  =       0          NORDER=       0
          MIX   =       F          PRTMO =       F          PUNMO =       F
          TOLZ  = 1.0E-08          TOLE  = 1.0E-05
          SYMDEN=       F          PURIFY=       F

 INITIAL GUESS ORBITALS GENERATED BY HUCKEL   ROUTINE.
 HUCKEL GUESS REQUIRES    483461 WORDS.

 SYMMETRIES FOR INITIAL GUESS ORBITALS FOLLOW.   BOTH SET(S).
    85 ORBITALS ARE OCCUPIED (   26 CORE ORBITALS).
    27=A       28=A       29=A       30=A       31=A       32=A       33=A   
    34=A       35=A       36=A       37=A       38=A       39=A       40=A   
    41=A       42=A       43=A       44=A       45=A       46=A       47=A   
    48=A       49=A       50=A       51=A       52=A       53=A       54=A   
    55=A       56=A       57=A       58=A       59=A       60=A       61=A   
    62=A       63=A       64=A       65=A       66=A       67=A       68=A   
    69=A       70=A       71=A       72=A       73=A       74=A       75=A   
    76=A       77=A       78=A       79=A       80=A       81=A       82=A   
    83=A       84=A       85=A       86=A       87=A       88=A       89=A   
    90=A       91=A       92=A       93=A       94=A       95=A   
 ...... END OF INITIAL ORBITAL SELECTION ......
 CPU     0: STEP CPU TIME=     0.07 TOTAL CPU TIME=          0.8 (      0.0 MIN)
 TOTAL WALL CLOCK TIME=          1.8 SECONDS, CPU UTILIZATION IS    45.76%

 Running initial guess for monomer      21


          -------------
          GUESS OPTIONS
          -------------
          GUESS =HUCKEL            NORB  =       0          NORDER=       0
          MIX   =       F          PRTMO =       F          PUNMO =       F
          TOLZ  = 1.0E-08          TOLE  = 1.0E-05
          SYMDEN=       F          PURIFY=       F

 INITIAL GUESS ORBITALS GENERATED BY HUCKEL   ROUTINE.
 HUCKEL GUESS REQUIRES    520404 WORDS.

 SYMMETRIES FOR INITIAL GUESS ORBITALS FOLLOW.   BOTH SET(S).
    89 ORBITALS ARE OCCUPIED (   27 CORE ORBITALS).
    28=A       29=A       30=A       31=A       32=A       33=A       34=A   
    35=A       36=A       37=A       38=A       39=A       40=A       41=A   
    42=A       43=A       44=A       45=A       46=A       47=A       48=A   
    49=A       50=A       51=A       52=A       53=A       54=A       55=A   
    56=A       57=A       58=A       59=A       60=A       61=A       62=A   
    63=A       64=A       65=A       66=A       67=A       68=A       69=A   
    70=A       71=A       72=A       73=A       74=A       75=A       76=A   
    77=A       78=A       79=A       80=A       81=A       82=A       83=A   
    84=A       85=A       86=A       87=A       88=A       89=A       90=A   
    91=A       92=A       93=A       94=A       95=A       96=A       97=A   
    98=A       99=A   
 ...... END OF INITIAL ORBITAL SELECTION ......
 CPU     0: STEP CPU TIME=     0.07 TOTAL CPU TIME=          0.9 (      0.0 MIN)
 TOTAL WALL CLOCK TIME=          1.9 SECONDS, CPU UTILIZATION IS    45.83%

 Running initial guess for monomer      20


          -------------
          GUESS OPTIONS
          -------------
          GUESS =HUCKEL            NORB  =       0          NORDER=       0
          MIX   =       F          PRTMO =       F          PUNMO =       F
          TOLZ  = 1.0E-08          TOLE  = 1.0E-05
          SYMDEN=       F          PURIFY=       F

 INITIAL GUESS ORBITALS GENERATED BY HUCKEL   ROUTINE.
 HUCKEL GUESS REQUIRES    520404 WORDS.

 SYMMETRIES FOR INITIAL GUESS ORBITALS FOLLOW.   BOTH SET(S).
    89 ORBITALS ARE OCCUPIED (   27 CORE ORBITALS).
    28=A       29=A       30=A       31=A       32=A       33=A       34=A   
    35=A       36=A       37=A       38=A       39=A       40=A       41=A   
    42=A       43=A       44=A       45=A       46=A       47=A       48=A   
    49=A       50=A       51=A       52=A       53=A       54=A       55=A   
    56=A       57=A       58=A       59=A       60=A       61=A       62=A   
    63=A       64=A       65=A       66=A       67=A       68=A       69=A   
    70=A       71=A       72=A       73=A       74=A       75=A       76=A   
    77=A       78=A       79=A       80=A       81=A       82=A       83=A   
    84=A       85=A       86=A       87=A       88=A       89=A       90=A   
    91=A       92=A       93=A       94=A       95=A       96=A       97=A   
    98=A       99=A   
 ...... END OF INITIAL ORBITAL SELECTION ......
 CPU     0: STEP CPU TIME=     0.07 TOTAL CPU TIME=          0.9 (      0.0 MIN)
 TOTAL WALL CLOCK TIME=          2.1 SECONDS, CPU UTILIZATION IS    45.89%

 Running initial guess for monomer      19


          -------------
          GUESS OPTIONS
          -------------
          GUESS =HUCKEL            NORB  =       0          NORDER=       0
          MIX   =       F          PRTMO =       F          PUNMO =       F
          TOLZ  = 1.0E-08          TOLE  = 1.0E-05
          SYMDEN=       F          PURIFY=       F

 INITIAL GUESS ORBITALS GENERATED BY HUCKEL   ROUTINE.
 HUCKEL GUESS REQUIRES    483461 WORDS.

 SYMMETRIES FOR INITIAL GUESS ORBITALS FOLLOW.   BOTH SET(S).
    85 ORBITALS ARE OCCUPIED (   26 CORE ORBITALS).
    27=A       28=A       29=A       30=A       31=A       32=A       33=A   
    34=A       35=A       36=A       37=A       38=A       39=A       40=A   
    41=A       42=A       43=A       44=A       45=A       46=A       47=A   
    48=A       49=A       50=A       51=A       52=A       53=A       54=A   
    55=A       56=A       57=A       58=A       59=A       60=A       61=A   
    62=A       63=A       64=A       65=A       66=A       67=A       68=A   
    69=A       70=A       71=A       72=A       73=A       74=A       75=A   
    76=A       77=A       78=A       79=A       80=A       81=A       82=A   
    83=A       84=A       85=A       86=A       87=A       88=A       89=A   
    90=A       91=A       92=A       93=A       94=A       95=A   
 ...... END OF INITIAL ORBITAL SELECTION ......
 CPU     0: STEP CPU TIME=     0.07 TOTAL CPU TIME=          1.0 (      0.0 MIN)
 TOTAL WALL CLOCK TIME=          2.2 SECONDS, CPU UTILIZATION IS    45.95%

 Running initial guess for monomer      18


          -------------
          GUESS OPTIONS
          -------------
          GUESS =HUCKEL            NORB  =       0          NORDER=       0
          MIX   =       F          PRTMO =       F          PUNMO =       F
          TOLZ  = 1.0E-08          TOLE  = 1.0E-05
          SYMDEN=       F          PURIFY=       F

 INITIAL GUESS ORBITALS GENERATED BY HUCKEL   ROUTINE.
 HUCKEL GUESS REQUIRES    483461 WORDS.

 SYMMETRIES FOR INITIAL GUESS ORBITALS FOLLOW.   BOTH SET(S).
    85 ORBITALS ARE OCCUPIED (   26 CORE ORBITALS).
    27=A       28=A       29=A       30=A       31=A       32=A       33=A   
    34=A       35=A       36=A       37=A       38=A       39=A       40=A   
    41=A       42=A       43=A       44=A       45=A       46=A       47=A   
    48=A       49=A       50=A       51=A       52=A       53=A       54=A   
    55=A       56=A       57=A       58=A       59=A       60=A       61=A   
    62=A       63=A       64=A       65=A       66=A       67=A       68=A   
    69=A       70=A       71=A       72=A       73=A       74=A       75=A   
    76=A       77=A       78=A       79=A       80=A       81=A       82=A   
    83=A       84=A       85=A       86=A       87=A       88=A       89=A   
    90=A       91=A       92=A       93=A       94=A       95=A   
 ...... END OF INITIAL ORBITAL SELECTION ......
 CPU     0: STEP CPU TIME=     0.07 TOTAL CPU TIME=          1.1 (      0.0 MIN)
 TOTAL WALL CLOCK TIME=          2.4 SECONDS, CPU UTILIZATION IS    46.19%

 Running initial guess for monomer      17


          -------------
          GUESS OPTIONS
          -------------
          GUESS =HUCKEL            NORB  =       0          NORDER=       0
          MIX   =       F          PRTMO =       F          PUNMO =       F
          TOLZ  = 1.0E-08          TOLE  = 1.0E-05
          SYMDEN=       F          PURIFY=       F

 INITIAL GUESS ORBITALS GENERATED BY HUCKEL   ROUTINE.
 HUCKEL GUESS REQUIRES    405894 WORDS.

 SYMMETRIES FOR INITIAL GUESS ORBITALS FOLLOW.   BOTH SET(S).
    79 ORBITALS ARE OCCUPIED (   24 CORE ORBITALS).
    25=A       26=A       27=A       28=A       29=A       30=A       31=A   
    32=A       33=A       34=A       35=A       36=A       37=A       38=A   
    39=A       40=A       41=A       42=A       43=A       44=A       45=A   
    46=A       47=A       48=A       49=A       50=A       51=A       52=A   
    53=A       54=A       55=A       56=A       57=A       58=A       59=A   
    60=A       61=A       62=A       63=A       64=A       65=A       66=A   
    67=A       68=A       69=A       70=A       71=A       72=A       73=A   
    74=A       75=A       76=A       77=A       78=A       79=A       80=A   
    81=A       82=A       83=A       84=A       85=A       86=A       87=A   
    88=A       89=A   
 ...... END OF INITIAL ORBITAL SELECTION ......
 CPU     0: STEP CPU TIME=     0.06 TOTAL CPU TIME=          1.1 (      0.0 MIN)
 TOTAL WALL CLOCK TIME=          2.5 SECONDS, CPU UTILIZATION IS    46.37%

 Running initial guess for monomer      16


          -------------
          GUESS OPTIONS
          -------------
          GUESS =HUCKEL            NORB  =       0          NORDER=       0
          MIX   =       F          PRTMO =       F          PUNMO =       F
          TOLZ  = 1.0E-08          TOLE  = 1.0E-05
          SYMDEN=       F          PURIFY=       F

 INITIAL GUESS ORBITALS GENERATED BY HUCKEL   ROUTINE.
 HUCKEL GUESS REQUIRES    483461 WORDS.

 SYMMETRIES FOR INITIAL GUESS ORBITALS FOLLOW.   BOTH SET(S).
    85 ORBITALS ARE OCCUPIED (   26 CORE ORBITALS).
    27=A       28=A       29=A       30=A       31=A       32=A       33=A   
    34=A       35=A       36=A       37=A       38=A       39=A       40=A   
    41=A       42=A       43=A       44=A       45=A       46=A       47=A   
    48=A       49=A       50=A       51=A       52=A       53=A       54=A   
    55=A       56=A       57=A       58=A       59=A       60=A       61=A   
    62=A       63=A       64=A       65=A       66=A       67=A       68=A   
    69=A       70=A       71=A       72=A       73=A       74=A       75=A   
    76=A       77=A       78=A       79=A       80=A       81=A       82=A   
    83=A       84=A       85=A       86=A       87=A       88=A       89=A   
    90=A       91=A       92=A       93=A       94=A       95=A   
 ...... END OF INITIAL ORBITAL SELECTION ......
 CPU     0: STEP CPU TIME=     0.07 TOTAL CPU TIME=          1.2 (      0.0 MIN)
 TOTAL WALL CLOCK TIME=          2.6 SECONDS, CPU UTILIZATION IS    46.39%

 Running initial guess for monomer      15


          -------------
          GUESS OPTIONS
          -------------
          GUESS =HUCKEL            NORB  =       0          NORDER=       0
          MIX   =       F          PRTMO =       F          PUNMO =       F
          TOLZ  = 1.0E-08          TOLE  = 1.0E-05
          SYMDEN=       F          PURIFY=       F

 INITIAL GUESS ORBITALS GENERATED BY HUCKEL   ROUTINE.
 HUCKEL GUESS REQUIRES    413697 WORDS.

 SYMMETRIES FOR INITIAL GUESS ORBITALS FOLLOW.   BOTH SET(S).
    79 ORBITALS ARE OCCUPIED (   24 CORE ORBITALS).
    25=A       26=A       27=A       28=A       29=A       30=A       31=A   
    32=A       33=A       34=A       35=A       36=A       37=A       38=A   
    39=A       40=A       41=A       42=A       43=A       44=A       45=A   
    46=A       47=A       48=A       49=A       50=A       51=A       52=A   
    53=A       54=A       55=A       56=A       57=A       58=A       59=A   
    60=A       61=A       62=A       63=A       64=A       65=A       66=A   
    67=A       68=A       69=A       70=A       71=A       72=A       73=A   
    74=A       75=A       76=A       77=A       78=A       79=A       80=A   
    81=A       82=A       83=A       84=A       85=A       86=A       87=A   
    88=A       89=A   
 ...... END OF INITIAL ORBITAL SELECTION ......
 CPU     0: STEP CPU TIME=     0.06 TOTAL CPU TIME=          1.3 (      0.0 MIN)
 TOTAL WALL CLOCK TIME=          2.8 SECONDS, CPU UTILIZATION IS    46.38%

 Running initial guess for monomer      14


          -------------
          GUESS OPTIONS
          -------------
          GUESS =HUCKEL            NORB  =       0          NORDER=       0
          MIX   =       F          PRTMO =       F          PUNMO =       F
          TOLZ  = 1.0E-08          TOLE  = 1.0E-05
          SYMDEN=       F          PURIFY=       F

 INITIAL GUESS ORBITALS GENERATED BY HUCKEL   ROUTINE.
 HUCKEL GUESS REQUIRES    520404 WORDS.

 SYMMETRIES FOR INITIAL GUESS ORBITALS FOLLOW.   BOTH SET(S).
    89 ORBITALS ARE OCCUPIED (   27 CORE ORBITALS).
    28=A       29=A       30=A       31=A       32=A       33=A       34=A   
    35=A       36=A       37=A       38=A       39=A       40=A       41=A   
    42=A       43=A       44=A       45=A       46=A       47=A       48=A   
    49=A       50=A       51=A       52=A       53=A       54=A       55=A   
    56=A       57=A       58=A       59=A       60=A       61=A       62=A   
    63=A       64=A       65=A       66=A       67=A       68=A       69=A   
    70=A       71=A       72=A       73=A       74=A       75=A       76=A   
    77=A       78=A       79=A       80=A       81=A       82=A       83=A   
    84=A       85=A       86=A       87=A       88=A       89=A       90=A   
    91=A       92=A       93=A       94=A       95=A       96=A       97=A   
    98=A       99=A   
 ...... END OF INITIAL ORBITAL SELECTION ......
 CPU     0: STEP CPU TIME=     0.07 TOTAL CPU TIME=          1.4 (      0.0 MIN)
 TOTAL WALL CLOCK TIME=          2.9 SECONDS, CPU UTILIZATION IS    46.55%

 Running initial guess for monomer      13


          -------------
          GUESS OPTIONS
          -------------
          GUESS =HUCKEL            NORB  =       0          NORDER=       0
          MIX   =       F          PRTMO =       F          PUNMO =       F
          TOLZ  = 1.0E-08          TOLE  = 1.0E-05
          SYMDEN=       F          PURIFY=       F

 INITIAL GUESS ORBITALS GENERATED BY HUCKEL   ROUTINE.
 HUCKEL GUESS REQUIRES    405894 WORDS.

 SYMMETRIES FOR INITIAL GUESS ORBITALS FOLLOW.   BOTH SET(S).
    79 ORBITALS ARE OCCUPIED (   24 CORE ORBITALS).
    25=A       26=A       27=A       28=A       29=A       30=A       31=A   
    32=A       33=A       34=A       35=A       36=A       37=A       38=A   
    39=A       40=A       41=A       42=A       43=A       44=A       45=A   
    46=A       47=A       48=A       49=A       50=A       51=A       52=A   
    53=A       54=A       55=A       56=A       57=A       58=A       59=A   
    60=A       61=A       62=A       63=A       64=A       65=A       66=A   
    67=A       68=A       69=A       70=A       71=A       72=A       73=A   
    74=A       75=A       76=A       77=A       78=A       79=A       80=A   
    81=A       82=A       83=A       84=A       85=A       86=A       87=A   
    88=A       89=A   
 ...... END OF INITIAL ORBITAL SELECTION ......
 CPU     0: STEP CPU TIME=     0.06 TOTAL CPU TIME=          1.4 (      0.0 MIN)
 TOTAL WALL CLOCK TIME=          3.0 SECONDS, CPU UTILIZATION IS    46.53%

 Running initial guess for monomer      12


          -------------
          GUESS OPTIONS
          -------------
          GUESS =HUCKEL            NORB  =       0          NORDER=       0
          MIX   =       F          PRTMO =       F          PUNMO =       F
          TOLZ  = 1.0E-08          TOLE  = 1.0E-05
          SYMDEN=       F          PURIFY=       F

 INITIAL GUESS ORBITALS GENERATED BY HUCKEL   ROUTINE.
 HUCKEL GUESS REQUIRES    413697 WORDS.

 SYMMETRIES FOR INITIAL GUESS ORBITALS FOLLOW.   BOTH SET(S).
    79 ORBITALS ARE OCCUPIED (   24 CORE ORBITALS).
    25=A       26=A       27=A       28=A       29=A       30=A       31=A   
    32=A       33=A       34=A       35=A       36=A       37=A       38=A   
    39=A       40=A       41=A       42=A       43=A       44=A       45=A   
    46=A       47=A       48=A       49=A       50=A       51=A       52=A   
    53=A       54=A       55=A       56=A       57=A       58=A       59=A   
    60=A       61=A       62=A       63=A       64=A       65=A       66=A   
    67=A       68=A       69=A       70=A       71=A       72=A       73=A   
    74=A       75=A       76=A       77=A       78=A       79=A       80=A   
    81=A       82=A       83=A       84=A       85=A       86=A       87=A   
    88=A       89=A   
 ...... END OF INITIAL ORBITAL SELECTION ......
 CPU     0: STEP CPU TIME=     0.06 TOTAL CPU TIME=          1.5 (      0.0 MIN)
 TOTAL WALL CLOCK TIME=          3.2 SECONDS, CPU UTILIZATION IS    46.67%

 Running initial guess for monomer      11


          -------------
          GUESS OPTIONS
          -------------
          GUESS =HUCKEL            NORB  =       0          NORDER=       0
          MIX   =       F          PRTMO =       F          PUNMO =       F
          TOLZ  = 1.0E-08          TOLE  = 1.0E-05
          SYMDEN=       F          PURIFY=       F

 INITIAL GUESS ORBITALS GENERATED BY HUCKEL   ROUTINE.
 HUCKEL GUESS REQUIRES    413697 WORDS.

 SYMMETRIES FOR INITIAL GUESS ORBITALS FOLLOW.   BOTH SET(S).
    79 ORBITALS ARE OCCUPIED (   24 CORE ORBITALS).
    25=A       26=A       27=A       28=A       29=A       30=A       31=A   
    32=A       33=A       34=A       35=A       36=A       37=A       38=A   
    39=A       40=A       41=A       42=A       43=A       44=A       45=A   
    46=A       47=A       48=A       49=A       50=A       51=A       52=A   
    53=A       54=A       55=A       56=A       57=A       58=A       59=A   
    60=A       61=A       62=A       63=A       64=A       65=A       66=A   
    67=A       68=A       69=A       70=A       71=A       72=A       73=A   
    74=A       75=A       76=A       77=A       78=A       79=A       80=A   
    81=A       82=A       83=A       84=A       85=A       86=A       87=A   
    88=A       89=A   
 ...... END OF INITIAL ORBITAL SELECTION ......
 CPU     0: STEP CPU TIME=     0.05 TOTAL CPU TIME=          1.5 (      0.0 MIN)
 TOTAL WALL CLOCK TIME=          3.3 SECONDS, CPU UTILIZATION IS    46.48%

 Running initial guess for monomer      10


          -------------
          GUESS OPTIONS
          -------------
          GUESS =HUCKEL            NORB  =       0          NORDER=       0
          MIX   =       F          PRTMO =       F          PUNMO =       F
          TOLZ  = 1.0E-08          TOLE  = 1.0E-05
          SYMDEN=       F          PURIFY=       F

 INITIAL GUESS ORBITALS GENERATED BY HUCKEL   ROUTINE.
 HUCKEL GUESS REQUIRES    413697 WORDS.

 SYMMETRIES FOR INITIAL GUESS ORBITALS FOLLOW.   BOTH SET(S).
    79 ORBITALS ARE OCCUPIED (   24 CORE ORBITALS).
    25=A       26=A       27=A       28=A       29=A       30=A       31=A   
    32=A       33=A       34=A       35=A       36=A       37=A       38=A   
    39=A       40=A       41=A       42=A       43=A       44=A       45=A   
    46=A       47=A       48=A       49=A       50=A       51=A       52=A   
    53=A       54=A       55=A       56=A       57=A       58=A       59=A   
    60=A       61=A       62=A       63=A       64=A       65=A       66=A   
    67=A       68=A       69=A       70=A       71=A       72=A       73=A   
    74=A       75=A       76=A       77=A       78=A       79=A       80=A   
    81=A       82=A       83=A       84=A       85=A       86=A       87=A   
    88=A       89=A   
 ...... END OF INITIAL ORBITAL SELECTION ......
 CPU     0: STEP CPU TIME=     0.07 TOTAL CPU TIME=          1.6 (      0.0 MIN)
 TOTAL WALL CLOCK TIME=          3.4 SECONDS, CPU UTILIZATION IS    46.76%

 Running initial guess for monomer       9


          -------------
          GUESS OPTIONS
          -------------
          GUESS =HUCKEL            NORB  =       0          NORDER=       0
          MIX   =       F          PRTMO =       F          PUNMO =       F
          TOLZ  = 1.0E-08          TOLE  = 1.0E-05
          SYMDEN=       F          PURIFY=       F

 INITIAL GUESS ORBITALS GENERATED BY HUCKEL   ROUTINE.
 HUCKEL GUESS REQUIRES    413697 WORDS.

 SYMMETRIES FOR INITIAL GUESS ORBITALS FOLLOW.   BOTH SET(S).
    79 ORBITALS ARE OCCUPIED (   24 CORE ORBITALS).
    25=A       26=A       27=A       28=A       29=A       30=A       31=A   
    32=A       33=A       34=A       35=A       36=A       37=A       38=A   
    39=A       40=A       41=A       42=A       43=A       44=A       45=A   
    46=A       47=A       48=A       49=A       50=A       51=A       52=A   
    53=A       54=A       55=A       56=A       57=A       58=A       59=A   
    60=A       61=A       62=A       63=A       64=A       65=A       66=A   
    67=A       68=A       69=A       70=A       71=A       72=A       73=A   
    74=A       75=A       76=A       77=A       78=A       79=A       80=A   
    81=A       82=A       83=A       84=A       85=A       86=A       87=A   
    88=A       89=A   
 ...... END OF INITIAL ORBITAL SELECTION ......
 CPU     0: STEP CPU TIME=     0.06 TOTAL CPU TIME=          1.7 (      0.0 MIN)
 TOTAL WALL CLOCK TIME=          3.5 SECONDS, CPU UTILIZATION IS    47.01%

 Running initial guess for monomer       8


          -------------
          GUESS OPTIONS
          -------------
          GUESS =HUCKEL            NORB  =       0          NORDER=       0
          MIX   =       F          PRTMO =       F          PUNMO =       F
          TOLZ  = 1.0E-08          TOLE  = 1.0E-05
          SYMDEN=       F          PURIFY=       F

 INITIAL GUESS ORBITALS GENERATED BY HUCKEL   ROUTINE.
 HUCKEL GUESS REQUIRES    405894 WORDS.

 SYMMETRIES FOR INITIAL GUESS ORBITALS FOLLOW.   BOTH SET(S).
    79 ORBITALS ARE OCCUPIED (   24 CORE ORBITALS).
    25=A       26=A       27=A       28=A       29=A       30=A       31=A   
    32=A       33=A       34=A       35=A       36=A       37=A       38=A   
    39=A       40=A       41=A       42=A       43=A       44=A       45=A   
    46=A       47=A       48=A       49=A       50=A       51=A       52=A   
    53=A       54=A       55=A       56=A       57=A       58=A       59=A   
    60=A       61=A       62=A       63=A       64=A       65=A       66=A   
    67=A       68=A       69=A       70=A       71=A       72=A       73=A   
    74=A       75=A       76=A       77=A       78=A       79=A       80=A   
    81=A       82=A       83=A       84=A       85=A       86=A       87=A   
    88=A       89=A   
 ...... END OF INITIAL ORBITAL SELECTION ......
 CPU     0: STEP CPU TIME=     0.05 TOTAL CPU TIME=          1.7 (      0.0 MIN)
 TOTAL WALL CLOCK TIME=          3.6 SECONDS, CPU UTILIZATION IS    46.83%

 Running initial guess for monomer       7


          -------------
          GUESS OPTIONS
          -------------
          GUESS =HUCKEL            NORB  =       0          NORDER=       0
          MIX   =       F          PRTMO =       F          PUNMO =       F
          TOLZ  = 1.0E-08          TOLE  = 1.0E-05
          SYMDEN=       F          PURIFY=       F

 INITIAL GUESS ORBITALS GENERATED BY HUCKEL   ROUTINE.
 HUCKEL GUESS REQUIRES    405894 WORDS.

 SYMMETRIES FOR INITIAL GUESS ORBITALS FOLLOW.   BOTH SET(S).
    79 ORBITALS ARE OCCUPIED (   24 CORE ORBITALS).
    25=A       26=A       27=A       28=A       29=A       30=A       31=A   
    32=A       33=A       34=A       35=A       36=A       37=A       38=A   
    39=A       40=A       41=A       42=A       43=A       44=A       45=A   
    46=A       47=A       48=A       49=A       50=A       51=A       52=A   
    53=A       54=A       55=A       56=A       57=A       58=A       59=A   
    60=A       61=A       62=A       63=A       64=A       65=A       66=A   
    67=A       68=A       69=A       70=A       71=A       72=A       73=A   
    74=A       75=A       76=A       77=A       78=A       79=A       80=A   
    81=A       82=A       83=A       84=A       85=A       86=A       87=A   
    88=A       89=A   
 ...... END OF INITIAL ORBITAL SELECTION ......
 CPU     0: STEP CPU TIME=     0.06 TOTAL CPU TIME=          1.8 (      0.0 MIN)
 TOTAL WALL CLOCK TIME=          3.7 SECONDS, CPU UTILIZATION IS    47.06%

 Running initial guess for monomer       6


          -------------
          GUESS OPTIONS
          -------------
          GUESS =HUCKEL            NORB  =       0          NORDER=       0
          MIX   =       F          PRTMO =       F          PUNMO =       F
          TOLZ  = 1.0E-08          TOLE  = 1.0E-05
          SYMDEN=       F          PURIFY=       F

 INITIAL GUESS ORBITALS GENERATED BY HUCKEL   ROUTINE.
 HUCKEL GUESS REQUIRES    520404 WORDS.

 SYMMETRIES FOR INITIAL GUESS ORBITALS FOLLOW.   BOTH SET(S).
    89 ORBITALS ARE OCCUPIED (   27 CORE ORBITALS).
    28=A       29=A       30=A       31=A       32=A       33=A       34=A   
    35=A       36=A       37=A       38=A       39=A       40=A       41=A   
    42=A       43=A       44=A       45=A       46=A       47=A       48=A   
    49=A       50=A       51=A       52=A       53=A       54=A       55=A   
    56=A       57=A       58=A       59=A       60=A       61=A       62=A   
    63=A       64=A       65=A       66=A       67=A       68=A       69=A   
    70=A       71=A       72=A       73=A       74=A       75=A       76=A   
    77=A       78=A       79=A       80=A       81=A       82=A       83=A   
    84=A       85=A       86=A       87=A       88=A       89=A       90=A   
    91=A       92=A       93=A       94=A       95=A       96=A       97=A   
    98=A       99=A   
 ...... END OF INITIAL ORBITAL SELECTION ......
 CPU     0: STEP CPU TIME=     0.08 TOTAL CPU TIME=          1.8 (      0.0 MIN)
 TOTAL WALL CLOCK TIME=          3.9 SECONDS, CPU UTILIZATION IS    47.30%

 Running initial guess for monomer       5


          -------------
          GUESS OPTIONS
          -------------
          GUESS =HUCKEL            NORB  =       0          NORDER=       0
          MIX   =       F          PRTMO =       F          PUNMO =       F
          TOLZ  = 1.0E-08          TOLE  = 1.0E-05
          SYMDEN=       F          PURIFY=       F

 INITIAL GUESS ORBITALS GENERATED BY HUCKEL   ROUTINE.
 HUCKEL GUESS REQUIRES    483461 WORDS.

 SYMMETRIES FOR INITIAL GUESS ORBITALS FOLLOW.   BOTH SET(S).
    85 ORBITALS ARE OCCUPIED (   26 CORE ORBITALS).
    27=A       28=A       29=A       30=A       31=A       32=A       33=A   
    34=A       35=A       36=A       37=A       38=A       39=A       40=A   
    41=A       42=A       43=A       44=A       45=A       46=A       47=A   
    48=A       49=A       50=A       51=A       52=A       53=A       54=A   
    55=A       56=A       57=A       58=A       59=A       60=A       61=A   
    62=A       63=A       64=A       65=A       66=A       67=A       68=A   
    69=A       70=A       71=A       72=A       73=A       74=A       75=A   
    76=A       77=A       78=A       79=A       80=A       81=A       82=A   
    83=A       84=A       85=A       86=A       87=A       88=A       89=A   
    90=A       91=A       92=A       93=A       94=A       95=A   
 ...... END OF INITIAL ORBITAL SELECTION ......
 CPU     0: STEP CPU TIME=     0.07 TOTAL CPU TIME=          1.9 (      0.0 MIN)
 TOTAL WALL CLOCK TIME=          4.0 SECONDS, CPU UTILIZATION IS    47.39%

 Running initial guess for monomer       4


          -------------
          GUESS OPTIONS
          -------------
          GUESS =HUCKEL            NORB  =       0          NORDER=       0
          MIX   =       F          PRTMO =       F          PUNMO =       F
          TOLZ  = 1.0E-08          TOLE  = 1.0E-05
          SYMDEN=       F          PURIFY=       F

 INITIAL GUESS ORBITALS GENERATED BY HUCKEL   ROUTINE.
 HUCKEL GUESS REQUIRES    413697 WORDS.

 SYMMETRIES FOR INITIAL GUESS ORBITALS FOLLOW.   BOTH SET(S).
    79 ORBITALS ARE OCCUPIED (   24 CORE ORBITALS).
    25=A       26=A       27=A       28=A       29=A       30=A       31=A   
    32=A       33=A       34=A       35=A       36=A       37=A       38=A   
    39=A       40=A       41=A       42=A       43=A       44=A       45=A   
    46=A       47=A       48=A       49=A       50=A       51=A       52=A   
    53=A       54=A       55=A       56=A       57=A       58=A       59=A   
    60=A       61=A       62=A       63=A       64=A       65=A       66=A   
    67=A       68=A       69=A       70=A       71=A       72=A       73=A   
    74=A       75=A       76=A       77=A       78=A       79=A       80=A   
    81=A       82=A       83=A       84=A       85=A       86=A       87=A   
    88=A       89=A   
 ...... END OF INITIAL ORBITAL SELECTION ......
 CPU     0: STEP CPU TIME=     0.05 TOTAL CPU TIME=          2.0 (      0.0 MIN)
 TOTAL WALL CLOCK TIME=          4.2 SECONDS, CPU UTILIZATION IS    47.23%

 Running initial guess for monomer       3


          -------------
          GUESS OPTIONS
          -------------
          GUESS =HUCKEL            NORB  =       0          NORDER=       0
          MIX   =       F          PRTMO =       F          PUNMO =       F
          TOLZ  = 1.0E-08          TOLE  = 1.0E-05
          SYMDEN=       F          PURIFY=       F

 INITIAL GUESS ORBITALS GENERATED BY HUCKEL   ROUTINE.
 HUCKEL GUESS REQUIRES    520404 WORDS.

 SYMMETRIES FOR INITIAL GUESS ORBITALS FOLLOW.   BOTH SET(S).
    89 ORBITALS ARE OCCUPIED (   27 CORE ORBITALS).
    28=A       29=A       30=A       31=A       32=A       33=A       34=A   
    35=A       36=A       37=A       38=A       39=A       40=A       41=A   
    42=A       43=A       44=A       45=A       46=A       47=A       48=A   
    49=A       50=A       51=A       52=A       53=A       54=A       55=A   
    56=A       57=A       58=A       59=A       60=A       61=A       62=A   
    63=A       64=A       65=A       66=A       67=A       68=A       69=A   
    70=A       71=A       72=A       73=A       74=A       75=A       76=A   
    77=A       78=A       79=A       80=A       81=A       82=A       83=A   
    84=A       85=A       86=A       87=A       88=A       89=A       90=A   
    91=A       92=A       93=A       94=A       95=A       96=A       97=A   
    98=A       99=A   
 ...... END OF INITIAL ORBITAL SELECTION ......
 CPU     0: STEP CPU TIME=     0.08 TOTAL CPU TIME=          2.0 (      0.0 MIN)
 TOTAL WALL CLOCK TIME=          4.3 SECONDS, CPU UTILIZATION IS    47.44%

 Running initial guess for monomer       2


          -------------
          GUESS OPTIONS
          -------------
          GUESS =HUCKEL            NORB  =       0          NORDER=       0
          MIX   =       F          PRTMO =       F          PUNMO =       F
          TOLZ  = 1.0E-08          TOLE  = 1.0E-05
          SYMDEN=       F          PURIFY=       F

 INITIAL GUESS ORBITALS GENERATED BY HUCKEL   ROUTINE.
 HUCKEL GUESS REQUIRES    483461 WORDS.

 SYMMETRIES FOR INITIAL GUESS ORBITALS FOLLOW.   BOTH SET(S).
    85 ORBITALS ARE OCCUPIED (   26 CORE ORBITALS).
    27=A       28=A       29=A       30=A       31=A       32=A       33=A   
    34=A       35=A       36=A       37=A       38=A       39=A       40=A   
    41=A       42=A       43=A       44=A       45=A       46=A       47=A   
    48=A       49=A       50=A       51=A       52=A       53=A       54=A   
    55=A       56=A       57=A       58=A       59=A       60=A       61=A   
    62=A       63=A       64=A       65=A       66=A       67=A       68=A   
    69=A       70=A       71=A       72=A       73=A       74=A       75=A   
    76=A       77=A       78=A       79=A       80=A       81=A       82=A   
    83=A       84=A       85=A       86=A       87=A       88=A       89=A   
    90=A       91=A       92=A       93=A       94=A       95=A   
 ...... END OF INITIAL ORBITAL SELECTION ......
 CPU     0: STEP CPU TIME=     0.07 TOTAL CPU TIME=          2.1 (      0.0 MIN)
 TOTAL WALL CLOCK TIME=          4.5 SECONDS, CPU UTILIZATION IS    47.42%

 Running initial guess for monomer       1


          -------------
          GUESS OPTIONS
          -------------
          GUESS =HUCKEL            NORB  =       0          NORDER=       0
          MIX   =       F          PRTMO =       F          PUNMO =       F
          TOLZ  = 1.0E-08          TOLE  = 1.0E-05
          SYMDEN=       F          PURIFY=       F

 INITIAL GUESS ORBITALS GENERATED BY HUCKEL   ROUTINE.
 HUCKEL GUESS REQUIRES    567794 WORDS.

 SYMMETRIES FOR INITIAL GUESS ORBITALS FOLLOW.   BOTH SET(S).
    94 ORBITALS ARE OCCUPIED (   28 CORE ORBITALS).
    29=A       30=A       31=A       32=A       33=A       34=A       35=A   
    36=A       37=A       38=A       39=A       40=A       41=A       42=A   
    43=A       44=A       45=A       46=A       47=A       48=A       49=A   
    50=A       51=A       52=A       53=A       54=A       55=A       56=A   
    57=A       58=A       59=A       60=A       61=A       62=A       63=A   
    64=A       65=A       66=A       67=A       68=A       69=A       70=A   
    71=A       72=A       73=A       74=A       75=A       76=A       77=A   
    78=A       79=A       80=A       81=A       82=A       83=A       84=A   
    85=A       86=A       87=A       88=A       89=A       90=A       91=A   
    92=A       93=A       94=A       95=A       96=A       97=A       98=A   
    99=A      100=A      101=A      102=A      103=A      104=A   
 ...... END OF INITIAL ORBITAL SELECTION ......
 CPU     0: STEP CPU TIME=     0.08 TOTAL CPU TIME=          2.2 (      0.0 MIN)
 TOTAL WALL CLOCK TIME=          4.6 SECONDS, CPU UTILIZATION IS    47.51%

 There are         411 separated and      85 SCF (       0 of them correlated) dimers.
 Estimate of max dimer size:  486 AOs,  178 occ. MOs

 Fragment statistics

      I  NAME     Q NAT0 NATB NA  NAO LAY MUL SCFTYP        NOP     MOL    CONV
 ==============================================================================
      1 FRAG1    -1   36   1   94  253 1  1 G RHF             0      -1      -1
      2 FRAG2    -1   33   1   85  233 1  1 G RHF             0      -1      -1
      3 FRAG3    -1   34   1   89  242 1  1 G RHF             0      -1      -1
      4 FRAG4    -1   31   1   79  215 1  1 G RHF             0      -1      -1
      5 FRAG5    -1   33   1   85  233 1  1 G RHF             0      -1      -1
      6 FRAG6    -1   34   1   89  242 1  1 G RHF             0      -1      -1
      7 FRAG7    -1   30   1   79  213 1  1 G RHF             0      -1      -1
      8 FRAG8    -1   30   1   79  213 1  1 G RHF             0      -1      -1
      9 FRAG9    -1   31   1   79  215 1  1 G RHF             0      -1      -1
     10 F        -1   31   1   79  215 1  1 G RHF             0      -1      -1
     11 frg00011 -1   31   1   79  215 1  1 G RHF             0      -1      -1
     12 frg00012 -1   31   1   79  215 1  1 G RHF             0      -1      -1
     13 frg00013 -1   30   1   79  213 1  1 G RHF             0      -1      -1
     14 frg00014 -1   34   1   89  242 1  1 G RHF             0      -1      -1
     15 frg00015 -1   31   1   79  215 1  1 G RHF             0      -1      -1
     16 frg00016 -1   33   1   85  233 1  1 G RHF             0      -1      -1
     17 frg00017 -1   30   1   79  213 1  1 G RHF             0      -1      -1
     18 frg00018 -1   33   1   85  233 1  1 G RHF             0      -1      -1
     19 frg00019 -1   33   1   85  233 1  1 G RHF             0      -1      -1
     20 frg00020 -1   34   1   89  242 1  1 G RHF             0      -1      -1
     21 frg00021 -1   34   1   89  242 1  1 G RHF             0      -1      -1
     22 frg00022 -1   33   1   85  233 1  1 G RHF             0      -1      -1
     23 frg00023 -1   30   1   79  213 1  1 G RHF             0      -1      -1
     24 frg00024 -1   34   1   89  242 1  1 G RHF             0      -1      -1
     25 frg00025 -1   33   1   85  233 1  1 G RHF             0      -1      -1
     26 frg00026 -1   33   1   85  233 1  1 G RHF             0      -1      -1
     27 frg00027 -1   31   1   79  215 1  1 G RHF             0      -1      -1
     28 frg00028 -1   31   1   79  215 1  1 G RHF             0      -1      -1
     29 frg00029 -1   34   1   89  242 1  1 G RHF             0      -1      -1
     30 frg00030 -1   30   1   79  213 1  1 G RHF             0      -1      -1
     31 frg00031 -1   30   1   79  213 1  1 G RHF             0      -1      -1
     32 frg00032  0   28   0   59  168 1  1 G RHF             0      -1      -1

 Close fragment pairs, distance relative to vdW radii

     20    12   0.49631 very close!
     27     6   0.33752 very close!
     28     5   0.45284 very close!
 CPU     0: STEP CPU TIME=     0.00 TOTAL CPU TIME=          2.2 (      0.0 MIN)
 TOTAL WALL CLOCK TIME=          4.6 SECONDS, CPU UTILIZATION IS    47.40%
 dmexch needs              4921958  words of memory.
 CPU     0: STEP CPU TIME=     0.02 TOTAL CPU TIME=          2.2 (      0.0 MIN)
 TOTAL WALL CLOCK TIME=          4.6 SECONDS, CPU UTILIZATION IS    47.63%

 Data exchange of    816588 words took     0.0 s.

 RHF      monomer      1 corr= NONE       , L1=   253, L0=   253 ID=      1

 Int dimensions: LABSIZ=1, NINTIC=  6005000 ININTIC=  3002500
 Max L1 incore=   170 current l1=   253 force dirscf= T

 DIRECT SCF CALCULATION, SCHWRZ=T   FDIFF=T,  DIRTHR=  0.00E+00 NITDIR=10

                                                                                   NONZERO     BLOCKS
 ITER EX DEM     TOTAL ENERGY        E CHANGE  DENSITY CHANGE    DIIS ERROR      INTEGRALS    SKIPPED
   1  0  0   961907.0519792077961907.0519792077   1.134133909   0.000000000      141420337    9829830
   2  1  0    -1452.1763418613*****************   0.309466550   0.000000000      141430951    9851200
   3  2  0    -1452.4873753659    -0.3110335046   0.341992759   0.000000000      140491554    9982867
   4  3  0    -1452.5833621591    -0.0959867933   0.248349814   0.000000000      139797941   10041460
   5  4  0    -1452.6439752040    -0.0606130449   0.203760926   0.000000000      139151350   10083256
   6  5  0    -1452.6758416341    -0.0318664301   0.175286182   0.000000000      138475485   10121982
   7  6  0    -1452.6988368785    -0.0229952444   0.139803535   0.000000000      137858210   10151613
   8  7  0    -1452.7121241102    -0.0132872317   0.119304452   0.000000000      137180766   10182697
   9  8  0    -1452.7217829281    -0.0096588179   0.095159580   0.000000000      136538659   10209319
  10  9  0    -1452.7277020519    -0.0059191238   0.080139768   0.000000000      135831047   10236920
  11 10  0    -1452.7319640991    -0.0042620472   0.064187213   0.000000000      135131549   10262062
  12 11  0    -1452.7346853927    -0.0027212936   0.053497081   0.000000000      134354535   10288227
  13 12  0    -1452.7366236893    -0.0019382965   0.043012826   0.000000000      133584629   10312889
  14 13  0    -1452.7378972430    -0.0012735537   0.035582546   0.000000000      132786919   10337693
  15 14  0    -1452.7387970565    -0.0008998135   0.028690277   0.000000000      131972413   10361525
  16 15  0    -1452.7394002598    -0.0006032034   0.023608292   0.000000000      131128873   10385559
  17 16  0    -1452.7398244050    -0.0004241451   0.019311300   0.000000000      130266389   10409177
  18 17  0    -1452.7401128361    -0.0002884311   0.016375497   0.000000000      129385846   10432503
  19 18  0    -1452.7403152295    -0.0002023933   0.013816465   0.000000000      128491482   10455630
  20 19  0    -1452.7404543223    -0.0001390928   0.011724751   0.000000000      127578547   10478724
  21 20  0    -1452.7405519185    -0.0000975962   0.009915195   0.000000000      126650311   10501411
  22 21  0    -1452.7406195382    -0.0000676197   0.008419623   0.000000000      125715284   10524068
  23 22  0    -1452.7406670464    -0.0000475082   0.007132507   0.000000000      124767875   10546921
  24 23  0    -1452.7407001790    -0.0000331326   0.006060147   0.000000000      123820759   10569535
  25 24  0    -1452.7407235079    -0.0000233289   0.005140533   0.000000000      122853690   10591727
  26 25  0    -1452.7407398679    -0.0000163601   0.004369874   0.000000000      121859646   10614037
  27 26  0    -1452.7407514187    -0.0000115507   0.003710577   0.000000000      120867433   10636306
  28 27  0    -1452.7407595582    -0.0000081396   0.003155711   0.000000000      119873762   10658347
  29 28  0    -1452.7407653217    -0.0000057635   0.002681787   0.000000000      118870366   10680132
  30 29  0    -1452.7407693999    -0.0000040782   0.002281680   0.000000000      117865245   10701820
  31 30  0    -1452.7407722968    -0.0000028970   0.001940295   0.000000000      116850753   10723538
  32 31  0    -1452.7407743547    -0.0000020579   0.001651413   0.000000000      115849843   10745110
  33 32  0    -1452.7407758210    -0.0000014663   0.001405090   0.000000000      114808707   10766767
  34 33  0    -1452.7407768659    -0.0000010448   0.001196286   0.000000000      113755771   10788510
  35 34  0    -1452.7407776128    -0.0000007469   0.001018312   0.000000000      112707223   10810073
  36 35  0    -1452.7407781467    -0.0000005339   0.000867245   0.000000000      111651258   10831561
  37 36  0    -1452.7407785286    -0.0000003818   0.000738508   0.000000000      110626218   10853151
  38 37  0    -1452.7407788034    -0.0000002748   0.000629124   0.000000000      109582791   10874593
  39 38  0    -1452.7407790003    -0.0000001969   0.000535913   0.000000000      108527809   10896044
  40 39  0    -1452.7407791416    -0.0000001414   0.000456652   0.000000000      107474496   10917171
  41 40  0    -1452.7407792439    -0.0000001022   0.000389108   0.000000000      106420311   10938522
  42 41  0    -1452.7407793166    -0.0000000728   0.000331636   0.000000000      105332158   10959970
  43 42  0    -1452.7407793704    -0.0000000538   0.000282657   0.000000000      104228371   10981554
  44 43  0    -1452.7407794082    -0.0000000378   0.000240959   0.000000000      103140465   11002963
  45 44  0    -1452.7407794359    -0.0000000276   0.000205420   0.000000000      102076231   11024210
  46 45  0    -1452.7407794559    -0.0000000200   0.000175150   0.000000000      100982152   11045559
  47 46  0    -1452.7407794700    -0.0000000141   0.000149348   0.000000000       99899186   11066781
  48 47  0    -1452.7407794803    -0.0000000103   0.000127364   0.000000000       98839093   11087788
  49 48  0    -1452.7407794888    -0.0000000085   0.000108622   0.000000000       97739804   11109081
  50 49  0    -1452.7407794938    -0.0000000050   0.000092649   0.000000000       96685092   11129782

 SCF IS UNCONVERGED, TOO MANY ITERATIONS
     TIME TO FORM FOCK OPERATORS=      37.0 SECONDS (       0.7 SEC/ITER)
     FOCK TIME ON FIRST ITERATION=       0.9, LAST ITERATION=       0.6
     TIME TO SOLVE SCF EQUATIONS=       1.2 SECONDS (       0.0 SEC/ITER)

 FINAL RHF ENERGY IS        0.0000000000 AFTER  50 ITERATIONS
 ...... END OF RHF CALCULATION ......
 CPU     0: STEP CPU TIME=    43.22 TOTAL CPU TIME=         45.4 (      0.8 MIN)
 TOTAL WALL CLOCK TIME=         49.3 SECONDS, CPU UTILIZATION IS    92.13%

 Iter=  1 iFrag=      1 EFMO=     0.000000000, DD= 1.101416136, DE= 0.000000000


 RHF      monomer     24 corr= NONE       , L1=   242, L0=   242 ID=      2

 Int dimensions: LABSIZ=1, NINTIC=  6005000 ININTIC=  3002500
 Max L1 incore=   170 current l1=   242 force dirscf= T

 DIRECT SCF CALCULATION, SCHWRZ=T   FDIFF=T,  DIRTHR=  0.00E+00 NITDIR=10

[...]

          ---------------------
          ELECTROSTATIC MOMENTS
          ---------------------

 POINT   1           X           Y           Z (BOHR)    CHARGE
                 0.585015    0.025219    0.263708       -1.00 (A.U.)
         DX          DY          DZ         /D/  (DEBYE)
    55.968722  129.125913   11.021902  141.164732

 Atomic populations
     I    Z      Q
     1   5.0   5.3650303
     2   1.0   0.7370670
     3   1.0   0.7773600
     4   6.0   6.0041925
     5   1.0   0.7566813
     6   8.0   8.6425971
     7   6.0   5.6325544
     8   1.0   0.7257325
     9   7.0   8.0593141
    10   6.0   5.7557070
    11   1.0   0.6156320
    12   6.0   4.7463007
    13   8.0   8.6688500
    14   7.0   8.0563518
    15   1.0   0.5428345
    16   6.0   5.1240308
    17   8.0   8.6423855
    18   6.0   6.4755696
    19   1.0   0.6842655
    20   6.0   5.9996969
    21   1.0   0.7298355
    22   8.0   8.7238868
    23   1.0   0.6175074
    24   6.0   5.8949163
    25   1.0   0.6853964
    26   8.0   8.8861247
    27  15.0  12.9894538
    28   8.0   8.9964778
    29   8.0   8.9392245
    30   8.0   9.0783056
    31   1.0   0.4467176
 Redoing 1e ESP:                    -1

 Iter= 28 iFrag=     31 EFMOu= -1372.494761669

 RHF      monomer      8 corr= NONE       , L1=   213, L0=   213 ID=     31

 Int dimensions: LABSIZ=1, NINTIC=  6005000 ININTIC=  3002500
 Max L1 incore=   170 current l1=   213 force dirscf= T

 DIRECT SCF CALCULATION, SCHWRZ=T   FDIFF=T,  DIRTHR=  0.00E+00 NITDIR=10

                                                                                   NONZERO     BLOCKS
 ITER EX DEM     TOTAL ENERGY        E CHANGE  DENSITY CHANGE    DIIS ERROR      INTEGRALS    SKIPPED
   1  0  0    -1241.9166923975 -1241.9166923975   0.000000086   0.000000000       96746922    4303080
   2  1  0    -1241.9166923974     0.0000000001   0.000000055   0.000000000       34231237    5840900
   3  2  0    -1241.9166923974     0.0000000000   0.000000035   0.000000000       32498336    5865682

          -----------------
          DENSITY CONVERGED
          -----------------
     TIME TO FORM FOCK OPERATORS=       1.0 SECONDS (       0.3 SEC/ITER)
     FOCK TIME ON FIRST ITERATION=       0.6, LAST ITERATION=       0.2
     TIME TO SOLVE SCF EQUATIONS=       0.0 SECONDS (       0.0 SEC/ITER)

 FINAL RHF ENERGY IS    -1241.9166923974 AFTER   3 ITERATIONS
 ...... END OF RHF CALCULATION ......
 CPU     0: STEP CPU TIME=     7.06 TOTAL CPU TIME=      13356.7 (    222.6 MIN)
 TOTAL WALL CLOCK TIME=      13913.4 SECONDS, CPU UTILIZATION IS    96.00%

..... END OF SINGLE POINT GRADIENT .....
 CPU     0: STEP CPU TIME=     1.49 TOTAL CPU TIME=      13358.2 (    222.6 MIN)
 TOTAL WALL CLOCK TIME=      13914.9 SECONDS, CPU UTILIZATION IS    96.00%

          ---------------------
          ELECTROSTATIC MOMENTS
          ---------------------

 POINT   1           X           Y           Z (BOHR)    CHARGE
                 0.585015    0.025219    0.263708       -1.00 (A.U.)
         DX          DY          DZ         /D/  (DEBYE)
    18.333657   -4.634918  -46.760844   50.439885

 Atomic populations
     I    Z      Q
     1   5.0   5.3782327
     2   1.0   0.7676538
     3   1.0   0.7677113
     4   6.0   5.9752964
     5   1.0   0.7684264
     6   8.0   8.6618171
     7   6.0   5.6213775
     8   1.0   0.7487719
     9   7.0   8.0593977
    10   6.0   5.7448372
    11   1.0   0.6383580
    12   6.0   4.7391452
    13   8.0   8.6854303
    14   7.0   8.0570468
    15   1.0   0.5328061
    16   6.0   5.0747100
    17   8.0   8.6672334
    18   6.0   6.4738507
    19   1.0   0.6939986
    20   6.0   5.9856551
    21   1.0   0.6969793
    22   8.0   8.7167938
    23   1.0   0.6329769
    24   6.0   5.9265220
    25   1.0   0.6836253
    26   8.0   8.8773133
    27  15.0  12.9686592
    28   8.0   9.0043212
    29   8.0   8.9428014
    30   8.0   9.0729342
    31   1.0   0.4353175
 Redoing 1e ESP:                    -1

 Iter= 28 iFrag=      8 EFMOu= -1372.505734037

 RHF      monomer     32 corr= NONE       , L1=   168, L0=   168 ID=     32

 Int dimensions: LABSIZ=1, NINTIC=  6005000 ININTIC=  3002500
 Max L1 incore=   170 current l1=   168 force dirscf= F

 ITER EX DEM     TOTAL ENERGY        E CHANGE  DENSITY CHANGE     ORB. GRAD
   1  0  0     -717.3582168918  -717.3582168918   0.000000011   0.000000000
   2  1  0     -717.3582168923    -0.0000000004   0.000000000   0.000000001

          -----------------
          DENSITY CONVERGED
          -----------------
     TIME TO FORM FOCK OPERATORS=       0.1 SECONDS (       0.0 SEC/ITER)
     TIME TO SOLVE SCF EQUATIONS=       0.0 SECONDS (       0.0 SEC/ITER)

 FINAL RHF ENERGY IS     -717.3582168923 AFTER   2 ITERATIONS
 ...... END OF RHF CALCULATION ......
 CPU     0: STEP CPU TIME=     4.14 TOTAL CPU TIME=      13362.3 (    222.7 MIN)
 TOTAL WALL CLOCK TIME=      13919.4 SECONDS, CPU UTILIZATION IS    96.00%

..... END OF SINGLE POINT GRADIENT .....
 CPU     0: STEP CPU TIME=     1.01 TOTAL CPU TIME=      13363.3 (    222.7 MIN)
 TOTAL WALL CLOCK TIME=      13920.4 SECONDS, CPU UTILIZATION IS    96.00%

          ---------------------
          ELECTROSTATIC MOMENTS
          ---------------------

 POINT   1           X           Y           Z (BOHR)    CHARGE
                 0.585015    0.025219    0.263708       -0.00 (A.U.)
         DX          DY          DZ         /D/  (DEBYE)
    -5.234528    7.923915    9.016252   13.095095

 Atomic populations
     I    Z      Q
     1   5.0   5.3831430
     2   1.0   0.7185694
     3   1.0   0.7845291
     4   6.0   5.9842481
     5   1.0   0.7502610
     6   8.0   8.6277551
     7   6.0   5.6187132
     8   1.0   0.7139331
     9   7.0   8.0484172
    10   6.0   5.7365358
    11   1.0   0.6379221
    12   6.0   6.4135968
    13   1.0   0.7112338
    14   6.0   4.8612455
    15   8.0   8.7511875
    16   7.0   7.9190915
    17   6.0   5.1670477
    18   7.0   7.8720036
    19   1.0   0.6027800
    20   1.0   0.6042372
    21   6.0   6.0010571
    22   1.0   0.7548909
    23   8.0   8.7350889
    24   1.0   0.6003858
    25   6.0   5.9340223
    26   1.0   0.7241853
    27   8.0   8.7123466
    28   1.0   0.6315723
 Redoing 1e ESP:                    -1

 Iter= 28 iFrag=     32 EFMOu=  -791.205863500
 CPU     0: STEP CPU TIME=     0.10 TOTAL CPU TIME=      13363.4 (    222.7 MIN)
 TOTAL WALL CLOCK TIME=      13920.5 SECONDS, CPU UTILIZATION IS    96.00%

  Monomer SCF synchronisation on iteration  28.1 took     0.0 s.
 CPU     0: STEP CPU TIME=     0.00 TOTAL CPU TIME=      13363.4 (    222.7 MIN)
 TOTAL WALL CLOCK TIME=      13920.5 SECONDS, CPU UTILIZATION IS    96.00%
 dmexch needs              4921958  words of memory.
 CPU     0: STEP CPU TIME=     0.01 TOTAL CPU TIME=      13363.4 (    222.7 MIN)
 TOTAL WALL CLOCK TIME=      13920.5 SECONDS, CPU UTILIZATION IS    96.00%

 Data exchange of    816588 words took     0.0 s.

 ------------Monomer SCF for layer 1 converged in 28 iterations!------------
 CPU     0: STEP CPU TIME=     0.00 TOTAL CPU TIME=      13363.4 (    222.7 MIN)
 TOTAL WALL CLOCK TIME=      13920.5 SECONDS, CPU UTILIZATION IS    96.00%
 CPU     0: STEP CPU TIME=     0.00 TOTAL CPU TIME=      13363.4 (    222.7 MIN)
 TOTAL WALL CLOCK TIME=      13920.5 SECONDS, CPU UTILIZATION IS    96.00%

 RHF      dimer      2      1 corr= NONE       , LL1=   486 ID=             1
 Int dimensions: LABSIZ=2, NINTIC=  4500000 ININTIC=  4500000
 Max L1 incore=   156 current l1=   477 force dirscf= T

 DIRECT SCF CALCULATION, SCHWRZ=T   FDIFF=T,  DIRTHR=  0.00E+00 NITDIR=10

                                                                                   NONZERO     BLOCKS
 ITER EX DEM     TOTAL ENERGY        E CHANGE  DENSITY CHANGE    DIIS ERROR      INTEGRALS    SKIPPED
   1  0  0    -2790.3942351872 -2790.3942351872   0.314243568   0.000000000      911878658  142197741
   2  1  0    -2790.6492155507    -0.2549803635   0.072219573   0.000000000      868001334  145423039
   3  2  0    -2790.6569658837    -0.0077503330   0.022715747   0.000000000      816075244  147083679
   4  3  0    -2790.6575900513    -0.0006241676   0.003648849   0.000000000      757581907  148425165
   5  4  0    -2790.6576637648    -0.0000737135   0.002240668   0.000000000      709539460  149455009
   6  5  0    -2790.6576766773    -0.0000129126   0.001058075   0.000000000      680086596  150004042
   7  6  0    -2790.6576800448    -0.0000033674   0.000754733   0.000000000      651449511  150607079
   8  7  0    -2790.6576812205    -0.0000011757   0.000459979   0.000000000      636900296  150865266
   9  8  0    -2790.6576817046    -0.0000004841   0.000327090   0.000000000      619462361  151216725
  10  9  0    -2790.6576819220    -0.0000002174   0.000211609   0.000000000      606882064  151448752
  11 10  0    -2790.6576820249    -0.0000001029   0.000147306   0.000000000      593795629  151702955
  12 11  0    -2790.6576820756    -0.0000000507   0.000098667   0.000000000      582426587  151915033
  13 12  0    -2790.6576821021    -0.0000000265   0.000073471   0.000000000      571363146  152123310
  14 13  0    -2790.6576821158    -0.0000000137   0.000064368   0.000000000      561211282  152311930
  15 14  0    -2790.6576821228    -0.0000000070   0.000057000   0.000000000      551393649  152494329
  16 15  0    -2790.6576821281    -0.0000000053   0.000050343   0.000000000      542252559  152663306
  17 16  0    -2790.6576821303    -0.0000000021   0.000044723   0.000000000      533488720  152823683
  18 17  0    -2790.6576821322    -0.0000000019   0.000039720   0.000000000      525139976  152974879
  19 18  0    -2790.6576821332    -0.0000000010   0.000035394   0.000000000      517215295  153115977
  20 19  0    -2790.6576821343    -0.0000000011   0.000031555   0.000000000      509689468  153249533
  21 20  0    -2790.6576821357    -0.0000000014   0.000028187   0.000000000      502515420  153376043
  22 21  0    -2790.6576821357     0.0000000000   0.000025196   0.000000000      495631506  153494768
  23 22  0    -2790.6576821367    -0.0000000010   0.000022549   0.000000000      489041697  153607959
  24 23  0    -2790.6576821372    -0.0000000004   0.000020191   0.000000000      482801553  153715893
  25 24  0    -2790.6576821370     0.0000000001   0.000018094   0.000000000      476932692  153817791
  26 25  0    -2790.6576821373    -0.0000000003   0.000016221   0.000000000      471417662  153914131
  27 26  0    -2790.6576821374    -0.0000000001   0.000014550   0.000000000      466201882  154005385
  28 27  0    -2790.6576821382    -0.0000000008   0.000013055   0.000000000      461139628  154092630
  29 28  0    -2790.6576821376     0.0000000007   0.000011717   0.000000000      456235373  154177519
  30 29  0    -2790.6576821379    -0.0000000004   0.000010518   0.000000000      451327475  154261480
  31 30  0    -2790.6576821378     0.0000000001   0.000009444   0.000000000      446438199  154345544
  32 31  0    -2790.6576821378     0.0000000000   0.000008481   0.000000000      441479506  154430668
  33 32  0    -2790.6576821385    -0.0000000007   0.000007617   0.000000000      436499027  154515885
  34 33  0    -2790.6576821380     0.0000000005   0.000006842   0.000000000      431523339  154601702
  35 34  0    -2790.6576821384    -0.0000000005   0.000006146   0.000000000      426571472  154686646
  36 35  0    -2790.6576821381     0.0000000003   0.000005522   0.000000000      421666635  154771676
  37 36  0    -2790.6576821380     0.0000000001   0.000004961   0.000000000      416772665  154856747
  38 37  0    -2790.6576821382    -0.0000000002   0.000004457   0.000000000      411845526  154941247
  39 38  0    -2790.6576821382    -0.0000000000   0.000004005   0.000000000      406901501  155025453
  40 39  0    -2790.6576821383    -0.0000000001   0.000003599   0.000000000      402037428  155108992
  41 40  0    -2790.6576821383     0.0000000000   0.000003233   0.000000000      397179987  155192254
  42 41  0    -2790.6576821381     0.0000000002   0.000002905   0.000000000      392377676  155275091
  43 42  0    -2790.6576821384    -0.0000000003   0.000002611   0.000000000      387530967  155357140
  44 43  0    -2790.6576821384    -0.0000000000   0.000002346   0.000000000      382744534  155438834
  45 44  0    -2790.6576821380     0.0000000004   0.000002108   0.000000000      377943180  155520097
  46 45  0    -2790.6576821383    -0.0000000002   0.000001894   0.000000000      373184311  155600382
  47 46  0    -2790.6576821383     0.0000000000   0.000001702   0.000000000      368479919  155680041
  48 47  0    -2790.6576821385    -0.0000000003   0.000001530   0.000000000      363810819  155758757
  49 48  0    -2790.6576821383     0.0000000003   0.000001375   0.000000000      359155330  155836980
  50 49  0    -2790.6576821386    -0.0000000003   0.000001235   0.000000000      354499938  155914907

 SCF IS UNCONVERGED, TOO MANY ITERATIONS
     TIME TO FORM FOCK OPERATORS=     164.3 SECONDS (       3.3 SEC/ITER)
     FOCK TIME ON FIRST ITERATION=       6.2, LAST ITERATION=       2.4
     TIME TO SOLVE SCF EQUATIONS=       6.9 SECONDS (       0.1 SEC/ITER)

 FINAL RHF ENERGY IS        0.0000000000 AFTER  50 ITERATIONS
 ...... END OF RHF CALCULATION ......
 CPU     0: STEP CPU TIME=   187.77 TOTAL CPU TIME=      13551.2 (    225.9 MIN)
 TOTAL WALL CLOCK TIME=      14113.2 SECONDS, CPU UTILIZATION IS    96.02%
 NO GRADIENT, SCF DID NOT CONVERGE

 Gradient requires converged SCF.

 EXECUTION OF GAMESS TERMINATED -ABNORMALLY- AT Wed Mar 20 00:01:26 2019
             15709996  WORDS OF DYNAMIC MEMORY USED
 CPU     0: STEP CPU TIME=     0.00 TOTAL CPU TIME=      13551.2 (    225.9 MIN)
 TOTAL WALL CLOCK TIME=      14113.2 SECONDS, CPU UTILIZATION IS    96.02%
 ddikick.x: application process 0 quit unexpectedly.
 ddikick.x: Sending kill signal to DDI processes.
 ddikick.x: Execution terminated due to error(s).
----- accounting info -----
Files used on the master node gollum089.lsa.umich.edu were:
-rw-r--r-- 1 hazwong frank    47217 Mar 19 20:06 /home/hazwong/test/git_repository/RNAFMO/testing/1XHP/gamess/usrc_36/1XHP_nlb_decoy_36.F05
-rw-r--r-- 1 hazwong frank      514 Mar 20 00:01 /home/hazwong/test/git_repository/RNAFMO/testing/1XHP/gamess/usrc_36/1XHP_nlb_decoy_36.F06.001
-rw-r--r-- 1 hazwong frank      514 Mar 20 00:01 /home/hazwong/test/git_repository/RNAFMO/testing/1XHP/gamess/usrc_36/1XHP_nlb_decoy_36.F06.002
-rw-r--r-- 1 hazwong frank      514 Mar 20 00:01 /home/hazwong/test/git_repository/RNAFMO/testing/1XHP/gamess/usrc_36/1XHP_nlb_decoy_36.F06.003
-rw-r--r-- 1 hazwong frank      514 Mar 20 00:01 /home/hazwong/test/git_repository/RNAFMO/testing/1XHP/gamess/usrc_36/1XHP_nlb_decoy_36.F06.004
-rw-r--r-- 1 hazwong frank      514 Mar 20 00:01 /home/hazwong/test/git_repository/RNAFMO/testing/1XHP/gamess/usrc_36/1XHP_nlb_decoy_36.F06.005
-rw-r--r-- 1 hazwong frank      514 Mar 20 00:01 /home/hazwong/test/git_repository/RNAFMO/testing/1XHP/gamess/usrc_36/1XHP_nlb_decoy_36.F06.006
-rw-r--r-- 1 hazwong frank      514 Mar 20 00:01 /home/hazwong/test/git_repository/RNAFMO/testing/1XHP/gamess/usrc_36/1XHP_nlb_decoy_36.F06.007
-rw-r--r-- 1 hazwong frank      960 Mar 19 20:06 /home/hazwong/test/git_repository/RNAFMO/testing/1XHP/gamess/usrc_36/1XHP_nlb_decoy_36.F07
-rw-r--r-- 1 hazwong frank        0 Mar 19 20:06 /home/hazwong/test/git_repository/RNAFMO/testing/1XHP/gamess/usrc_36/1XHP_nlb_decoy_36.F07.001
-rw-r--r-- 1 hazwong frank        0 Mar 19 20:06 /home/hazwong/test/git_repository/RNAFMO/testing/1XHP/gamess/usrc_36/1XHP_nlb_decoy_36.F07.002
-rw-r--r-- 1 hazwong frank        0 Mar 19 20:06 /home/hazwong/test/git_repository/RNAFMO/testing/1XHP/gamess/usrc_36/1XHP_nlb_decoy_36.F07.003
-rw-r--r-- 1 hazwong frank        0 Mar 19 20:06 /home/hazwong/test/git_repository/RNAFMO/testing/1XHP/gamess/usrc_36/1XHP_nlb_decoy_36.F07.004
-rw-r--r-- 1 hazwong frank        0 Mar 19 20:06 /home/hazwong/test/git_repository/RNAFMO/testing/1XHP/gamess/usrc_36/1XHP_nlb_decoy_36.F07.005
-rw-r--r-- 1 hazwong frank        0 Mar 19 20:06 /home/hazwong/test/git_repository/RNAFMO/testing/1XHP/gamess/usrc_36/1XHP_nlb_decoy_36.F07.006
-rw-r--r-- 1 hazwong frank        0 Mar 19 20:06 /home/hazwong/test/git_repository/RNAFMO/testing/1XHP/gamess/usrc_36/1XHP_nlb_decoy_36.F07.007
-rw-r--r-- 1 hazwong frank  4680416 Mar 19 23:58 /home/hazwong/test/git_repository/RNAFMO/testing/1XHP/gamess/usrc_36/1XHP_nlb_decoy_36.F08.000
-rw-r--r-- 1 hazwong frank  2160192 Mar 19 23:58 /home/hazwong/test/git_repository/RNAFMO/testing/1XHP/gamess/usrc_36/1XHP_nlb_decoy_36.F08.001
-rw-r--r-- 1 hazwong frank  4860432 Mar 19 23:58 /home/hazwong/test/git_repository/RNAFMO/testing/1XHP/gamess/usrc_36/1XHP_nlb_decoy_36.F08.002
-rw-r--r-- 1 hazwong frank   360032 Mar 19 23:53 /home/hazwong/test/git_repository/RNAFMO/testing/1XHP/gamess/usrc_36/1XHP_nlb_decoy_36.F08.003
-rw-r--r-- 1 hazwong frank  1440128 Mar 19 23:58 /home/hazwong/test/git_repository/RNAFMO/testing/1XHP/gamess/usrc_36/1XHP_nlb_decoy_36.F08.004
-rw-r--r-- 1 hazwong frank  3960352 Mar 19 23:58 /home/hazwong/test/git_repository/RNAFMO/testing/1XHP/gamess/usrc_36/1XHP_nlb_decoy_36.F08.005
-rw-r--r-- 1 hazwong frank  3240288 Mar 19 23:58 /home/hazwong/test/git_repository/RNAFMO/testing/1XHP/gamess/usrc_36/1XHP_nlb_decoy_36.F08.006
-rw-r--r-- 1 hazwong frank  4320384 Mar 19 23:58 /home/hazwong/test/git_repository/RNAFMO/testing/1XHP/gamess/usrc_36/1XHP_nlb_decoy_36.F08.007
-rw-r--r-- 1 hazwong frank 14789440 Mar 20 00:01 /home/hazwong/test/git_repository/RNAFMO/testing/1XHP/gamess/usrc_36/1XHP_nlb_decoy_36.F10.000
-rw-r--r-- 1 hazwong frank        0 Mar 19 20:06 /home/hazwong/test/git_repository/RNAFMO/testing/1XHP/gamess/usrc_36/1XHP_nlb_decoy_36.F38.000
-rw-r--r-- 1 hazwong frank        0 Mar 19 20:06 /home/hazwong/test/git_repository/RNAFMO/testing/1XHP/gamess/usrc_36/1XHP_nlb_decoy_36.F38.001
-rw-r--r-- 1 hazwong frank        0 Mar 19 20:06 /home/hazwong/test/git_repository/RNAFMO/testing/1XHP/gamess/usrc_36/1XHP_nlb_decoy_36.F38.002
-rw-r--r-- 1 hazwong frank        0 Mar 19 20:06 /home/hazwong/test/git_repository/RNAFMO/testing/1XHP/gamess/usrc_36/1XHP_nlb_decoy_36.F38.003
-rw-r--r-- 1 hazwong frank        0 Mar 19 20:06 /home/hazwong/test/git_repository/RNAFMO/testing/1XHP/gamess/usrc_36/1XHP_nlb_decoy_36.F38.004
-rw-r--r-- 1 hazwong frank        0 Mar 19 20:06 /home/hazwong/test/git_repository/RNAFMO/testing/1XHP/gamess/usrc_36/1XHP_nlb_decoy_36.F38.005
-rw-r--r-- 1 hazwong frank        0 Mar 19 20:06 /home/hazwong/test/git_repository/RNAFMO/testing/1XHP/gamess/usrc_36/1XHP_nlb_decoy_36.F38.006
-rw-r--r-- 1 hazwong frank        0 Mar 19 20:06 /home/hazwong/test/git_repository/RNAFMO/testing/1XHP/gamess/usrc_36/1XHP_nlb_decoy_36.F38.007
-rw-r--r-- 1 hazwong frank 13778944 Mar 19 23:58 /home/hazwong/test/git_repository/RNAFMO/testing/1XHP/gamess/usrc_36/1XHP_nlb_decoy_36.F40.000
-rw-r--r-- 1 hazwong frank 13778944 Mar 19 23:58 /home/hazwong/test/git_repository/RNAFMO/testing/1XHP/gamess/usrc_36/1XHP_nlb_decoy_36.F40.001
-rw-r--r-- 1 hazwong frank 13778944 Mar 19 23:58 /home/hazwong/test/git_repository/RNAFMO/testing/1XHP/gamess/usrc_36/1XHP_nlb_decoy_36.F40.002
-rw-r--r-- 1 hazwong frank 13778944 Mar 19 23:58 /home/hazwong/test/git_repository/RNAFMO/testing/1XHP/gamess/usrc_36/1XHP_nlb_decoy_36.F40.003
-rw-r--r-- 1 hazwong frank 13778944 Mar 19 23:58 /home/hazwong/test/git_repository/RNAFMO/testing/1XHP/gamess/usrc_36/1XHP_nlb_decoy_36.F40.004
-rw-r--r-- 1 hazwong frank 13778944 Mar 19 23:58 /home/hazwong/test/git_repository/RNAFMO/testing/1XHP/gamess/usrc_36/1XHP_nlb_decoy_36.F40.005
-rw-r--r-- 1 hazwong frank 13778944 Mar 19 23:58 /home/hazwong/test/git_repository/RNAFMO/testing/1XHP/gamess/usrc_36/1XHP_nlb_decoy_36.F40.006
-rw-r--r-- 1 hazwong frank 13778944 Mar 19 23:58 /home/hazwong/test/git_repository/RNAFMO/testing/1XHP/gamess/usrc_36/1XHP_nlb_decoy_36.F40.007
Wed Mar 20 00:01:28 EDT 2019
0.248u 0.062s 3:55:18.95 0.0%	0+0k 40+376io 1pf+0w
