----- GAMESS execution script 'rungms' -----
This job is running on host gollum152.lsa.umich.edu
under operating system Linux at Thu Mar 21 12:48:56 EDT 2019
Available scratch disk space (Kbyte units) at beginning of the job is
Filesystem             1K-blocks        Used   Available Use% Mounted on
frank-00:/home/hazwong
                     58597580800 30531329024 28066251776  53% /home/hazwong
GAMESS temporary binary files will be written to /home/hazwong/test/git_repository/RNAFMO/testing/1XHP/gamess/usrc_54
GAMESS supplementary output files will be written to /home/hazwong/test/git_repository/RNAFMO/testing/1XHP/gamess/src_54/
Copying input file 1XHP_nlb_decoy_54.inp to your run's scratch directory...
This is a GDDI run, keeping various output files on local disks
 
Assuming a single but multicore node.
 

 Distributed Data Interface kickoff program.
 Initiating 8 compute processes on 1 nodes to run the following command:
 /export/apps/gamess/src/build//gamess.R3.x 1XHP_nlb_decoy_54 

          ******************************************************
          *         GAMESS VERSION = 30 SEP 2018 (R3)         *
          *             FROM IOWA STATE UNIVERSITY             *
          * M.W.SCHMIDT, K.K.BALDRIDGE, J.A.BOATZ, S.T.ELBERT, *
          *   M.S.GORDON, J.H.JENSEN, S.KOSEKI, N.MATSUNAGA,   *
          *          K.A.NGUYEN, S.J.SU, T.L.WINDUS,           *
          *       TOGETHER WITH M.DUPUIS, J.A.MONTGOMERY       *
          *         J.COMPUT.CHEM.  14, 1347-1363(1993)        *
          **************** 64 BIT LINUX VERSION ****************

  SINCE 1993, STUDENTS AND POSTDOCS WORKING AT IOWA STATE UNIVERSITY
  AND ALSO IN THEIR VARIOUS JOBS AFTER LEAVING ISU HAVE MADE IMPORTANT
  CONTRIBUTIONS TO THE CODE:
     IVANA ADAMOVIC, CHRISTINE AIKENS, YURI ALEXEEV, POOJA ARORA,
     ANDREY ASADCHEV, ROB BELL, PRADIPTA BANDYOPADHYAY, JONATHAN BENTZ,
     BRETT BODE, KURT BRORSEN, CALEB CARLIN, GALINA CHABAN, WEI CHEN,
     CHEOL HO CHOI, PAUL DAY, ALBERT DEFUSCO, NUWAN DESILVA, TIM DUDLEY,
     DMITRI FEDOROV, ALEX FINDLATER, GRAHAM FLETCHER, MARK FREITAG,
     KURT GLAESEMANN, ANASTASIA GUNINA,
     DAN KEMP, GRANT MERRILL, NORIYUKI MINEZAWA, JONATHAN MULLIN,
     TAKESHI NAGATA, SEAN NEDD, HEATHER NETZLOFF, BOSILJKA NJEGIC, RYAN OLSON,
     MIKE PAK, BUU PHAM,
     SPENCER PRUITT, LUKE ROSKOP, JIM SHOEMAKER, LYUDMILA SLIPCHENKO,
     TONY SMITH, SAROM SOK LEANG, JIE SONG, TETSUYA TAKETSUGU, SIMON WEBB,
     PENG XU, SOOHAENG YOO, FEDERICO ZAHARIEV

  ADDITIONAL CODE HAS BEEN PROVIDED BY COLLABORATORS IN OTHER GROUPS:
     IOWA STATE UNIVERSITY:
          JOE IVANIC, AARON WEST, LAIMUTIS BYTAUTAS, KLAUS RUEDENBERG
     UNIVERSITY OF TOKYO: KIMIHIKO HIRAO, TAKAHITO NAKAJIMA,
          TAKAO TSUNEDA, MUNEAKI KAMIYA, SUSUMU YANAGISAWA,
          KIYOSHI YAGI, MAHITO CHIBA, SEIKEN TOKURA, NAOAKI KAWAKAMI
     UNIVERSITY OF AARHUS: FRANK JENSEN
     UNIVERSITY OF IOWA: VISVALDAS KAIRYS, HUI LI
     NATIONAL INST. OF STANDARDS AND TECHNOLOGY: WALT STEVENS, DAVID GARMER
     UNIVERSITY OF PISA: BENEDETTA MENNUCCI, JACOPO TOMASI
     UNIVERSITY OF MEMPHIS: HENRY KURTZ, PRAKASHAN KORAMBATH
     UNIVERSITY OF ALBERTA: TOBY ZENG, MARIUSZ KLOBUKOWSKI
     UNIVERSITY OF NEW ENGLAND: MARK SPACKMAN
     MIE UNIVERSITY: HIROAKI UMEDA
     NAT. INST. OF ADVANCED INDUSTRIAL SCIENCE AND TECHNOLOGY: KAZUO KITAURA
     MICHIGAN STATE UNIVERSITY:
          KAROL KOWALSKI, MARTA WLOCH, JEFFREY GOUR, JESSE LUTZ,
          WEI LI, JUN SHEN, J. EMILIANO DEUSTUA, PIOTR PIECUCH
     UNIVERSITY OF MINNESOTA:
          YINAN SHU
     UNIVERSITY OF SILESIA: MONIKA MUSIAL, STANISLAW KUCHARSKI
     FACULTES UNIVERSITAIRES NOTRE-DAME DE LA PAIX:
          OLIVIER QUINET, BENOIT CHAMPAGNE
     UNIVERSITY OF CALIFORNIA - SANTA BARBARA: BERNARD KIRTMAN
     INSTITUTE FOR MOLECULAR SCIENCE:
          KAZUYA ISHIMURA, MICHIO KATOUDA, AND SHIGERU NAGASE
     UNIVERSITY OF NOTRE DAME: ANNA POMOGAEVA, DAN CHIPMAN
     KYUSHU UNIVERSITY:
          HARUYUKI NAKANO,
          FENG LONG GU, JACEK KORCHOWIEC, MARCIN MAKOWSKI, AND YURIKO AOKI,
          HIROTOSHI MORI AND EISAKU MIYOSHI
     PENNSYLVANIA STATE UNIVERSITY:
          TZVETELIN IORDANOV, CHET SWALINA, JONATHAN SKONE,
          SHARON HAMMES-SCHIFFER
     WASEDA UNIVERSITY:
          MASATO KOBAYASHI, TOMOKO AKAMA, TSUGUKI TOUMA,
          TAKESHI YOSHIKAWA, YASUHIRO IKABATA, JUNJI SEINO,
          YUYA NAKAJIMA, HIROMI NAKAI
     NANJING UNIVERSITY: SHUHUA LI
     UNIVERSITY OF NEBRASKA:
          PEIFENG SU, DEJUN SI, NANDUN THELLAMUREGE, YALI WANG, HUI LI
     UNIVERSITY OF ZURICH: ROBERTO PEVERATI, KIM BALDRIDGE
     N. COPERNICUS UNIVERSITY AND JACKSON STATE UNIVERSITY:
          MARIA BARYSZ
     UNIVERSITY OF COPENHAGEN: Jimmy Kromann, CASPER STEINMANN
     TOKYO INSTITUTE OF TECHNOLOGY: HIROYA NAKATA
     NAGOYA UNIVERSITY: YOSHIO NISHIMOTO, STEPHAN IRLE
     MOSCOW STATE UNIVERSITY: VLADIMIR MIRONOV


 PARALLEL VERSION RUNNING ON        8 PROCESSORS IN        1 NODES.

 EXECUTION OF GAMESS BEGUN Thu Mar 21 12:48:56 2019

            ECHO OF THE FIRST FEW INPUT CARDS -
 INPUT CARD>!*** FMO 5.2 (Gamess) INPUT generated by Facio 21.1.1.32 ***                    
 INPUT CARD> $CONTRL RUNTYP=OPTFMO NPRINT=-5 ISPHER=-1 MAXIT=50 $END                        
 INPUT CARD> $SYSTEM MWORDS=29 $END                                                         
 INPUT CARD> $GDDI NGROUP=1 $END                                                            
 INPUT CARD> $INTGRL NINTIC=-9000000 $END                                                   
 INPUT CARD> $SCF DIRSCF=.FALSE. NPUNCH=0 $END                                              
 INPUT CARD>!*** NumCPU : 2  MemPerNode : 512MB                                             
 INPUT CARD> $FMOPRP                                                                        
 INPUT CARD>    NAODIR=210                                                                  
 INPUT CARD>    NGRFMO(1)=1, 1, 0, 0, 0,   0, 0, 0, 0, 0                                    
 INPUT CARD>    NPRINT=9                                                                    
 INPUT CARD> $END                                                                           
 INPUT CARD> $FMO                                                                           
 INPUT CARD>      SCFTYP(1)=RHF                                                             
 INPUT CARD>      MODGRD=10                                                                 
 INPUT CARD>      MODMUL=0                                                                  
 INPUT CARD>      MAXCAO=5                                                                  
 INPUT CARD>      MAXBND=34                                                                 
 INPUT CARD>      NLAYER=1                                                                  
 INPUT CARD>      NFRAG=32                                                                  
 INPUT CARD>      ICHARG(1)=-1, -1, -1, -1, -1, -1, -1, -1, -1, -1,                         
 INPUT CARD>-1, -1, -1, -1, -1, -1, -1, -1, -1, -1,                                         
 INPUT CARD>-1, -1, -1, -1, -1, -1, -1, -1, -1, -1,                                         
 INPUT CARD>-1, 0                                                                           
 INPUT CARD>      FRGNAM(1)=Frag1, Frag2, Frag3, Frag4, Frag5, Frag6, Frag7, Frag8, Frag9, F
 INPUT CARD>      indat(1)=0                                                                
 INPUT CARD>               1   -36   0                                                      
 INPUT CARD>               37   -69   0                                                     
 INPUT CARD>               70   -103   0                                                    
 INPUT CARD>               104   -134   0                                                   
 INPUT CARD>               135   -167   0                                                   
 INPUT CARD>               168   -201   0                                                   
 INPUT CARD>               202   -231   0                                                   
 INPUT CARD>               232   -261   0                                                   
 INPUT CARD>               262   -292   0                                                   
 INPUT CARD>               293   -323   0                                                   
 INPUT CARD>               324   -354   0                                                   
 INPUT CARD>               355   -385   0                                                   
 INPUT CARD>               386   -415   0                                                   
 INPUT CARD>               416   -449   0                                                   
 INPUT CARD>               450   -480   0                                                   
 INPUT CARD>               481   -513   0                                                   
 INPUT CARD>               514   -543   0                                                   
 INPUT CARD>               544   -576   0                                                   
 INPUT CARD>               577   -609   0                                                   
 INPUT CARD>               610   -643   0                                                   
 INPUT CARD>               644   -677   0                                                   
 INPUT CARD>               678   -710   0                                                   
 INPUT CARD>               711   -740   0                                                   
 INPUT CARD>               741   -774   0                                                   


 -------------------------------------------------------------
 GROUP DDI, PROGRAMMED BY: RYAN M. OLSON AND DMITRI G. FEDOROV
        FEDOROV ET AL., J. COMPUT. CHEM., 25 (2004) 872.
 -------------------------------------------------------------

 -------------------------------------------------------
 GDDI: INITIALIZATION COMPLETED FOR GROUP     1 OF     1
 WITH     8 PROCESSES BALTYP=DLB   global rank=        0
 -------------------------------------------------------

   29000000 WORDS OF MEMORY AVAILABLE


     RUN TITLE
     ---------
  FMO calculation : XXNAMEXX                                                     

 THE POINT GROUP OF THE MOLECULE IS C1      
 THE ORDER OF THE PRINCIPAL AXIS IS     0

 ATOM   ATOMIC CHARGE
 C.1-1       6.0
 O.1-1       8.0
 N.1-1       7.0
 H.1-1       1.0
 P.1-1      15.0

     ATOMIC BASIS SET LIBRARY
     ----------------
 THE CONTRACTED PRIMITIVE FUNCTIONS HAVE BEEN UNNORMALIZED
 THE CONTRACTED BASIS FUNCTIONS ARE NOW NORMALIZED TO UNITY

  SHELL TYPE  PRIMITIVE        EXPONENT          CONTRACTION COEFFICIENT(S)

 C.1-1     

      1   S       1           172.2560000    0.061766907377
      1   S       2            25.9109000    0.358794042852
      1   S       3             5.5333500    0.700713083689

      2   L       4             3.6649800   -0.395895162119    0.236459946619
      2   L       5             0.7705450    1.215834355681    0.860618805716

      3   L       6             0.1958570    1.000000000000    1.000000000000

 O.1-1     

      4   S       7           322.0370000    0.059239393389
      4   S       8            48.4308000    0.351499960776
      4   S       9            10.4206000    0.707657921031

      5   L      10             7.4029400   -0.404453583190    0.244586106967
      5   L      11             1.5762000    1.221561761397    0.853955373466

      6   L      12             0.3736840    1.000000000000    1.000000000000

 N.1-1     

      7   S      13           242.7660000    0.059865700508
      7   S      14            36.4851000    0.352955002994
      7   S      15             7.8144900    0.706513005993

      8   L      16             5.4252200   -0.413300077430    0.237972016222
      8   L      17             1.1491500    1.224417266851    0.858953058551

      9   L      18             0.2832050    1.000000000000    1.000000000000

 H.1-1     

     10   S      19             5.4471780    0.156284978695
     10   S      20             0.8245472    0.904690876670

     11   S      21             0.1831916    1.000000000000

 P.1-1     

     12   S      22          1054.9000000    0.065540713549
     12   S      23           159.1950000    0.384036079392
     12   S      24            34.5304000    0.674541139449

     13   L      25            44.2866000   -0.102130053458    0.110851002536
     13   L      26            10.1019000    0.081592242708    0.456495010442
     13   L      27             2.7399700    0.969788507613    0.606936013883

     14   L      28             1.2186500   -0.371496021877    0.091582310217
     14   L      29             0.3955460    1.270993496131    0.934924104303

     15   L      30             0.1228110    1.000000000000    1.000000000000

 TOTAL NUMBER OF BASIS SET SHELLS             =   15
 NUMBER OF CARTESIAN GAUSSIAN BASIS FUNCTIONS =   42

     $CONTRL OPTIONS
     ---------------
 SCFTYP=RHF          RUNTYP=OPTFMO       EXETYP=RUN     
 MPLEVL=       0     CITYP =NONE         CCTYP =NONE         VBTYP =NONE    
 DFTTYP=NONE         TDDFT =NONE    
 MULT  =       1     ICHARG=       0     NZVAR =       0     COORD =UNIQUE  
 PP    =NONE         RELWFN=NONE         LOCAL =NONE         NUMGRD=       F
 ISPHER=      -1     NOSYM =       0     MAXIT =      50     UNITS =ANGS    
 PLTORB=       F     MOLPLT=       F     AIMPAC=       F     FRIEND=        
 NPRINT=      -5     IREST =       0     GEOM  =INPUT   
 NORMF =       0     NORMP =       0     ITOL  =      24     ICUT  =      12
 INTTYP=BEST         GRDTYP=BEST         QMTTOL= 1.0E-06

     $SYSTEM OPTIONS
     ---------------
  REPLICATED MEMORY=    29000000 WORDS (ON EVERY NODE).
 DISTRIBUTED MEMDDI=           0 MILLION WORDS IN AGGREGATE,
 MEMDDI DISTRIBUTED OVER   8 PROCESSORS IS           0 WORDS/PROCESSOR.
 TOTAL MEMORY REQUESTED ON EACH PROCESSOR=    29000000 WORDS.
 TIMLIM=      525600.00 MINUTES, OR     365.0 DAYS.
 PARALL= T  BALTYP=  DLB     KDIAG=    0  COREFL= F
 MXSEQ2=     300 MXSEQ3=     150  mem10=         0

          ----------------
          PROPERTIES INPUT
          ----------------

     MOMENTS            FIELD           POTENTIAL          DENSITY
 IEMOM =       1   IEFLD =       0   IEPOT =       0   IEDEN =       0
 WHERE =COMASS     WHERE =NUCLEI     WHERE =NUCLEI     WHERE =NUCLEI  
 OUTPUT=BOTH       OUTPUT=BOTH       OUTPUT=NONE       OUTPUT=BOTH    
 IEMINT=       0   IEFINT=       0                     IEDINT=       0
                                                       MORB  =       0
          EXTRAPOLATION IN EFFECT
          SOSCF IN EFFECT
 ORBITAL PRINTING OPTION: NPREO=     1 32767     2     1

     -------------------------------
     INTEGRAL TRANSFORMATION OPTIONS
     -------------------------------
     NWORD  =            0
     CUTOFF = 1.0E-10     MPTRAN =       0
     DIRTRF =       F     AOINTS =DUP     

          ----------------------
          INTEGRAL INPUT OPTIONS
          ----------------------
 NOPK  =       1 NORDER=       0 SCHWRZ=       T

 ..... DONE SETTING UP THE RUN .....
 CPU     0: STEP CPU TIME=     0.07 TOTAL CPU TIME=          0.1 (      0.0 MIN)
 TOTAL WALL CLOCK TIME=          0.1 SECONDS, CPU UTILIZATION IS    77.78%

 ALLOCATED      9030000 WORDS FOR IN CORE 2E INTEGRALS.


 """""""""""""""""""""""""""""""""""""""""""""""""""""""""""""""""""""""""""
 FMO geometry optimisation driver:

 Method=HSSUPD   UPDATE=BFGS       Hess=GUESS    LINSER=   0   NFRZ=     0
   STEP=  0.7500 STPMIN=  0.0000 STPMAX=  1.0000 STPFAC=  1.0000

 Using     28676 words of memory.
 """""""""""""""""""""""""""""""""""""""""""""""""""""""""""""""""""""""""""

 Using   590016 words of incore integral buffer to store inverse Hessian.

 CPU     0: STEP CPU TIME=     0.01 TOTAL CPU TIME=          0.1 (      0.0 MIN)
 TOTAL WALL CLOCK TIME=          0.1 SECONDS, CPU UTILIZATION IS    80.00%

                    ----------------------
                    AO INTEGRAL TECHNOLOGY
                    ----------------------
     S,P,L SHELL ROTATED AXIS INTEGRALS, REPROGRAMMED BY
        KAZUYA ISHIMURA (IMS) AND JOSE SIERRA (SYNSTAR).
     S,P,D,L SHELL ROTATED AXIS INTEGRALS PROGRAMMED BY
        KAZUYA ISHIMURA (INSTITUTE FOR MOLECULAR SCIENCE).
     S,P,D,F,G SHELL TO TOTAL QUARTET ANGULAR MOMENTUM SUM 5,
        ERIC PROGRAM BY GRAHAM FLETCHER (ELORET AND NASA ADVANCED
        SUPERCOMPUTING DIVISION, AMES RESEARCH CENTER).
     S,P,D,F,G,L SHELL GENERAL RYS QUADRATURE PROGRAMMED BY
        MICHEL DUPUIS (PACIFIC NORTHWEST NATIONAL LABORATORY).
 CPU     0: STEP CPU TIME=     0.04 TOTAL CPU TIME=          0.1 (      0.0 MIN)
 TOTAL WALL CLOCK TIME=          0.2 SECONDS, CPU UTILIZATION IS    80.00%
 CPU     0: STEP CPU TIME=     0.00 TOTAL CPU TIME=          0.1 (      0.0 MIN)
 TOTAL WALL CLOCK TIME=          0.2 SECONDS, CPU UTILIZATION IS    80.00%
 Initialising fragments
 CPU     0: STEP CPU TIME=     0.00 TOTAL CPU TIME=          0.1 (      0.0 MIN)
 TOTAL WALL CLOCK TIME=          0.2 SECONDS, CPU UTILIZATION IS    80.00%
 CPU     0: STEP CPU TIME=     0.00 TOTAL CPU TIME=          0.1 (      0.0 MIN)
 TOTAL WALL CLOCK TIME=          0.2 SECONDS, CPU UTILIZATION IS    80.00%

 -----------------------------------------------------------------------
                  The Fragment Molecular Orbital (FMO) method.
                       The program is developed at the
                     Nanoscience Research Institute (NRI)
     (formerly, Research Institute for Computational Sciences, RICS)
 National Institute of Advanced Industrial Science and Technology (AIST)
     AIST Tsukuba Central 2, Umezono 1-1-1, Tsukuba, 305-8568, Japan.

                         Version 5.3
                    coded by D. G. Fedorov and K. Kitaura,
 with contributions from N. Asada, K.R. Brorsen, M. Chiba, C. Choi, N. Minezawa,
 T. Nagata, H. Nakata, Y. Nishimoto, S.R. Pruitt, C. Steinmann, and F. Zahariev.
       All publications using the FMO method in GAMESS should reference:
          D. G. Fedorov, K. Kitaura, J. Chem. Phys. 120, 6832 (2004).
 -----------------------------------------------------------------------

 Used memory (words):      1729362
 Number of fragments:     32
 Number of layers:         1
 N-body FMO method:        2
 Number of atoms:       1024
 Total charge:           -31
 Total spin multiplicity:  1
 Number of basis sets:     1
 Number of LMO types:      2
 Number of boundaries:    31
 MonomerSCF convergence:   0.1000E-06
 Max monomerSCF iter:     30
 MonomerSCF criterion:     internal
 Max AOs per n-mer:      253      495
 Projection operator constant:  0.10E+07
 Layer electron correlation information
     nbody=  2
    SCFTYP=RHF     
    MPLEVL=  0
    DFTTYP=NONE    
     CITYP=NONE    
     CCTYP=NONE    
     TDDFT=NONE    
 FMO method: FMO2-RHF

 Bond fragmentation scheme: HOP

 FMO approximations.
    Using point charge approximation for the 2e ESP with the VdW factor   2.00
    Using ES-dimer approximation with the VdW factor   2.00
    The uniform distances will be used in ESPs.
    Van der Waals radii in Angstrom are:
       R(H  )=  1.2000
       R(O  )=  1.4000
       R(C  )=  1.5000
       R(N  )=  1.5000
       R(P  )=  1.8000
    FMO gradient: add ESP derivative terms.
    FMO gradient: add Mulliken charge derivative.
    FMO gradient: add HOP derivatives.

 FMO initial guess options.
    Using monomer density to form dimer guess.

 FMO extensions.

 FMO automation options.

 FMO SCF converger options.
    SCF convergers:
     65     65     65     65     65     65     65     65     65     65
    Fragment densities will be exchanged.

 FMO parallelisation options.
    Smart parallel load balancing: large jobs first.
    ESPs will be shell parallelised.
    Broadcast all fragments at once.
    Do the fragment initialisation in the reverse order.
    Layer 1, monomer(SCF,MP2,MCSCF) groups are:    1    0    0
    Layer 1,   dimer(SCF,ESD,MCSCF) groups are:    1    0    0

 FMO properties and print-out level.
    Interfragment CT method:    4
       Compact print-out level.
    Atomic charges will be printed.

 Array dimensions maxbnd,maxknd,maxcbs,maxcao,maxbbd are:
                      34     10     13      5     13

 --------------------------------------------------




 Starting layer 1 nbody=2
 SCFTYP=RHF     MPLEVL=0 DFTTYP=NONE    CITYP=NONE    CCTYP=NONE    TDDFT=NONE    


 CPU     0: STEP CPU TIME=     0.02 TOTAL CPU TIME=          0.1 (      0.0 MIN)
 TOTAL WALL CLOCK TIME=          0.2 SECONDS, CPU UTILIZATION IS    82.35%

 Running initial guess for monomer      32


          -------------
          GUESS OPTIONS
          -------------
          GUESS =HUCKEL            NORB  =       0          NORDER=       0
          MIX   =       F          PRTMO =       F          PUNMO =       F
          TOLZ  = 1.0E-08          TOLE  = 1.0E-05
          SYMDEN=       F          PURIFY=       F

 INITIAL GUESS ORBITALS GENERATED BY HUCKEL   ROUTINE.
 HUCKEL GUESS REQUIRES    259752 WORDS.

 SYMMETRIES FOR INITIAL GUESS ORBITALS FOLLOW.   BOTH SET(S).
    59 ORBITALS ARE OCCUPIED (   16 CORE ORBITALS).
    17=A       18=A       19=A       20=A       21=A       22=A       23=A   
    24=A       25=A       26=A       27=A       28=A       29=A       30=A   
    31=A       32=A       33=A       34=A       35=A       36=A       37=A   
    38=A       39=A       40=A       41=A       42=A       43=A       44=A   
    45=A       46=A       47=A       48=A       49=A       50=A       51=A   
    52=A       53=A       54=A       55=A       56=A       57=A       58=A   
    59=A       60=A       61=A       62=A       63=A       64=A       65=A   
    66=A       67=A       68=A       69=A   
 ...... END OF INITIAL ORBITAL SELECTION ......
 CPU     0: STEP CPU TIME=     0.04 TOTAL CPU TIME=          0.2 (      0.0 MIN)
 TOTAL WALL CLOCK TIME=          0.2 SECONDS, CPU UTILIZATION IS    72.00%

 Running initial guess for monomer      31


          -------------
          GUESS OPTIONS
          -------------
          GUESS =HUCKEL            NORB  =       0          NORDER=       0
          MIX   =       F          PRTMO =       F          PUNMO =       F
          TOLZ  = 1.0E-08          TOLE  = 1.0E-05
          SYMDEN=       F          PURIFY=       F

 INITIAL GUESS ORBITALS GENERATED BY HUCKEL   ROUTINE.
 HUCKEL GUESS REQUIRES    405894 WORDS.

 SYMMETRIES FOR INITIAL GUESS ORBITALS FOLLOW.   BOTH SET(S).
    79 ORBITALS ARE OCCUPIED (   24 CORE ORBITALS).
    25=A       26=A       27=A       28=A       29=A       30=A       31=A   
    32=A       33=A       34=A       35=A       36=A       37=A       38=A   
    39=A       40=A       41=A       42=A       43=A       44=A       45=A   
    46=A       47=A       48=A       49=A       50=A       51=A       52=A   
    53=A       54=A       55=A       56=A       57=A       58=A       59=A   
    60=A       61=A       62=A       63=A       64=A       65=A       66=A   
    67=A       68=A       69=A       70=A       71=A       72=A       73=A   
    74=A       75=A       76=A       77=A       78=A       79=A       80=A   
    81=A       82=A       83=A       84=A       85=A       86=A       87=A   
    88=A       89=A   
 ...... END OF INITIAL ORBITAL SELECTION ......
 CPU     0: STEP CPU TIME=     0.09 TOTAL CPU TIME=          0.3 (      0.0 MIN)
 TOTAL WALL CLOCK TIME=          0.4 SECONDS, CPU UTILIZATION IS    67.50%

 Running initial guess for monomer      30


          -------------
          GUESS OPTIONS
          -------------
          GUESS =HUCKEL            NORB  =       0          NORDER=       0
          MIX   =       F          PRTMO =       F          PUNMO =       F
          TOLZ  = 1.0E-08          TOLE  = 1.0E-05
          SYMDEN=       F          PURIFY=       F

 INITIAL GUESS ORBITALS GENERATED BY HUCKEL   ROUTINE.
 HUCKEL GUESS REQUIRES    405894 WORDS.

 SYMMETRIES FOR INITIAL GUESS ORBITALS FOLLOW.   BOTH SET(S).
    79 ORBITALS ARE OCCUPIED (   24 CORE ORBITALS).
    25=A       26=A       27=A       28=A       29=A       30=A       31=A   
    32=A       33=A       34=A       35=A       36=A       37=A       38=A   
    39=A       40=A       41=A       42=A       43=A       44=A       45=A   
    46=A       47=A       48=A       49=A       50=A       51=A       52=A   
    53=A       54=A       55=A       56=A       57=A       58=A       59=A   
    60=A       61=A       62=A       63=A       64=A       65=A       66=A   
    67=A       68=A       69=A       70=A       71=A       72=A       73=A   
    74=A       75=A       76=A       77=A       78=A       79=A       80=A   
    81=A       82=A       83=A       84=A       85=A       86=A       87=A   
    88=A       89=A   
 ...... END OF INITIAL ORBITAL SELECTION ......
 CPU     0: STEP CPU TIME=     0.07 TOTAL CPU TIME=          0.3 (      0.0 MIN)
 TOTAL WALL CLOCK TIME=          0.5 SECONDS, CPU UTILIZATION IS    64.15%

 Running initial guess for monomer      29


          -------------
          GUESS OPTIONS
          -------------
          GUESS =HUCKEL            NORB  =       0          NORDER=       0
          MIX   =       F          PRTMO =       F          PUNMO =       F
          TOLZ  = 1.0E-08          TOLE  = 1.0E-05
          SYMDEN=       F          PURIFY=       F

 INITIAL GUESS ORBITALS GENERATED BY HUCKEL   ROUTINE.
 HUCKEL GUESS REQUIRES    520404 WORDS.

 SYMMETRIES FOR INITIAL GUESS ORBITALS FOLLOW.   BOTH SET(S).
    89 ORBITALS ARE OCCUPIED (   27 CORE ORBITALS).
    28=A       29=A       30=A       31=A       32=A       33=A       34=A   
    35=A       36=A       37=A       38=A       39=A       40=A       41=A   
    42=A       43=A       44=A       45=A       46=A       47=A       48=A   
    49=A       50=A       51=A       52=A       53=A       54=A       55=A   
    56=A       57=A       58=A       59=A       60=A       61=A       62=A   
    63=A       64=A       65=A       66=A       67=A       68=A       69=A   
    70=A       71=A       72=A       73=A       74=A       75=A       76=A   
    77=A       78=A       79=A       80=A       81=A       82=A       83=A   
    84=A       85=A       86=A       87=A       88=A       89=A       90=A   
    91=A       92=A       93=A       94=A       95=A       96=A       97=A   
    98=A       99=A   
 ...... END OF INITIAL ORBITAL SELECTION ......
 CPU     0: STEP CPU TIME=     0.09 TOTAL CPU TIME=          0.4 (      0.0 MIN)
 TOTAL WALL CLOCK TIME=          0.7 SECONDS, CPU UTILIZATION IS    61.43%

 Running initial guess for monomer      28


          -------------
          GUESS OPTIONS
          -------------
          GUESS =HUCKEL            NORB  =       0          NORDER=       0
          MIX   =       F          PRTMO =       F          PUNMO =       F
          TOLZ  = 1.0E-08          TOLE  = 1.0E-05
          SYMDEN=       F          PURIFY=       F

 INITIAL GUESS ORBITALS GENERATED BY HUCKEL   ROUTINE.
 HUCKEL GUESS REQUIRES    413697 WORDS.

 SYMMETRIES FOR INITIAL GUESS ORBITALS FOLLOW.   BOTH SET(S).
    79 ORBITALS ARE OCCUPIED (   24 CORE ORBITALS).
    25=A       26=A       27=A       28=A       29=A       30=A       31=A   
    32=A       33=A       34=A       35=A       36=A       37=A       38=A   
    39=A       40=A       41=A       42=A       43=A       44=A       45=A   
    46=A       47=A       48=A       49=A       50=A       51=A       52=A   
    53=A       54=A       55=A       56=A       57=A       58=A       59=A   
    60=A       61=A       62=A       63=A       64=A       65=A       66=A   
    67=A       68=A       69=A       70=A       71=A       72=A       73=A   
    74=A       75=A       76=A       77=A       78=A       79=A       80=A   
    81=A       82=A       83=A       84=A       85=A       86=A       87=A   
    88=A       89=A   
 ...... END OF INITIAL ORBITAL SELECTION ......
 CPU     0: STEP CPU TIME=     0.09 TOTAL CPU TIME=          0.5 (      0.0 MIN)
 TOTAL WALL CLOCK TIME=          0.9 SECONDS, CPU UTILIZATION IS    60.47%

 Running initial guess for monomer      27


          -------------
          GUESS OPTIONS
          -------------
          GUESS =HUCKEL            NORB  =       0          NORDER=       0
          MIX   =       F          PRTMO =       F          PUNMO =       F
          TOLZ  = 1.0E-08          TOLE  = 1.0E-05
          SYMDEN=       F          PURIFY=       F

 INITIAL GUESS ORBITALS GENERATED BY HUCKEL   ROUTINE.
 HUCKEL GUESS REQUIRES    413697 WORDS.

 SYMMETRIES FOR INITIAL GUESS ORBITALS FOLLOW.   BOTH SET(S).
    79 ORBITALS ARE OCCUPIED (   24 CORE ORBITALS).
    25=A       26=A       27=A       28=A       29=A       30=A       31=A   
    32=A       33=A       34=A       35=A       36=A       37=A       38=A   
    39=A       40=A       41=A       42=A       43=A       44=A       45=A   
    46=A       47=A       48=A       49=A       50=A       51=A       52=A   
    53=A       54=A       55=A       56=A       57=A       58=A       59=A   
    60=A       61=A       62=A       63=A       64=A       65=A       66=A   
    67=A       68=A       69=A       70=A       71=A       72=A       73=A   
    74=A       75=A       76=A       77=A       78=A       79=A       80=A   
    81=A       82=A       83=A       84=A       85=A       86=A       87=A   
    88=A       89=A   
 ...... END OF INITIAL ORBITAL SELECTION ......
 CPU     0: STEP CPU TIME=     0.07 TOTAL CPU TIME=          0.6 (      0.0 MIN)
 TOTAL WALL CLOCK TIME=          1.0 SECONDS, CPU UTILIZATION IS    59.60%

 Running initial guess for monomer      26


          -------------
          GUESS OPTIONS
          -------------
          GUESS =HUCKEL            NORB  =       0          NORDER=       0
          MIX   =       F          PRTMO =       F          PUNMO =       F
          TOLZ  = 1.0E-08          TOLE  = 1.0E-05
          SYMDEN=       F          PURIFY=       F

 INITIAL GUESS ORBITALS GENERATED BY HUCKEL   ROUTINE.
 HUCKEL GUESS REQUIRES    483461 WORDS.

 SYMMETRIES FOR INITIAL GUESS ORBITALS FOLLOW.   BOTH SET(S).
    85 ORBITALS ARE OCCUPIED (   26 CORE ORBITALS).
    27=A       28=A       29=A       30=A       31=A       32=A       33=A   
    34=A       35=A       36=A       37=A       38=A       39=A       40=A   
    41=A       42=A       43=A       44=A       45=A       46=A       47=A   
    48=A       49=A       50=A       51=A       52=A       53=A       54=A   
    55=A       56=A       57=A       58=A       59=A       60=A       61=A   
    62=A       63=A       64=A       65=A       66=A       67=A       68=A   
    69=A       70=A       71=A       72=A       73=A       74=A       75=A   
    76=A       77=A       78=A       79=A       80=A       81=A       82=A   
    83=A       84=A       85=A       86=A       87=A       88=A       89=A   
    90=A       91=A       92=A       93=A       94=A       95=A   
 ...... END OF INITIAL ORBITAL SELECTION ......
 CPU     0: STEP CPU TIME=     0.10 TOTAL CPU TIME=          0.7 (      0.0 MIN)
 TOTAL WALL CLOCK TIME=          1.2 SECONDS, CPU UTILIZATION IS    60.00%

 Running initial guess for monomer      25


          -------------
          GUESS OPTIONS
          -------------
          GUESS =HUCKEL            NORB  =       0          NORDER=       0
          MIX   =       F          PRTMO =       F          PUNMO =       F
          TOLZ  = 1.0E-08          TOLE  = 1.0E-05
          SYMDEN=       F          PURIFY=       F

 INITIAL GUESS ORBITALS GENERATED BY HUCKEL   ROUTINE.
 HUCKEL GUESS REQUIRES    483461 WORDS.

 SYMMETRIES FOR INITIAL GUESS ORBITALS FOLLOW.   BOTH SET(S).
    85 ORBITALS ARE OCCUPIED (   26 CORE ORBITALS).
    27=A       28=A       29=A       30=A       31=A       32=A       33=A   
    34=A       35=A       36=A       37=A       38=A       39=A       40=A   
    41=A       42=A       43=A       44=A       45=A       46=A       47=A   
    48=A       49=A       50=A       51=A       52=A       53=A       54=A   
    55=A       56=A       57=A       58=A       59=A       60=A       61=A   
    62=A       63=A       64=A       65=A       66=A       67=A       68=A   
    69=A       70=A       71=A       72=A       73=A       74=A       75=A   
    76=A       77=A       78=A       79=A       80=A       81=A       82=A   
    83=A       84=A       85=A       86=A       87=A       88=A       89=A   
    90=A       91=A       92=A       93=A       94=A       95=A   
 ...... END OF INITIAL ORBITAL SELECTION ......
 CPU     0: STEP CPU TIME=     0.09 TOTAL CPU TIME=          0.8 (      0.0 MIN)
 TOTAL WALL CLOCK TIME=          1.3 SECONDS, CPU UTILIZATION IS    59.54%

 Running initial guess for monomer      24


          -------------
          GUESS OPTIONS
          -------------
          GUESS =HUCKEL            NORB  =       0          NORDER=       0
          MIX   =       F          PRTMO =       F          PUNMO =       F
          TOLZ  = 1.0E-08          TOLE  = 1.0E-05
          SYMDEN=       F          PURIFY=       F

 INITIAL GUESS ORBITALS GENERATED BY HUCKEL   ROUTINE.
 HUCKEL GUESS REQUIRES    520404 WORDS.

 SYMMETRIES FOR INITIAL GUESS ORBITALS FOLLOW.   BOTH SET(S).
    89 ORBITALS ARE OCCUPIED (   27 CORE ORBITALS).
    28=A       29=A       30=A       31=A       32=A       33=A       34=A   
    35=A       36=A       37=A       38=A       39=A       40=A       41=A   
    42=A       43=A       44=A       45=A       46=A       47=A       48=A   
    49=A       50=A       51=A       52=A       53=A       54=A       55=A   
    56=A       57=A       58=A       59=A       60=A       61=A       62=A   
    63=A       64=A       65=A       66=A       67=A       68=A       69=A   
    70=A       71=A       72=A       73=A       74=A       75=A       76=A   
    77=A       78=A       79=A       80=A       81=A       82=A       83=A   
    84=A       85=A       86=A       87=A       88=A       89=A       90=A   
    91=A       92=A       93=A       94=A       95=A       96=A       97=A   
    98=A       99=A   
 ...... END OF INITIAL ORBITAL SELECTION ......
 CPU     0: STEP CPU TIME=     0.11 TOTAL CPU TIME=          0.9 (      0.0 MIN)
 TOTAL WALL CLOCK TIME=          1.5 SECONDS, CPU UTILIZATION IS    59.33%

 Running initial guess for monomer      23


          -------------
          GUESS OPTIONS
          -------------
          GUESS =HUCKEL            NORB  =       0          NORDER=       0
          MIX   =       F          PRTMO =       F          PUNMO =       F
          TOLZ  = 1.0E-08          TOLE  = 1.0E-05
          SYMDEN=       F          PURIFY=       F

 INITIAL GUESS ORBITALS GENERATED BY HUCKEL   ROUTINE.
 HUCKEL GUESS REQUIRES    405894 WORDS.

 SYMMETRIES FOR INITIAL GUESS ORBITALS FOLLOW.   BOTH SET(S).
    79 ORBITALS ARE OCCUPIED (   24 CORE ORBITALS).
    25=A       26=A       27=A       28=A       29=A       30=A       31=A   
    32=A       33=A       34=A       35=A       36=A       37=A       38=A   
    39=A       40=A       41=A       42=A       43=A       44=A       45=A   
    46=A       47=A       48=A       49=A       50=A       51=A       52=A   
    53=A       54=A       55=A       56=A       57=A       58=A       59=A   
    60=A       61=A       62=A       63=A       64=A       65=A       66=A   
    67=A       68=A       69=A       70=A       71=A       72=A       73=A   
    74=A       75=A       76=A       77=A       78=A       79=A       80=A   
    81=A       82=A       83=A       84=A       85=A       86=A       87=A   
    88=A       89=A   
 ...... END OF INITIAL ORBITAL SELECTION ......
 CPU     0: STEP CPU TIME=     0.08 TOTAL CPU TIME=          1.0 (      0.0 MIN)
 TOTAL WALL CLOCK TIME=          1.6 SECONDS, CPU UTILIZATION IS    59.15%

 Running initial guess for monomer      22


          -------------
          GUESS OPTIONS
          -------------
          GUESS =HUCKEL            NORB  =       0          NORDER=       0
          MIX   =       F          PRTMO =       F          PUNMO =       F
          TOLZ  = 1.0E-08          TOLE  = 1.0E-05
          SYMDEN=       F          PURIFY=       F

 INITIAL GUESS ORBITALS GENERATED BY HUCKEL   ROUTINE.
 HUCKEL GUESS REQUIRES    483461 WORDS.

 SYMMETRIES FOR INITIAL GUESS ORBITALS FOLLOW.   BOTH SET(S).
    85 ORBITALS ARE OCCUPIED (   26 CORE ORBITALS).
    27=A       28=A       29=A       30=A       31=A       32=A       33=A   
    34=A       35=A       36=A       37=A       38=A       39=A       40=A   
    41=A       42=A       43=A       44=A       45=A       46=A       47=A   
    48=A       49=A       50=A       51=A       52=A       53=A       54=A   
    55=A       56=A       57=A       58=A       59=A       60=A       61=A   
    62=A       63=A       64=A       65=A       66=A       67=A       68=A   
    69=A       70=A       71=A       72=A       73=A       74=A       75=A   
    76=A       77=A       78=A       79=A       80=A       81=A       82=A   
    83=A       84=A       85=A       86=A       87=A       88=A       89=A   
    90=A       91=A       92=A       93=A       94=A       95=A   
 ...... END OF INITIAL ORBITAL SELECTION ......
 CPU     0: STEP CPU TIME=     0.08 TOTAL CPU TIME=          1.0 (      0.0 MIN)
 TOTAL WALL CLOCK TIME=          1.8 SECONDS, CPU UTILIZATION IS    58.99%

 Running initial guess for monomer      21


          -------------
          GUESS OPTIONS
          -------------
          GUESS =HUCKEL            NORB  =       0          NORDER=       0
          MIX   =       F          PRTMO =       F          PUNMO =       F
          TOLZ  = 1.0E-08          TOLE  = 1.0E-05
          SYMDEN=       F          PURIFY=       F

 INITIAL GUESS ORBITALS GENERATED BY HUCKEL   ROUTINE.
 HUCKEL GUESS REQUIRES    520404 WORDS.

 SYMMETRIES FOR INITIAL GUESS ORBITALS FOLLOW.   BOTH SET(S).
    89 ORBITALS ARE OCCUPIED (   27 CORE ORBITALS).
    28=A       29=A       30=A       31=A       32=A       33=A       34=A   
    35=A       36=A       37=A       38=A       39=A       40=A       41=A   
    42=A       43=A       44=A       45=A       46=A       47=A       48=A   
    49=A       50=A       51=A       52=A       53=A       54=A       55=A   
    56=A       57=A       58=A       59=A       60=A       61=A       62=A   
    63=A       64=A       65=A       66=A       67=A       68=A       69=A   
    70=A       71=A       72=A       73=A       74=A       75=A       76=A   
    77=A       78=A       79=A       80=A       81=A       82=A       83=A   
    84=A       85=A       86=A       87=A       88=A       89=A       90=A   
    91=A       92=A       93=A       94=A       95=A       96=A       97=A   
    98=A       99=A   
 ...... END OF INITIAL ORBITAL SELECTION ......
 CPU     0: STEP CPU TIME=     0.11 TOTAL CPU TIME=          1.2 (      0.0 MIN)
 TOTAL WALL CLOCK TIME=          2.0 SECONDS, CPU UTILIZATION IS    59.18%

 Running initial guess for monomer      20


          -------------
          GUESS OPTIONS
          -------------
          GUESS =HUCKEL            NORB  =       0          NORDER=       0
          MIX   =       F          PRTMO =       F          PUNMO =       F
          TOLZ  = 1.0E-08          TOLE  = 1.0E-05
          SYMDEN=       F          PURIFY=       F

 INITIAL GUESS ORBITALS GENERATED BY HUCKEL   ROUTINE.
 HUCKEL GUESS REQUIRES    520404 WORDS.

 SYMMETRIES FOR INITIAL GUESS ORBITALS FOLLOW.   BOTH SET(S).
    89 ORBITALS ARE OCCUPIED (   27 CORE ORBITALS).
    28=A       29=A       30=A       31=A       32=A       33=A       34=A   
    35=A       36=A       37=A       38=A       39=A       40=A       41=A   
    42=A       43=A       44=A       45=A       46=A       47=A       48=A   
    49=A       50=A       51=A       52=A       53=A       54=A       55=A   
    56=A       57=A       58=A       59=A       60=A       61=A       62=A   
    63=A       64=A       65=A       66=A       67=A       68=A       69=A   
    70=A       71=A       72=A       73=A       74=A       75=A       76=A   
    77=A       78=A       79=A       80=A       81=A       82=A       83=A   
    84=A       85=A       86=A       87=A       88=A       89=A       90=A   
    91=A       92=A       93=A       94=A       95=A       96=A       97=A   
    98=A       99=A   
 ...... END OF INITIAL ORBITAL SELECTION ......
 CPU     0: STEP CPU TIME=     0.11 TOTAL CPU TIME=          1.3 (      0.0 MIN)
 TOTAL WALL CLOCK TIME=          2.1 SECONDS, CPU UTILIZATION IS    59.35%

 Running initial guess for monomer      19


          -------------
          GUESS OPTIONS
          -------------
          GUESS =HUCKEL            NORB  =       0          NORDER=       0
          MIX   =       F          PRTMO =       F          PUNMO =       F
          TOLZ  = 1.0E-08          TOLE  = 1.0E-05
          SYMDEN=       F          PURIFY=       F

 INITIAL GUESS ORBITALS GENERATED BY HUCKEL   ROUTINE.
 HUCKEL GUESS REQUIRES    483461 WORDS.

 SYMMETRIES FOR INITIAL GUESS ORBITALS FOLLOW.   BOTH SET(S).
    85 ORBITALS ARE OCCUPIED (   26 CORE ORBITALS).
    27=A       28=A       29=A       30=A       31=A       32=A       33=A   
    34=A       35=A       36=A       37=A       38=A       39=A       40=A   
    41=A       42=A       43=A       44=A       45=A       46=A       47=A   
    48=A       49=A       50=A       51=A       52=A       53=A       54=A   
    55=A       56=A       57=A       58=A       59=A       60=A       61=A   
    62=A       63=A       64=A       65=A       66=A       67=A       68=A   
    69=A       70=A       71=A       72=A       73=A       74=A       75=A   
    76=A       77=A       78=A       79=A       80=A       81=A       82=A   
    83=A       84=A       85=A       86=A       87=A       88=A       89=A   
    90=A       91=A       92=A       93=A       94=A       95=A   
 ...... END OF INITIAL ORBITAL SELECTION ......
 CPU     0: STEP CPU TIME=     0.09 TOTAL CPU TIME=          1.4 (      0.0 MIN)
 TOTAL WALL CLOCK TIME=          2.3 SECONDS, CPU UTILIZATION IS    58.87%

 Running initial guess for monomer      18


          -------------
          GUESS OPTIONS
          -------------
          GUESS =HUCKEL            NORB  =       0          NORDER=       0
          MIX   =       F          PRTMO =       F          PUNMO =       F
          TOLZ  = 1.0E-08          TOLE  = 1.0E-05
          SYMDEN=       F          PURIFY=       F

 INITIAL GUESS ORBITALS GENERATED BY HUCKEL   ROUTINE.
 HUCKEL GUESS REQUIRES    483461 WORDS.

 SYMMETRIES FOR INITIAL GUESS ORBITALS FOLLOW.   BOTH SET(S).
    85 ORBITALS ARE OCCUPIED (   26 CORE ORBITALS).
    27=A       28=A       29=A       30=A       31=A       32=A       33=A   
    34=A       35=A       36=A       37=A       38=A       39=A       40=A   
    41=A       42=A       43=A       44=A       45=A       46=A       47=A   
    48=A       49=A       50=A       51=A       52=A       53=A       54=A   
    55=A       56=A       57=A       58=A       59=A       60=A       61=A   
    62=A       63=A       64=A       65=A       66=A       67=A       68=A   
    69=A       70=A       71=A       72=A       73=A       74=A       75=A   
    76=A       77=A       78=A       79=A       80=A       81=A       82=A   
    83=A       84=A       85=A       86=A       87=A       88=A       89=A   
    90=A       91=A       92=A       93=A       94=A       95=A   
 ...... END OF INITIAL ORBITAL SELECTION ......
 CPU     0: STEP CPU TIME=     0.08 TOTAL CPU TIME=          1.4 (      0.0 MIN)
 TOTAL WALL CLOCK TIME=          2.5 SECONDS, CPU UTILIZATION IS    58.54%

 Running initial guess for monomer      17


          -------------
          GUESS OPTIONS
          -------------
          GUESS =HUCKEL            NORB  =       0          NORDER=       0
          MIX   =       F          PRTMO =       F          PUNMO =       F
          TOLZ  = 1.0E-08          TOLE  = 1.0E-05
          SYMDEN=       F          PURIFY=       F

 INITIAL GUESS ORBITALS GENERATED BY HUCKEL   ROUTINE.
 HUCKEL GUESS REQUIRES    405894 WORDS.

 SYMMETRIES FOR INITIAL GUESS ORBITALS FOLLOW.   BOTH SET(S).
    79 ORBITALS ARE OCCUPIED (   24 CORE ORBITALS).
    25=A       26=A       27=A       28=A       29=A       30=A       31=A   
    32=A       33=A       34=A       35=A       36=A       37=A       38=A   
    39=A       40=A       41=A       42=A       43=A       44=A       45=A   
    46=A       47=A       48=A       49=A       50=A       51=A       52=A   
    53=A       54=A       55=A       56=A       57=A       58=A       59=A   
    60=A       61=A       62=A       63=A       64=A       65=A       66=A   
    67=A       68=A       69=A       70=A       71=A       72=A       73=A   
    74=A       75=A       76=A       77=A       78=A       79=A       80=A   
    81=A       82=A       83=A       84=A       85=A       86=A       87=A   
    88=A       89=A   
 ...... END OF INITIAL ORBITAL SELECTION ......
 CPU     0: STEP CPU TIME=     0.07 TOTAL CPU TIME=          1.5 (      0.0 MIN)
 TOTAL WALL CLOCK TIME=          2.6 SECONDS, CPU UTILIZATION IS    58.30%

 Running initial guess for monomer      16


          -------------
          GUESS OPTIONS
          -------------
          GUESS =HUCKEL            NORB  =       0          NORDER=       0
          MIX   =       F          PRTMO =       F          PUNMO =       F
          TOLZ  = 1.0E-08          TOLE  = 1.0E-05
          SYMDEN=       F          PURIFY=       F

 INITIAL GUESS ORBITALS GENERATED BY HUCKEL   ROUTINE.
 HUCKEL GUESS REQUIRES    483461 WORDS.

 SYMMETRIES FOR INITIAL GUESS ORBITALS FOLLOW.   BOTH SET(S).
    85 ORBITALS ARE OCCUPIED (   26 CORE ORBITALS).
    27=A       28=A       29=A       30=A       31=A       32=A       33=A   
    34=A       35=A       36=A       37=A       38=A       39=A       40=A   
    41=A       42=A       43=A       44=A       45=A       46=A       47=A   
    48=A       49=A       50=A       51=A       52=A       53=A       54=A   
    55=A       56=A       57=A       58=A       59=A       60=A       61=A   
    62=A       63=A       64=A       65=A       66=A       67=A       68=A   
    69=A       70=A       71=A       72=A       73=A       74=A       75=A   
    76=A       77=A       78=A       79=A       80=A       81=A       82=A   
    83=A       84=A       85=A       86=A       87=A       88=A       89=A   
    90=A       91=A       92=A       93=A       94=A       95=A   
 ...... END OF INITIAL ORBITAL SELECTION ......
 CPU     0: STEP CPU TIME=     0.09 TOTAL CPU TIME=          1.6 (      0.0 MIN)
 TOTAL WALL CLOCK TIME=          2.8 SECONDS, CPU UTILIZATION IS    58.18%

 Running initial guess for monomer      15


          -------------
          GUESS OPTIONS
          -------------
          GUESS =HUCKEL            NORB  =       0          NORDER=       0
          MIX   =       F          PRTMO =       F          PUNMO =       F
          TOLZ  = 1.0E-08          TOLE  = 1.0E-05
          SYMDEN=       F          PURIFY=       F

 INITIAL GUESS ORBITALS GENERATED BY HUCKEL   ROUTINE.
 HUCKEL GUESS REQUIRES    413697 WORDS.

 SYMMETRIES FOR INITIAL GUESS ORBITALS FOLLOW.   BOTH SET(S).
    79 ORBITALS ARE OCCUPIED (   24 CORE ORBITALS).
    25=A       26=A       27=A       28=A       29=A       30=A       31=A   
    32=A       33=A       34=A       35=A       36=A       37=A       38=A   
    39=A       40=A       41=A       42=A       43=A       44=A       45=A   
    46=A       47=A       48=A       49=A       50=A       51=A       52=A   
    53=A       54=A       55=A       56=A       57=A       58=A       59=A   
    60=A       61=A       62=A       63=A       64=A       65=A       66=A   
    67=A       68=A       69=A       70=A       71=A       72=A       73=A   
    74=A       75=A       76=A       77=A       78=A       79=A       80=A   
    81=A       82=A       83=A       84=A       85=A       86=A       87=A   
    88=A       89=A   
 ...... END OF INITIAL ORBITAL SELECTION ......
 CPU     0: STEP CPU TIME=     0.07 TOTAL CPU TIME=          1.7 (      0.0 MIN)
 TOTAL WALL CLOCK TIME=          2.9 SECONDS, CPU UTILIZATION IS    57.79%

 Running initial guess for monomer      14


          -------------
          GUESS OPTIONS
          -------------
          GUESS =HUCKEL            NORB  =       0          NORDER=       0
          MIX   =       F          PRTMO =       F          PUNMO =       F
          TOLZ  = 1.0E-08          TOLE  = 1.0E-05
          SYMDEN=       F          PURIFY=       F

 INITIAL GUESS ORBITALS GENERATED BY HUCKEL   ROUTINE.
 HUCKEL GUESS REQUIRES    520404 WORDS.

 SYMMETRIES FOR INITIAL GUESS ORBITALS FOLLOW.   BOTH SET(S).
    89 ORBITALS ARE OCCUPIED (   27 CORE ORBITALS).
    28=A       29=A       30=A       31=A       32=A       33=A       34=A   
    35=A       36=A       37=A       38=A       39=A       40=A       41=A   
    42=A       43=A       44=A       45=A       46=A       47=A       48=A   
    49=A       50=A       51=A       52=A       53=A       54=A       55=A   
    56=A       57=A       58=A       59=A       60=A       61=A       62=A   
    63=A       64=A       65=A       66=A       67=A       68=A       69=A   
    70=A       71=A       72=A       73=A       74=A       75=A       76=A   
    77=A       78=A       79=A       80=A       81=A       82=A       83=A   
    84=A       85=A       86=A       87=A       88=A       89=A       90=A   
    91=A       92=A       93=A       94=A       95=A       96=A       97=A   
    98=A       99=A   
 ...... END OF INITIAL ORBITAL SELECTION ......
 CPU     0: STEP CPU TIME=     0.11 TOTAL CPU TIME=          1.8 (      0.0 MIN)
 TOTAL WALL CLOCK TIME=          3.1 SECONDS, CPU UTILIZATION IS    58.17%

 Running initial guess for monomer      13


          -------------
          GUESS OPTIONS
          -------------
          GUESS =HUCKEL            NORB  =       0          NORDER=       0
          MIX   =       F          PRTMO =       F          PUNMO =       F
          TOLZ  = 1.0E-08          TOLE  = 1.0E-05
          SYMDEN=       F          PURIFY=       F

 INITIAL GUESS ORBITALS GENERATED BY HUCKEL   ROUTINE.
 HUCKEL GUESS REQUIRES    405894 WORDS.

 SYMMETRIES FOR INITIAL GUESS ORBITALS FOLLOW.   BOTH SET(S).
    79 ORBITALS ARE OCCUPIED (   24 CORE ORBITALS).
    25=A       26=A       27=A       28=A       29=A       30=A       31=A   
    32=A       33=A       34=A       35=A       36=A       37=A       38=A   
    39=A       40=A       41=A       42=A       43=A       44=A       45=A   
    46=A       47=A       48=A       49=A       50=A       51=A       52=A   
    53=A       54=A       55=A       56=A       57=A       58=A       59=A   
    60=A       61=A       62=A       63=A       64=A       65=A       66=A   
    67=A       68=A       69=A       70=A       71=A       72=A       73=A   
    74=A       75=A       76=A       77=A       78=A       79=A       80=A   
    81=A       82=A       83=A       84=A       85=A       86=A       87=A   
    88=A       89=A   
 ...... END OF INITIAL ORBITAL SELECTION ......
 CPU     0: STEP CPU TIME=     0.08 TOTAL CPU TIME=          1.9 (      0.0 MIN)
 TOTAL WALL CLOCK TIME=          3.2 SECONDS, CPU UTILIZATION IS    58.13%

 Running initial guess for monomer      12


          -------------
          GUESS OPTIONS
          -------------
          GUESS =HUCKEL            NORB  =       0          NORDER=       0
          MIX   =       F          PRTMO =       F          PUNMO =       F
          TOLZ  = 1.0E-08          TOLE  = 1.0E-05
          SYMDEN=       F          PURIFY=       F

 INITIAL GUESS ORBITALS GENERATED BY HUCKEL   ROUTINE.
 HUCKEL GUESS REQUIRES    413697 WORDS.

 SYMMETRIES FOR INITIAL GUESS ORBITALS FOLLOW.   BOTH SET(S).
    79 ORBITALS ARE OCCUPIED (   24 CORE ORBITALS).
    25=A       26=A       27=A       28=A       29=A       30=A       31=A   
    32=A       33=A       34=A       35=A       36=A       37=A       38=A   
    39=A       40=A       41=A       42=A       43=A       44=A       45=A   
    46=A       47=A       48=A       49=A       50=A       51=A       52=A   
    53=A       54=A       55=A       56=A       57=A       58=A       59=A   
    60=A       61=A       62=A       63=A       64=A       65=A       66=A   
    67=A       68=A       69=A       70=A       71=A       72=A       73=A   
    74=A       75=A       76=A       77=A       78=A       79=A       80=A   
    81=A       82=A       83=A       84=A       85=A       86=A       87=A   
    88=A       89=A   
 ...... END OF INITIAL ORBITAL SELECTION ......
 CPU     0: STEP CPU TIME=     0.08 TOTAL CPU TIME=          1.9 (      0.0 MIN)
 TOTAL WALL CLOCK TIME=          3.3 SECONDS, CPU UTILIZATION IS    58.26%

 Running initial guess for monomer      11


          -------------
          GUESS OPTIONS
          -------------
          GUESS =HUCKEL            NORB  =       0          NORDER=       0
          MIX   =       F          PRTMO =       F          PUNMO =       F
          TOLZ  = 1.0E-08          TOLE  = 1.0E-05
          SYMDEN=       F          PURIFY=       F

 INITIAL GUESS ORBITALS GENERATED BY HUCKEL   ROUTINE.
 HUCKEL GUESS REQUIRES    413697 WORDS.

 SYMMETRIES FOR INITIAL GUESS ORBITALS FOLLOW.   BOTH SET(S).
    79 ORBITALS ARE OCCUPIED (   24 CORE ORBITALS).
    25=A       26=A       27=A       28=A       29=A       30=A       31=A   
    32=A       33=A       34=A       35=A       36=A       37=A       38=A   
    39=A       40=A       41=A       42=A       43=A       44=A       45=A   
    46=A       47=A       48=A       49=A       50=A       51=A       52=A   
    53=A       54=A       55=A       56=A       57=A       58=A       59=A   
    60=A       61=A       62=A       63=A       64=A       65=A       66=A   
    67=A       68=A       69=A       70=A       71=A       72=A       73=A   
    74=A       75=A       76=A       77=A       78=A       79=A       80=A   
    81=A       82=A       83=A       84=A       85=A       86=A       87=A   
    88=A       89=A   
 ...... END OF INITIAL ORBITAL SELECTION ......
 CPU     0: STEP CPU TIME=     0.08 TOTAL CPU TIME=          2.0 (      0.0 MIN)
 TOTAL WALL CLOCK TIME=          3.5 SECONDS, CPU UTILIZATION IS    58.38%

 Running initial guess for monomer      10


          -------------
          GUESS OPTIONS
          -------------
          GUESS =HUCKEL            NORB  =       0          NORDER=       0
          MIX   =       F          PRTMO =       F          PUNMO =       F
          TOLZ  = 1.0E-08          TOLE  = 1.0E-05
          SYMDEN=       F          PURIFY=       F

 INITIAL GUESS ORBITALS GENERATED BY HUCKEL   ROUTINE.
 HUCKEL GUESS REQUIRES    413697 WORDS.

 SYMMETRIES FOR INITIAL GUESS ORBITALS FOLLOW.   BOTH SET(S).
    79 ORBITALS ARE OCCUPIED (   24 CORE ORBITALS).
    25=A       26=A       27=A       28=A       29=A       30=A       31=A   
    32=A       33=A       34=A       35=A       36=A       37=A       38=A   
    39=A       40=A       41=A       42=A       43=A       44=A       45=A   
    46=A       47=A       48=A       49=A       50=A       51=A       52=A   
    53=A       54=A       55=A       56=A       57=A       58=A       59=A   
    60=A       61=A       62=A       63=A       64=A       65=A       66=A   
    67=A       68=A       69=A       70=A       71=A       72=A       73=A   
    74=A       75=A       76=A       77=A       78=A       79=A       80=A   
    81=A       82=A       83=A       84=A       85=A       86=A       87=A   
    88=A       89=A   
 ...... END OF INITIAL ORBITAL SELECTION ......
 CPU     0: STEP CPU TIME=     0.07 TOTAL CPU TIME=          2.1 (      0.0 MIN)
 TOTAL WALL CLOCK TIME=          3.6 SECONDS, CPU UTILIZATION IS    58.06%

 Running initial guess for monomer       9


          -------------
          GUESS OPTIONS
          -------------
          GUESS =HUCKEL            NORB  =       0          NORDER=       0
          MIX   =       F          PRTMO =       F          PUNMO =       F
          TOLZ  = 1.0E-08          TOLE  = 1.0E-05
          SYMDEN=       F          PURIFY=       F

 INITIAL GUESS ORBITALS GENERATED BY HUCKEL   ROUTINE.
 HUCKEL GUESS REQUIRES    413697 WORDS.

 SYMMETRIES FOR INITIAL GUESS ORBITALS FOLLOW.   BOTH SET(S).
    79 ORBITALS ARE OCCUPIED (   24 CORE ORBITALS).
    25=A       26=A       27=A       28=A       29=A       30=A       31=A   
    32=A       33=A       34=A       35=A       36=A       37=A       38=A   
    39=A       40=A       41=A       42=A       43=A       44=A       45=A   
    46=A       47=A       48=A       49=A       50=A       51=A       52=A   
    53=A       54=A       55=A       56=A       57=A       58=A       59=A   
    60=A       61=A       62=A       63=A       64=A       65=A       66=A   
    67=A       68=A       69=A       70=A       71=A       72=A       73=A   
    74=A       75=A       76=A       77=A       78=A       79=A       80=A   
    81=A       82=A       83=A       84=A       85=A       86=A       87=A   
    88=A       89=A   
 ...... END OF INITIAL ORBITAL SELECTION ......
 CPU     0: STEP CPU TIME=     0.08 TOTAL CPU TIME=          2.2 (      0.0 MIN)
 TOTAL WALL CLOCK TIME=          3.7 SECONDS, CPU UTILIZATION IS    58.02%

 Running initial guess for monomer       8


          -------------
          GUESS OPTIONS
          -------------
          GUESS =HUCKEL            NORB  =       0          NORDER=       0
          MIX   =       F          PRTMO =       F          PUNMO =       F
          TOLZ  = 1.0E-08          TOLE  = 1.0E-05
          SYMDEN=       F          PURIFY=       F

 INITIAL GUESS ORBITALS GENERATED BY HUCKEL   ROUTINE.
 HUCKEL GUESS REQUIRES    405894 WORDS.

 SYMMETRIES FOR INITIAL GUESS ORBITALS FOLLOW.   BOTH SET(S).
    79 ORBITALS ARE OCCUPIED (   24 CORE ORBITALS).
    25=A       26=A       27=A       28=A       29=A       30=A       31=A   
    32=A       33=A       34=A       35=A       36=A       37=A       38=A   
    39=A       40=A       41=A       42=A       43=A       44=A       45=A   
    46=A       47=A       48=A       49=A       50=A       51=A       52=A   
    53=A       54=A       55=A       56=A       57=A       58=A       59=A   
    60=A       61=A       62=A       63=A       64=A       65=A       66=A   
    67=A       68=A       69=A       70=A       71=A       72=A       73=A   
    74=A       75=A       76=A       77=A       78=A       79=A       80=A   
    81=A       82=A       83=A       84=A       85=A       86=A       87=A   
    88=A       89=A   
 ...... END OF INITIAL ORBITAL SELECTION ......
 CPU     0: STEP CPU TIME=     0.08 TOTAL CPU TIME=          2.2 (      0.0 MIN)
 TOTAL WALL CLOCK TIME=          3.9 SECONDS, CPU UTILIZATION IS    57.99%

 Running initial guess for monomer       7


          -------------
          GUESS OPTIONS
          -------------
          GUESS =HUCKEL            NORB  =       0          NORDER=       0
          MIX   =       F          PRTMO =       F          PUNMO =       F
          TOLZ  = 1.0E-08          TOLE  = 1.0E-05
          SYMDEN=       F          PURIFY=       F

 INITIAL GUESS ORBITALS GENERATED BY HUCKEL   ROUTINE.
 HUCKEL GUESS REQUIRES    405894 WORDS.

 SYMMETRIES FOR INITIAL GUESS ORBITALS FOLLOW.   BOTH SET(S).
    79 ORBITALS ARE OCCUPIED (   24 CORE ORBITALS).
    25=A       26=A       27=A       28=A       29=A       30=A       31=A   
    32=A       33=A       34=A       35=A       36=A       37=A       38=A   
    39=A       40=A       41=A       42=A       43=A       44=A       45=A   
    46=A       47=A       48=A       49=A       50=A       51=A       52=A   
    53=A       54=A       55=A       56=A       57=A       58=A       59=A   
    60=A       61=A       62=A       63=A       64=A       65=A       66=A   
    67=A       68=A       69=A       70=A       71=A       72=A       73=A   
    74=A       75=A       76=A       77=A       78=A       79=A       80=A   
    81=A       82=A       83=A       84=A       85=A       86=A       87=A   
    88=A       89=A   
 ...... END OF INITIAL ORBITAL SELECTION ......
 CPU     0: STEP CPU TIME=     0.07 TOTAL CPU TIME=          2.3 (      0.0 MIN)
 TOTAL WALL CLOCK TIME=          4.0 SECONDS, CPU UTILIZATION IS    57.86%

 Running initial guess for monomer       6


          -------------
          GUESS OPTIONS
          -------------
          GUESS =HUCKEL            NORB  =       0          NORDER=       0
          MIX   =       F          PRTMO =       F          PUNMO =       F
          TOLZ  = 1.0E-08          TOLE  = 1.0E-05
          SYMDEN=       F          PURIFY=       F

 INITIAL GUESS ORBITALS GENERATED BY HUCKEL   ROUTINE.
 HUCKEL GUESS REQUIRES    520404 WORDS.

 SYMMETRIES FOR INITIAL GUESS ORBITALS FOLLOW.   BOTH SET(S).
    89 ORBITALS ARE OCCUPIED (   27 CORE ORBITALS).
    28=A       29=A       30=A       31=A       32=A       33=A       34=A   
    35=A       36=A       37=A       38=A       39=A       40=A       41=A   
    42=A       43=A       44=A       45=A       46=A       47=A       48=A   
    49=A       50=A       51=A       52=A       53=A       54=A       55=A   
    56=A       57=A       58=A       59=A       60=A       61=A       62=A   
    63=A       64=A       65=A       66=A       67=A       68=A       69=A   
    70=A       71=A       72=A       73=A       74=A       75=A       76=A   
    77=A       78=A       79=A       80=A       81=A       82=A       83=A   
    84=A       85=A       86=A       87=A       88=A       89=A       90=A   
    91=A       92=A       93=A       94=A       95=A       96=A       97=A   
    98=A       99=A   
 ...... END OF INITIAL ORBITAL SELECTION ......
 CPU     0: STEP CPU TIME=     0.10 TOTAL CPU TIME=          2.4 (      0.0 MIN)
 TOTAL WALL CLOCK TIME=          4.2 SECONDS, CPU UTILIZATION IS    57.89%

 Running initial guess for monomer       5


          -------------
          GUESS OPTIONS
          -------------
          GUESS =HUCKEL            NORB  =       0          NORDER=       0
          MIX   =       F          PRTMO =       F          PUNMO =       F
          TOLZ  = 1.0E-08          TOLE  = 1.0E-05
          SYMDEN=       F          PURIFY=       F

 INITIAL GUESS ORBITALS GENERATED BY HUCKEL   ROUTINE.
 HUCKEL GUESS REQUIRES    483461 WORDS.

 SYMMETRIES FOR INITIAL GUESS ORBITALS FOLLOW.   BOTH SET(S).
    85 ORBITALS ARE OCCUPIED (   26 CORE ORBITALS).
    27=A       28=A       29=A       30=A       31=A       32=A       33=A   
    34=A       35=A       36=A       37=A       38=A       39=A       40=A   
    41=A       42=A       43=A       44=A       45=A       46=A       47=A   
    48=A       49=A       50=A       51=A       52=A       53=A       54=A   
    55=A       56=A       57=A       58=A       59=A       60=A       61=A   
    62=A       63=A       64=A       65=A       66=A       67=A       68=A   
    69=A       70=A       71=A       72=A       73=A       74=A       75=A   
    76=A       77=A       78=A       79=A       80=A       81=A       82=A   
    83=A       84=A       85=A       86=A       87=A       88=A       89=A   
    90=A       91=A       92=A       93=A       94=A       95=A   
 ...... END OF INITIAL ORBITAL SELECTION ......
 CPU     0: STEP CPU TIME=     0.10 TOTAL CPU TIME=          2.5 (      0.0 MIN)
 TOTAL WALL CLOCK TIME=          4.4 SECONDS, CPU UTILIZATION IS    57.93%

 Running initial guess for monomer       4


          -------------
          GUESS OPTIONS
          -------------
          GUESS =HUCKEL            NORB  =       0          NORDER=       0
          MIX   =       F          PRTMO =       F          PUNMO =       F
          TOLZ  = 1.0E-08          TOLE  = 1.0E-05
          SYMDEN=       F          PURIFY=       F

 INITIAL GUESS ORBITALS GENERATED BY HUCKEL   ROUTINE.
 HUCKEL GUESS REQUIRES    413697 WORDS.

 SYMMETRIES FOR INITIAL GUESS ORBITALS FOLLOW.   BOTH SET(S).
    79 ORBITALS ARE OCCUPIED (   24 CORE ORBITALS).
    25=A       26=A       27=A       28=A       29=A       30=A       31=A   
    32=A       33=A       34=A       35=A       36=A       37=A       38=A   
    39=A       40=A       41=A       42=A       43=A       44=A       45=A   
    46=A       47=A       48=A       49=A       50=A       51=A       52=A   
    53=A       54=A       55=A       56=A       57=A       58=A       59=A   
    60=A       61=A       62=A       63=A       64=A       65=A       66=A   
    67=A       68=A       69=A       70=A       71=A       72=A       73=A   
    74=A       75=A       76=A       77=A       78=A       79=A       80=A   
    81=A       82=A       83=A       84=A       85=A       86=A       87=A   
    88=A       89=A   
 ...... END OF INITIAL ORBITAL SELECTION ......
 CPU     0: STEP CPU TIME=     0.07 TOTAL CPU TIME=          2.6 (      0.0 MIN)
 TOTAL WALL CLOCK TIME=          4.5 SECONDS, CPU UTILIZATION IS    57.68%

 Running initial guess for monomer       3


          -------------
          GUESS OPTIONS
          -------------
          GUESS =HUCKEL            NORB  =       0          NORDER=       0
          MIX   =       F          PRTMO =       F          PUNMO =       F
          TOLZ  = 1.0E-08          TOLE  = 1.0E-05
          SYMDEN=       F          PURIFY=       F

 INITIAL GUESS ORBITALS GENERATED BY HUCKEL   ROUTINE.
 HUCKEL GUESS REQUIRES    520404 WORDS.

 SYMMETRIES FOR INITIAL GUESS ORBITALS FOLLOW.   BOTH SET(S).
    89 ORBITALS ARE OCCUPIED (   27 CORE ORBITALS).
    28=A       29=A       30=A       31=A       32=A       33=A       34=A   
    35=A       36=A       37=A       38=A       39=A       40=A       41=A   
    42=A       43=A       44=A       45=A       46=A       47=A       48=A   
    49=A       50=A       51=A       52=A       53=A       54=A       55=A   
    56=A       57=A       58=A       59=A       60=A       61=A       62=A   
    63=A       64=A       65=A       66=A       67=A       68=A       69=A   
    70=A       71=A       72=A       73=A       74=A       75=A       76=A   
    77=A       78=A       79=A       80=A       81=A       82=A       83=A   
    84=A       85=A       86=A       87=A       88=A       89=A       90=A   
    91=A       92=A       93=A       94=A       95=A       96=A       97=A   
    98=A       99=A   
 ...... END OF INITIAL ORBITAL SELECTION ......
 CPU     0: STEP CPU TIME=     0.11 TOTAL CPU TIME=          2.7 (      0.0 MIN)
 TOTAL WALL CLOCK TIME=          4.7 SECONDS, CPU UTILIZATION IS    57.94%

 Running initial guess for monomer       2


          -------------
          GUESS OPTIONS
          -------------
          GUESS =HUCKEL            NORB  =       0          NORDER=       0
          MIX   =       F          PRTMO =       F          PUNMO =       F
          TOLZ  = 1.0E-08          TOLE  = 1.0E-05
          SYMDEN=       F          PURIFY=       F

 INITIAL GUESS ORBITALS GENERATED BY HUCKEL   ROUTINE.
 HUCKEL GUESS REQUIRES    483461 WORDS.

 SYMMETRIES FOR INITIAL GUESS ORBITALS FOLLOW.   BOTH SET(S).
    85 ORBITALS ARE OCCUPIED (   26 CORE ORBITALS).
    27=A       28=A       29=A       30=A       31=A       32=A       33=A   
    34=A       35=A       36=A       37=A       38=A       39=A       40=A   
    41=A       42=A       43=A       44=A       45=A       46=A       47=A   
    48=A       49=A       50=A       51=A       52=A       53=A       54=A   
    55=A       56=A       57=A       58=A       59=A       60=A       61=A   
    62=A       63=A       64=A       65=A       66=A       67=A       68=A   
    69=A       70=A       71=A       72=A       73=A       74=A       75=A   
    76=A       77=A       78=A       79=A       80=A       81=A       82=A   
    83=A       84=A       85=A       86=A       87=A       88=A       89=A   
    90=A       91=A       92=A       93=A       94=A       95=A   
 ...... END OF INITIAL ORBITAL SELECTION ......
 CPU     0: STEP CPU TIME=     0.08 TOTAL CPU TIME=          2.8 (      0.0 MIN)
 TOTAL WALL CLOCK TIME=          4.8 SECONDS, CPU UTILIZATION IS    57.68%

 Running initial guess for monomer       1


          -------------
          GUESS OPTIONS
          -------------
          GUESS =HUCKEL            NORB  =       0          NORDER=       0
          MIX   =       F          PRTMO =       F          PUNMO =       F
          TOLZ  = 1.0E-08          TOLE  = 1.0E-05
          SYMDEN=       F          PURIFY=       F

 INITIAL GUESS ORBITALS GENERATED BY HUCKEL   ROUTINE.
 HUCKEL GUESS REQUIRES    567794 WORDS.

 SYMMETRIES FOR INITIAL GUESS ORBITALS FOLLOW.   BOTH SET(S).
    94 ORBITALS ARE OCCUPIED (   28 CORE ORBITALS).
    29=A       30=A       31=A       32=A       33=A       34=A       35=A   
    36=A       37=A       38=A       39=A       40=A       41=A       42=A   
    43=A       44=A       45=A       46=A       47=A       48=A       49=A   
    50=A       51=A       52=A       53=A       54=A       55=A       56=A   
    57=A       58=A       59=A       60=A       61=A       62=A       63=A   
    64=A       65=A       66=A       67=A       68=A       69=A       70=A   
    71=A       72=A       73=A       74=A       75=A       76=A       77=A   
    78=A       79=A       80=A       81=A       82=A       83=A       84=A   
    85=A       86=A       87=A       88=A       89=A       90=A       91=A   
    92=A       93=A       94=A       95=A       96=A       97=A       98=A   
    99=A      100=A      101=A      102=A      103=A      104=A   
 ...... END OF INITIAL ORBITAL SELECTION ......
 CPU     0: STEP CPU TIME=     0.11 TOTAL CPU TIME=          2.9 (      0.0 MIN)
 TOTAL WALL CLOCK TIME=          5.0 SECONDS, CPU UTILIZATION IS    57.80%

 There are         406 separated and      90 SCF (       0 of them correlated) dimers.
 Estimate of max dimer size:  486 AOs,  178 occ. MOs

 Fragment statistics

      I  NAME     Q NAT0 NATB NA  NAO LAY MUL SCFTYP        NOP     MOL    CONV
 ==============================================================================
      1 FRAG1    -1   36   1   94  253 1  1 G RHF             0      -1      -1
      2 FRAG2    -1   33   1   85  233 1  1 G RHF             0      -1      -1
      3 FRAG3    -1   34   1   89  242 1  1 G RHF             0      -1      -1
      4 FRAG4    -1   31   1   79  215 1  1 G RHF             0      -1      -1
      5 FRAG5    -1   33   1   85  233 1  1 G RHF             0      -1      -1
      6 FRAG6    -1   34   1   89  242 1  1 G RHF             0      -1      -1
      7 FRAG7    -1   30   1   79  213 1  1 G RHF             0      -1      -1
      8 FRAG8    -1   30   1   79  213 1  1 G RHF             0      -1      -1
      9 FRAG9    -1   31   1   79  215 1  1 G RHF             0      -1      -1
     10 F        -1   31   1   79  215 1  1 G RHF             0      -1      -1
     11 frg00011 -1   31   1   79  215 1  1 G RHF             0      -1      -1
     12 frg00012 -1   31   1   79  215 1  1 G RHF             0      -1      -1
     13 frg00013 -1   30   1   79  213 1  1 G RHF             0      -1      -1
     14 frg00014 -1   34   1   89  242 1  1 G RHF             0      -1      -1
     15 frg00015 -1   31   1   79  215 1  1 G RHF             0      -1      -1
     16 frg00016 -1   33   1   85  233 1  1 G RHF             0      -1      -1
     17 frg00017 -1   30   1   79  213 1  1 G RHF             0      -1      -1
     18 frg00018 -1   33   1   85  233 1  1 G RHF             0      -1      -1
     19 frg00019 -1   33   1   85  233 1  1 G RHF             0      -1      -1
     20 frg00020 -1   34   1   89  242 1  1 G RHF             0      -1      -1
     21 frg00021 -1   34   1   89  242 1  1 G RHF             0      -1      -1
     22 frg00022 -1   33   1   85  233 1  1 G RHF             0      -1      -1
     23 frg00023 -1   30   1   79  213 1  1 G RHF             0      -1      -1
     24 frg00024 -1   34   1   89  242 1  1 G RHF             0      -1      -1
     25 frg00025 -1   33   1   85  233 1  1 G RHF             0      -1      -1
     26 frg00026 -1   33   1   85  233 1  1 G RHF             0      -1      -1
     27 frg00027 -1   31   1   79  215 1  1 G RHF             0      -1      -1
     28 frg00028 -1   31   1   79  215 1  1 G RHF             0      -1      -1
     29 frg00029 -1   34   1   89  242 1  1 G RHF             0      -1      -1
     30 frg00030 -1   30   1   79  213 1  1 G RHF             0      -1      -1
     31 frg00031 -1   30   1   79  213 1  1 G RHF             0      -1      -1
     32 frg00032  0   28   0   59  168 1  1 G RHF             0      -1      -1

 Close fragment pairs, distance relative to vdW radii

 CPU     0: STEP CPU TIME=     0.00 TOTAL CPU TIME=          2.9 (      0.0 MIN)
 TOTAL WALL CLOCK TIME=          5.0 SECONDS, CPU UTILIZATION IS    57.68%
 dmexch needs              4921958  words of memory.
 CPU     0: STEP CPU TIME=     0.02 TOTAL CPU TIME=          2.9 (      0.0 MIN)
 TOTAL WALL CLOCK TIME=          5.0 SECONDS, CPU UTILIZATION IS    57.97%

 Data exchange of    816588 words took     0.0 s.

 RHF      monomer      1 corr= NONE       , L1=   253, L0=   253 ID=      1

 Int dimensions: LABSIZ=1, NINTIC=  6005000 ININTIC=  3002500
 Max L1 incore=   170 current l1=   253 force dirscf= T

 DIRECT SCF CALCULATION, SCHWRZ=T   FDIFF=T,  DIRTHR=  0.00E+00 NITDIR=10

                                                                                   NONZERO     BLOCKS
 ITER EX DEM     TOTAL ENERGY        E CHANGE  DENSITY CHANGE    DIIS ERROR      INTEGRALS    SKIPPED
   1  0  0   998174.1857807820998174.1857807820   1.085293754   0.000000000      141132465    9807837
   2  1  0    -1457.9373700095*****************   0.299971867   0.000000000      141138313    9833608
   3  2  0    -1458.2376616562    -0.3002916466   0.302875009   0.000000000      140253121    9972144
   4  3  0    -1458.3301675500    -0.0925058938   0.215012665   0.000000000      139603751   10030687
   5  4  0    -1458.3842623860    -0.0540948360   0.173498544   0.000000000      138937578   10077639
   6  5  0    -1458.4128628993    -0.0286005133   0.144274987   0.000000000      138300487   10115766
   7  6  0    -1458.4320838184    -0.0192209191   0.112222756   0.000000000      137661337   10148035
   8  7  0    -1458.4432481052    -0.0111642868   0.092863256   0.000000000      136994832   10180083
   9  8  0    -1458.4508744712    -0.0076263661   0.072256494   0.000000000      136310967   10209243
  10  9  0    -1458.4555559518    -0.0046814806   0.060176235   0.000000000      135551129   10238570
  11 10  0    -1458.4587554437    -0.0031994918   0.049443442   0.000000000      134780717   10265956
  12 11  0    -1458.4607929688    -0.0020375251   0.041453008   0.000000000      133971215   10293587
  13 12  0    -1458.4621834729    -0.0013905042   0.034285055   0.000000000      133148777   10319829
  14 13  0    -1458.4630914152    -0.0009079423   0.028769302   0.000000000      132270225   10346501
  15 14  0    -1458.4637110344    -0.0006196192   0.023917110   0.000000000      131385873   10372071
  16 15  0    -1458.4641228039    -0.0004117695   0.020087773   0.000000000      130470254   10397425
  17 16  0    -1458.4644043188    -0.0002815149   0.016764699   0.000000000      129548129   10422368
  18 17  0    -1458.4645938398    -0.0001895210   0.014092746   0.000000000      128612589   10447088
  19 18  0    -1458.4647238202    -0.0001299804   0.011795595   0.000000000      127661308   10471487
  20 19  0    -1458.4648122092    -0.0000883890   0.009923348   0.000000000      126690613   10495699
  21 20  0    -1458.4648730724    -0.0000608632   0.008323885   0.000000000      125708229   10519797
  22 21  0    -1458.4649147987    -0.0000417263   0.007007487   0.000000000      124699218   10544038
  23 22  0    -1458.4649436572    -0.0000288585   0.005887651   0.000000000      123688355   10567708
  24 23  0    -1458.4649635774    -0.0000199203   0.004959507   0.000000000      122669752   10591444
  25 24  0    -1458.4649774156    -0.0000138382   0.004172169   0.000000000      121645529   10614803
  26 25  0    -1458.4649870237    -0.0000096081   0.003516299   0.000000000      120605760   10638330
  27 26  0    -1458.4649937271    -0.0000067034   0.002960947   0.000000000      119577448   10661658
  28 27  0    -1458.4649984042    -0.0000046770   0.002496629   0.000000000      118523974   10684860
  29 28  0    -1458.4650016801    -0.0000032760   0.002103929   0.000000000      117451402   10708041
  30 29  0    -1458.4650039765    -0.0000022963   0.001774722   0.000000000      116385327   10730869
  31 30  0    -1458.4650055907    -0.0000016142   0.001496489   0.000000000      115313243   10753856
  32 31  0    -1458.4650067260    -0.0000011354   0.001262783   0.000000000      114232249   10776971
  33 32  0    -1458.4650075267    -0.0000008007   0.001065343   0.000000000      113156594   10799866
  34 33  0    -1458.4650080918    -0.0000005651   0.000899255   0.000000000      112045514   10822818
  35 34  0    -1458.4650084910    -0.0000003992   0.000758968   0.000000000      110922905   10845804
  36 35  0    -1458.4650087737    -0.0000002827   0.000640827   0.000000000      109823691   10868385
  37 36  0    -1458.4650089739    -0.0000002002   0.000541044   0.000000000      108714086   10891094
  38 37  0    -1458.4650091164    -0.0000001425   0.000456942   0.000000000      107591554   10913860
  39 38  0    -1458.4650092167    -0.0000001002   0.000385906   0.000000000      106492328   10936248
  40 39  0    -1458.4650092886    -0.0000000720   0.000325993   0.000000000      105378084   10958777
  41 40  0    -1458.4650093396    -0.0000000510   0.000275385   0.000000000      104282095   10981009
  42 41  0    -1458.4650093758    -0.0000000362   0.000232679   0.000000000      103165987   11003055
  43 42  0    -1458.4650094016    -0.0000000258   0.000196600   0.000000000      102056835   11025211
  44 43  0    -1458.4650094200    -0.0000000184   0.000166142   0.000000000      100927617   11047536
  45 44  0    -1458.4650094331    -0.0000000131   0.000140408   0.000000000       99806567   11069755
  46 45  0    -1458.4650094425    -0.0000000094   0.000118675   0.000000000       98693330   11092043
  47 46  0    -1458.4650094491    -0.0000000065   0.000100311   0.000000000       97568207   11114037
  48 47  0    -1458.4650094540    -0.0000000050   0.000084797   0.000000000       96451457   11136199
  49 48  0    -1458.4650094574    -0.0000000034   0.000071686   0.000000000       95305290   11158186
  50 49  0    -1458.4650094597    -0.0000000023   0.000060607   0.000000000       94165114   11180162

 SCF IS UNCONVERGED, TOO MANY ITERATIONS
     TIME TO FORM FOCK OPERATORS=      29.2 SECONDS (       0.6 SEC/ITER)
     FOCK TIME ON FIRST ITERATION=       0.7, LAST ITERATION=       0.5
     TIME TO SOLVE SCF EQUATIONS=       1.4 SECONDS (       0.0 SEC/ITER)

 FINAL RHF ENERGY IS        0.0000000000 AFTER  50 ITERATIONS
 ...... END OF RHF CALCULATION ......
 CPU     0: STEP CPU TIME=    33.59 TOTAL CPU TIME=         36.5 (      0.6 MIN)
 TOTAL WALL CLOCK TIME=         39.4 SECONDS, CPU UTILIZATION IS    92.57%

 Iter=  1 iFrag=      1 EFMO=     0.000000000, DD= 1.090356072, DE= 0.000000000


 RHF      monomer     24 corr= NONE       , L1=   242, L0=   242 ID=      2

 Int dimensions: LABSIZ=1, NINTIC=  6005000 ININTIC=  3002500
 Max L1 incore=   170 current l1=   242 force dirscf= T

 DIRECT SCF CALCULATION, SCHWRZ=T   FDIFF=T,  DIRTHR=  0.00E+00 NITDIR=10

                                                                                   NONZERO     BLOCKS
[...]
   5  4  0     -887.1022526639   850.8655278775 134.833772318   0.000000000       98324058    4623843
   6  5  0    -1737.9804029388  -850.8781502749 134.833784507   0.000000000       98324061    4623843
   7  6  0     -887.0895347414   850.8908681974 134.833869660   0.000000000       98324055    4623854
   8  7  0    -1737.9807462914  -850.8912115501 134.833870031   0.000000000       98324055    4623854
   9  8  0     -887.0891565486   850.8915897429 134.833872874   0.000000000       98324055    4623855
  10  9  0    -1737.9807561575  -850.8915996089 134.833872885   0.000000000       98324055    4623855
  11 10  0     -887.0891453504   850.8916108071 134.833872973   0.000000000       98324055    4623855
  12 11  0    -1737.9807564458  -850.8916110954 134.833872973   0.000000000       98324055    4623855
  13 12  0     -887.0891450227   850.8916114231 134.833872977   0.000000000       98324055    4623855
  14 13  0    -1737.9807564541  -850.8916114314 134.833872977   0.000000000       98324055    4623855
  15 14  0     -887.0891450067   850.8916114474 134.833872976   0.000000000       98324055    4623855
  16 15  0    -1737.9807564544  -850.8916114477 134.833872976   0.000000000       98324055    4623855
  17 16  0     -887.0891450007   850.8916114536 134.833872976   0.000000000       98324055    4623855
  18 17  0    -1737.9807564544  -850.8916114537 134.833872976   0.000000000       98324055    4623855
  19 18  0     -887.0891450012   850.8916114532 134.833872977   0.000000000       98324055    4623855
  20 19  0    -1737.9807564545  -850.8916114533 134.833872977   0.000000000       98324055    4623855
  21 20  0     -887.0891450065   850.8916114481 134.833872976   0.000000000       98324055    4623855
  22 21  0    -1737.9807564544  -850.8916114479 134.833872976   0.000000000       98324055    4623855
  23 22  0     -887.0891450067   850.8916114477 134.833872977   0.000000000       98324055    4623855
  24 23  0    -1737.9807564546  -850.8916114479 134.833872977   0.000000000       98324055    4623855
  25 24  0     -887.0891450073   850.8916114473 134.833872977   0.000000000       98324055    4623855
  26 25  0    -1737.9807564545  -850.8916114472 134.833872977   0.000000000       98324055    4623855
  27 26  0     -887.0891450105   850.8916114440 134.833872977   0.000000000       98324055    4623855
  28 27  0    -1737.9807564544  -850.8916114439 134.833872977   0.000000000       98324055    4623855
  29 28  0     -887.0891450100   850.8916114444 134.833872976   0.000000000       98324055    4623855
  30 29  0    -1737.9807564544  -850.8916114444 134.833872976   0.000000000       98324055    4623855
  31 30  0     -887.0891450100   850.8916114443 134.833872975   0.000000000       98324055    4623855
  32 31  0    -1737.9807564543  -850.8916114442 134.833872975   0.000000000       98324055    4623855
  33 32  0     -887.0891450083   850.8916114460 134.833872975   0.000000000       98324055    4623855
  34 33  0    -1737.9807564542  -850.8916114460 134.833872975   0.000000000       98324055    4623855
  35 34  0     -887.0891450062   850.8916114480 134.833872975   0.000000000       98324055    4623855
  36 35  0    -1737.9807564543  -850.8916114480 134.833872975   0.000000000       98324055    4623855
  37 36  0     -887.0891450111   850.8916114431 134.833872975   0.000000000       98324055    4623855
  38 37  0    -1737.9807564543  -850.8916114431 134.833872975   0.000000000       98324055    4623855
  39 38  0     -887.0891450076   850.8916114466 134.833872975   0.000000000       98324055    4623855
  40 39  0    -1737.9807564543  -850.8916114466 134.833872975   0.000000000       98324055    4623855
  41 40  0     -887.0891450051   850.8916114491 134.833872975   0.000000000       98324055    4623855
  42 41  0    -1737.9807564541  -850.8916114490 134.833872975   0.000000000       98324055    4623855
  43 42  0     -887.0891450048   850.8916114493 134.833872975   0.000000000       98324055    4623855
  44 43  0    -1737.9807564542  -850.8916114493 134.833872975   0.000000000       98324055    4623855
  45 44  0     -887.0891450065   850.8916114477 134.833872975   0.000000000       98324055    4623855
  46 45  0    -1737.9807564542  -850.8916114477 134.833872975   0.000000000       98324055    4623855
  47 46  0     -887.0891450095   850.8916114446 134.833872975   0.000000000       98324055    4623855
  48 47  0    -1737.9807564542  -850.8916114446 134.833872975   0.000000000       98324055    4623855
  49 48  0     -887.0891450148   850.8916114393 134.833872974   0.000000000       98324055    4623855
  50 49  0    -1737.9807564540  -850.8916114392 134.833872974   0.000000000       98324055    4623855

 SCF IS UNCONVERGED, TOO MANY ITERATIONS
     TIME TO FORM FOCK OPERATORS=      28.0 SECONDS (       0.6 SEC/ITER)
     FOCK TIME ON FIRST ITERATION=       0.5, LAST ITERATION=       0.6
     TIME TO SOLVE SCF EQUATIONS=       0.9 SECONDS (       0.0 SEC/ITER)

 FINAL RHF ENERGY IS        0.0000000000 AFTER  50 ITERATIONS
 ...... END OF RHF CALCULATION ......
 CPU     0: STEP CPU TIME=    34.50 TOTAL CPU TIME=      10580.0 (    176.3 MIN)
 TOTAL WALL CLOCK TIME=      10847.8 SECONDS, CPU UTILIZATION IS    97.53%

 Iter= 10 iFrag=     27 EFMO=     0.000000000, DD= 4.667273004, DE= 0.000000000


 RHF      monomer     12 corr= NONE       , L1=   215, L0=   215 ID=     19

 Int dimensions: LABSIZ=1, NINTIC=  6005000 ININTIC=  3002500
 Max L1 incore=   170 current l1=   215 force dirscf= T

 DIRECT SCF CALCULATION, SCHWRZ=T   FDIFF=T,  DIRTHR=  0.00E+00 NITDIR=10

                                                                                   NONZERO     BLOCKS
 ITER EX DEM     TOTAL ENERGY        E CHANGE  DENSITY CHANGE    DIIS ERROR      INTEGRALS    SKIPPED
   1  0  0      207.4350540468   207.4350540468  87.008002372   0.000000000       97843812    4786230
   2  1  0      720.5154531581   513.0803991114  86.385817557   0.000000000       98078604    4669795
   3  2  0      239.2877303529  -481.2277228052  86.591536597   0.000000000       98077810    4667244
   4  3  0      727.7748756569   488.4871453040  86.729799703   0.000000000       98079368    4665153
   5  4  0      231.1817119728  -496.5931636841  85.644273566   0.000000000       98079187    4666332
   6  5  0      725.5408162735   494.3591043007  85.045554301   0.000000000       98078748    4667446
   7  6  0      226.6875663178  -498.8532499557  84.311042479   0.000000000       98078776    4667795
   8  7  0      724.1619147544   497.4743484366  84.163330448   0.000000000       98078479    4668315
   9  8  0      225.6534799656  -498.5084347888  83.940502160   0.000000000       98078496    4668395
  10  9  0      723.7228096255   498.0693296599  83.877919190   0.000000000       98078447    4668528
  11 10  0      225.3964707349  -498.3263388906  83.809059148   0.000000000       98078478    4668603
  12 11  0      723.5815490372   498.1850783022  83.781515924   0.000000000       98078456    4668648
  13 12  0      225.3151864893  -498.2663625478  83.756595090   0.000000000       98078457    4668674
  14 13  0      723.5296769195   498.2144904302  83.744832848   0.000000000       98078421    4668673
  15 14  0      225.2849868588  -498.2446900607  83.734955709   0.000000000       98078439    4668673
  16 15  0      723.5090110490   498.2240241902  83.729978002   0.000000000       98078418    4668673
  17 16  0      225.2728735376  -498.2361375114  83.725907545   0.000000000       98078410    4668676
  18 17  0      723.5004762711   498.2276027335  83.723803652   0.000000000       98078414    4668674
  19 18  0      225.2678576498  -498.2326186213  83.722099669   0.000000000       98078410    4668675
  20 19  0      723.4968999658   498.2290423160  83.721210155   0.000000000       98078410    4668677
  21 20  0      225.2657539820  -498.2311459839  83.720492317   0.000000000       98078410    4668677
  22 21  0      723.4953926474   498.2296386654  83.720116096   0.000000000       98078410    4668679
  23 22  0      225.2648670453  -498.2305256021  83.719812906   0.000000000       98078410    4668678
  24 23  0      723.4947560697   498.2298890244  83.719653735   0.000000000       98078410    4668680
  25 24  0      225.2644923665  -498.2302637032  83.719525550   0.000000000       98078410    4668680
  26 25  0      723.4944867048   498.2299943382  83.719458205   0.000000000       98078410    4668680
  27 26  0      225.2643339424  -498.2301527624  83.719403982   0.000000000       98078410    4668680
  28 27  0      723.4943728787   498.2300389362  83.719375488   0.000000000       98078410    4668680
  29 28  0      225.2642669233  -498.2301059554  83.719352546   0.000000000       98078410    4668680
  30 29  0      723.4943246865   498.2300577632  83.719340489   0.000000000       98078410    4668680
  31 30  0      225.2642385234  -498.2300861631  83.719330789   0.000000000       98078410    4668680
  32 31  0      723.4943043030   498.2300657796  83.719325684   0.000000000       98078410    4668680
  33 32  0      225.2642265274  -498.2300777757  83.719321573   0.000000000       98078410    4668680
  34 33  0      723.4942956960   498.2300691686  83.719319410   0.000000000       98078410    4668680
  35 34  0      225.2642214793  -498.2300742167  83.719317673   0.000000000       98078410    4668680
  36 35  0      723.4942920303   498.2300705510  83.719316764   0.000000000       98078410    4668680
  37 36  0      225.2642193114  -498.2300727189  83.719316034   0.000000000       98078410    4668680
  38 37  0      723.4942905125   498.2300712012  83.719315650   0.000000000       98078410    4668680
  39 38  0      225.2642183940  -498.2300721185  83.719315336   0.000000000       98078410    4668680
  40 39  0      723.4942898145   498.2300714205  83.719315173   0.000000000       98078410    4668680
  41 40  0      225.2642180264  -498.2300717881  83.719315039   0.000000000       98078410    4668680
  42 41  0      723.4942895739   498.2300715476  83.719314972   0.000000000       98078410    4668680
  43 42  0      225.2642178841  -498.2300716898  83.719314916   0.000000000       98078410    4668680
  44 43  0      723.4942894755   498.2300715914  83.719314881   0.000000000       98078410    4668680
  45 44  0      225.2642177883  -498.2300716872  83.719314857   0.000000000       98078410    4668680
  46 45  0      723.4942893880   498.2300715997  83.719314851   0.000000000       98078410    4668680
  47 46  0      225.2642177516  -498.2300716363  83.719314840   0.000000000       98078410    4668680
  48 47  0      723.4942893859   498.2300716343  83.719314837   0.000000000       98078410    4668680
  49 48  0      225.2642177387  -498.2300716472  83.719314829   0.000000000       98078410    4668680
  50 49  0      723.4942892926   498.2300715538  83.719314824   0.000000000       98078410    4668680

 SCF IS UNCONVERGED, TOO MANY ITERATIONS
     TIME TO FORM FOCK OPERATORS=      27.2 SECONDS (       0.5 SEC/ITER)
     FOCK TIME ON FIRST ITERATION=       0.6, LAST ITERATION=       0.5
     TIME TO SOLVE SCF EQUATIONS=       1.0 SECONDS (       0.0 SEC/ITER)

 FINAL RHF ENERGY IS        0.0000000000 AFTER  50 ITERATIONS
 ...... END OF RHF CALCULATION ......
 CPU     0: STEP CPU TIME=    33.73 TOTAL CPU TIME=      10613.7 (    176.9 MIN)
 TOTAL WALL CLOCK TIME=      10882.3 SECONDS, CPU UTILIZATION IS    97.53%

 Iter= 10 iFrag=     12 EFMO=     0.000000000, DD=15.767490810, DE= 0.000000000


 RHF      monomer     11 corr= NONE       , L1=   215, L0=   215 ID=     20

 Int dimensions: LABSIZ=1, NINTIC=  6005000 ININTIC=  3002500
 Max L1 incore=   170 current l1=   215 force dirscf= T

 DIRECT SCF CALCULATION, SCHWRZ=T   FDIFF=T,  DIRTHR=  0.00E+00 NITDIR=10

                                                                                   NONZERO     BLOCKS
 ITER EX DEM     TOTAL ENERGY        E CHANGE  DENSITY CHANGE    DIIS ERROR      INTEGRALS    SKIPPED
   1  0  0     2579.0382855671  2579.0382855671 126.389901495   0.000000000       98782489    4757434
   2  1  0     1407.2104051817 -1171.8278803853  92.106614449   0.000000000       99426924    4639085
   3  2  0     2159.2738601866   752.0634550049  92.099120053   0.000000000       99428939    4640199
   4  3  0     1491.0136644618  -668.2601957248  88.534495002   0.000000000       99428796    4637789
   5  4  0     2030.1617701335   539.1481056718  88.519953130   0.000000000       99429250    4640298
   6  5  0     1481.4734863686  -548.6882837649  89.658120963   0.000000000       99431098    4636751
   7  6  0     2028.5168419689   547.0433556003  89.657846255   0.000000000       99431105    4636816
   8  7  0     1481.5401186946  -546.9767232743  89.668888463   0.000000000       99431140    4636720
   9  8  0     2028.5042315139   546.9641128193  89.668886374   0.000000000       99431132    4636716
  10  9  0     1481.5409785852  -546.9632529287  89.669016641   0.000000000       99431125    4636718
  11 10  0     2028.5041020061   546.9631234209  89.669016620   0.000000000       99431125    4636717
  12 11  0     1481.5409896421  -546.9631123640  89.669018280   0.000000000       99431125    4636717
  13 12  0     2028.5041004512   546.9631108090  89.669018280   0.000000000       99431125    4636717
  14 13  0     1481.5409897762  -546.9631106749  89.669018302   0.000000000       99431125    4636717
  15 14  0     2028.5041004314   546.9631106551  89.669018302   0.000000000       99431125    4636717
  16 15  0     1481.5409897797  -546.9631106516  89.669018302   0.000000000       99431125    4636717
  17 16  0     2028.5041004312   546.9631106514  89.669018302   0.000000000       99431125    4636717
  18 17  0     1481.5409897828  -546.9631106484  89.669018302   0.000000000       99431125    4636717
  19 18  0     2028.5041004309   546.9631106482  89.669018302   0.000000000       99431125    4636717
  20 19  0     1481.5409897867  -546.9631106442  89.669018299   0.000000000       99431125    4636717
  21 20  0     2028.5041004309   546.9631106442  89.669018299   0.000000000       99431125    4636717
  22 21  0     1481.5409897953  -546.9631106356  89.669018298   0.000000000       99431125    4636717
  23 22  0     2028.5041004309   546.9631106356  89.669018298   0.000000000       99431125    4636717
  24 23  0     1481.5409897944  -546.9631106365  89.669018297   0.000000000       99431125    4636717
  25 24  0     2028.5041004310   546.9631106366  89.669018297   0.000000000       99431125    4636717
  26 25  0     1481.5409897988  -546.9631106322  89.669018298   0.000000000       99431125    4636717
  27 26  0     2028.5041004313   546.9631106324  89.669018298   0.000000000       99431125    4636717
  28 27  0     1481.5409897893  -546.9631106420  89.669018296   0.000000000       99431125    4636717
  29 28  0     2028.5041004312   546.9631106420  89.669018296   0.000000000       99431125    4636717
  30 29  0     1481.5409897720  -546.9631106592  89.669018296   0.000000000       99431125    4636717
  31 30  0     2028.5041004310   546.9631106590  89.669018296   0.000000000       99431125    4636717
  32 31  0     1481.5409897888  -546.9631106422  89.669018298   0.000000000       99431125    4636717
  33 32  0     2028.5041004310   546.9631106422  89.669018298   0.000000000       99431125    4636717
  34 33  0     1481.5409897958  -546.9631106352  89.669018297   0.000000000       99431125    4636717
  35 34  0     2028.5041004313   546.9631106355  89.669018297   0.000000000       99431125    4636717
  36 35  0     1481.5409897897  -546.9631106416  89.669018299   0.000000000       99431125    4636717
  37 36  0     2028.5041004313   546.9631106415  89.669018299   0.000000000       99431125    4636717
  38 37  0     1481.5409897949  -546.9631106364  89.669018297   0.000000000       99431125    4636717
  39 38  0     2028.5041004313   546.9631106364  89.669018297   0.000000000       99431125    4636717
  40 39  0     1481.5409897844  -546.9631106469  89.669018295   0.000000000       99431125    4636717
  41 40  0     2028.5041004313   546.9631106469  89.669018295   0.000000000       99431125    4636717
  42 41  0     1481.5409897986  -546.9631106327  89.669018295   0.000000000       99431125    4636717
  43 42  0     2028.5041004312   546.9631106326  89.669018295   0.000000000       99431125    4636717
  44 43  0     1481.5409897953  -546.9631106358  89.669018295   0.000000000       99431125    4636717
  45 44  0     2028.5041004310   546.9631106357  89.669018295   0.000000000       99431125    4636717
  46 45  0     1481.5409897893  -546.9631106417  89.669018293   0.000000000       99431125    4636717
  47 46  0     2028.5041004313   546.9631106420  89.669018293   0.000000000       99431125    4636717
  48 47  0     1481.5409898023  -546.9631106290  89.669018295   0.000000000       99431125    4636717
  49 48  0     2028.5041004313   546.9631106290  89.669018295   0.000000000       99431125    4636717
  50 49  0     1481.5409898028  -546.9631106285  89.669018294   0.000000000       99431125    4636717

 SCF IS UNCONVERGED, TOO MANY ITERATIONS
     TIME TO FORM FOCK OPERATORS=      28.0 SECONDS (       0.6 SEC/ITER)
     FOCK TIME ON FIRST ITERATION=       0.5, LAST ITERATION=       0.5
     TIME TO SOLVE SCF EQUATIONS=       0.9 SECONDS (       0.0 SEC/ITER)

 FINAL RHF ENERGY IS        0.0000000000 AFTER  50 ITERATIONS
 ...... END OF RHF CALCULATION ......
 CPU     0: STEP CPU TIME=    34.36 TOTAL CPU TIME=      10648.1 (    177.5 MIN)
 TOTAL WALL CLOCK TIME=      10917.4 SECONDS, CPU UTILIZATION IS    97.53%

 Iter= 10 iFrag=     11 EFMO=     0.000000000, DD=76.860254876, DE= 0.000000000


 RHF      monomer     10 corr= NONE       , L1=   215, L0=   215 ID=     21

 Int dimensions: LABSIZ=1, NINTIC=  6005000 ININTIC=  3002500
 Max L1 incore=   170 current l1=   215 force dirscf= T

 DIRECT SCF CALCULATION, SCHWRZ=T   FDIFF=T,  DIRTHR=  0.00E+00 NITDIR=10

                                                                                   NONZERO     BLOCKS
 ITER EX DEM     TOTAL ENERGY        E CHANGE  DENSITY CHANGE    DIIS ERROR      INTEGRALS    SKIPPED
   1  0  0     1192.5391086958  1192.5391086958  66.620764425   0.000000000       96217180    4846348
   2  1  0     1862.8163294143   670.2772207185  66.615420029   0.000000000       96558690    4703798
   3  2  0     1189.0408726112  -673.7754568031  66.963563640   0.000000000       96559081    4700372
   4  3  0     1862.5016303518   673.4607577406  66.963515369   0.000000000       96559116    4700263
   5  4  0     1189.0433921338  -673.4582382180  66.964510988   0.000000000       96559123    4700239
   6  5  0     1862.4985417936   673.4551496598  66.964510730   0.000000000       96559123    4700238
   7  6  0     1189.0435319139  -673.4550098797  66.964512365   0.000000000       96559125    4700237
   8  7  0     1862.4985018132   673.4549698993  66.964512363   0.000000000       96559125    4700237
   9  8  0     1189.0435342644  -673.4549675487  66.964512333   0.000000000       96559125    4700237
  10  9  0     1862.4985012689   673.4549670045  66.964512333   0.000000000       96559125    4700237
  11 10  0     1189.0435342822  -673.4549669867  66.964512331   0.000000000       96559125    4700237
  12 11  0     1862.4985012612   673.4549669789  66.964512331   0.000000000       96559125    4700237
  13 12  0     1189.0435342959  -673.4549669653  66.964512330   0.000000000       96559125    4700237
  14 13  0     1862.4985012612   673.4549669654  66.964512330   0.000000000       96559125    4700237
  15 14  0     1189.0435342836  -673.4549669776  66.964512330   0.000000000       96559125    4700237
  16 15  0     1862.4985012614   673.4549669778  66.964512330   0.000000000       96559125    4700237
  17 16  0     1189.0435342879  -673.4549669735  66.964512330   0.000000000       96559125    4700237
  18 17  0     1862.4985012615   673.4549669735  66.964512330   0.000000000       96559125    4700237
