----- GAMESS execution script 'rungms' -----
This job is running on host gollum089.lsa.umich.edu
under operating system Linux at Thu Mar 21 11:03:44 EDT 2019
Available scratch disk space (Kbyte units) at beginning of the job is
Filesystem             1K-blocks        Used   Available Use% Mounted on
frank-00:/home/hazwong
                     58597580800 30531334144 28066246656  53% /home/hazwong
GAMESS temporary binary files will be written to /home/hazwong/test/git_repository/RNAFMO/testing/1XHP/gamess/usrc_51
GAMESS supplementary output files will be written to /home/hazwong/test/git_repository/RNAFMO/testing/1XHP/gamess/src_51/
Copying input file 1XHP_nlb_decoy_51.inp to your run's scratch directory...
This is a GDDI run, keeping various output files on local disks
 
Assuming a single but multicore node.
 

 Distributed Data Interface kickoff program.
 Initiating 8 compute processes on 1 nodes to run the following command:
 /export/apps/gamess/src/build//gamess.R3.x 1XHP_nlb_decoy_51 

          ******************************************************
          *         GAMESS VERSION = 30 SEP 2018 (R3)         *
          *             FROM IOWA STATE UNIVERSITY             *
          * M.W.SCHMIDT, K.K.BALDRIDGE, J.A.BOATZ, S.T.ELBERT, *
          *   M.S.GORDON, J.H.JENSEN, S.KOSEKI, N.MATSUNAGA,   *
          *          K.A.NGUYEN, S.J.SU, T.L.WINDUS,           *
          *       TOGETHER WITH M.DUPUIS, J.A.MONTGOMERY       *
          *         J.COMPUT.CHEM.  14, 1347-1363(1993)        *
          **************** 64 BIT LINUX VERSION ****************

  SINCE 1993, STUDENTS AND POSTDOCS WORKING AT IOWA STATE UNIVERSITY
  AND ALSO IN THEIR VARIOUS JOBS AFTER LEAVING ISU HAVE MADE IMPORTANT
  CONTRIBUTIONS TO THE CODE:
     IVANA ADAMOVIC, CHRISTINE AIKENS, YURI ALEXEEV, POOJA ARORA,
     ANDREY ASADCHEV, ROB BELL, PRADIPTA BANDYOPADHYAY, JONATHAN BENTZ,
     BRETT BODE, KURT BRORSEN, CALEB CARLIN, GALINA CHABAN, WEI CHEN,
     CHEOL HO CHOI, PAUL DAY, ALBERT DEFUSCO, NUWAN DESILVA, TIM DUDLEY,
     DMITRI FEDOROV, ALEX FINDLATER, GRAHAM FLETCHER, MARK FREITAG,
     KURT GLAESEMANN, ANASTASIA GUNINA,
     DAN KEMP, GRANT MERRILL, NORIYUKI MINEZAWA, JONATHAN MULLIN,
     TAKESHI NAGATA, SEAN NEDD, HEATHER NETZLOFF, BOSILJKA NJEGIC, RYAN OLSON,
     MIKE PAK, BUU PHAM,
     SPENCER PRUITT, LUKE ROSKOP, JIM SHOEMAKER, LYUDMILA SLIPCHENKO,
     TONY SMITH, SAROM SOK LEANG, JIE SONG, TETSUYA TAKETSUGU, SIMON WEBB,
     PENG XU, SOOHAENG YOO, FEDERICO ZAHARIEV

  ADDITIONAL CODE HAS BEEN PROVIDED BY COLLABORATORS IN OTHER GROUPS:
     IOWA STATE UNIVERSITY:
          JOE IVANIC, AARON WEST, LAIMUTIS BYTAUTAS, KLAUS RUEDENBERG
     UNIVERSITY OF TOKYO: KIMIHIKO HIRAO, TAKAHITO NAKAJIMA,
          TAKAO TSUNEDA, MUNEAKI KAMIYA, SUSUMU YANAGISAWA,
          KIYOSHI YAGI, MAHITO CHIBA, SEIKEN TOKURA, NAOAKI KAWAKAMI
     UNIVERSITY OF AARHUS: FRANK JENSEN
     UNIVERSITY OF IOWA: VISVALDAS KAIRYS, HUI LI
     NATIONAL INST. OF STANDARDS AND TECHNOLOGY: WALT STEVENS, DAVID GARMER
     UNIVERSITY OF PISA: BENEDETTA MENNUCCI, JACOPO TOMASI
     UNIVERSITY OF MEMPHIS: HENRY KURTZ, PRAKASHAN KORAMBATH
     UNIVERSITY OF ALBERTA: TOBY ZENG, MARIUSZ KLOBUKOWSKI
     UNIVERSITY OF NEW ENGLAND: MARK SPACKMAN
     MIE UNIVERSITY: HIROAKI UMEDA
     NAT. INST. OF ADVANCED INDUSTRIAL SCIENCE AND TECHNOLOGY: KAZUO KITAURA
     MICHIGAN STATE UNIVERSITY:
          KAROL KOWALSKI, MARTA WLOCH, JEFFREY GOUR, JESSE LUTZ,
          WEI LI, JUN SHEN, J. EMILIANO DEUSTUA, PIOTR PIECUCH
     UNIVERSITY OF MINNESOTA:
          YINAN SHU
     UNIVERSITY OF SILESIA: MONIKA MUSIAL, STANISLAW KUCHARSKI
     FACULTES UNIVERSITAIRES NOTRE-DAME DE LA PAIX:
          OLIVIER QUINET, BENOIT CHAMPAGNE
     UNIVERSITY OF CALIFORNIA - SANTA BARBARA: BERNARD KIRTMAN
     INSTITUTE FOR MOLECULAR SCIENCE:
          KAZUYA ISHIMURA, MICHIO KATOUDA, AND SHIGERU NAGASE
     UNIVERSITY OF NOTRE DAME: ANNA POMOGAEVA, DAN CHIPMAN
     KYUSHU UNIVERSITY:
          HARUYUKI NAKANO,
          FENG LONG GU, JACEK KORCHOWIEC, MARCIN MAKOWSKI, AND YURIKO AOKI,
          HIROTOSHI MORI AND EISAKU MIYOSHI
     PENNSYLVANIA STATE UNIVERSITY:
          TZVETELIN IORDANOV, CHET SWALINA, JONATHAN SKONE,
          SHARON HAMMES-SCHIFFER
     WASEDA UNIVERSITY:
          MASATO KOBAYASHI, TOMOKO AKAMA, TSUGUKI TOUMA,
          TAKESHI YOSHIKAWA, YASUHIRO IKABATA, JUNJI SEINO,
          YUYA NAKAJIMA, HIROMI NAKAI
     NANJING UNIVERSITY: SHUHUA LI
     UNIVERSITY OF NEBRASKA:
          PEIFENG SU, DEJUN SI, NANDUN THELLAMUREGE, YALI WANG, HUI LI
     UNIVERSITY OF ZURICH: ROBERTO PEVERATI, KIM BALDRIDGE
     N. COPERNICUS UNIVERSITY AND JACKSON STATE UNIVERSITY:
          MARIA BARYSZ
     UNIVERSITY OF COPENHAGEN: Jimmy Kromann, CASPER STEINMANN
     TOKYO INSTITUTE OF TECHNOLOGY: HIROYA NAKATA
     NAGOYA UNIVERSITY: YOSHIO NISHIMOTO, STEPHAN IRLE
     MOSCOW STATE UNIVERSITY: VLADIMIR MIRONOV


 PARALLEL VERSION RUNNING ON        8 PROCESSORS IN        1 NODES.

 EXECUTION OF GAMESS BEGUN Thu Mar 21 11:03:44 2019

            ECHO OF THE FIRST FEW INPUT CARDS -
 INPUT CARD>!*** FMO 5.2 (Gamess) INPUT generated by Facio 21.1.1.32 ***                    
 INPUT CARD> $CONTRL RUNTYP=OPTFMO NPRINT=-5 ISPHER=-1 MAXIT=50 $END                        
 INPUT CARD> $SYSTEM MWORDS=29 $END                                                         
 INPUT CARD> $GDDI NGROUP=1 $END                                                            
 INPUT CARD> $INTGRL NINTIC=-9000000 $END                                                   
 INPUT CARD> $SCF DIRSCF=.FALSE. NPUNCH=0 $END                                              
 INPUT CARD>!*** NumCPU : 2  MemPerNode : 512MB                                             
 INPUT CARD> $FMOPRP                                                                        
 INPUT CARD>    NAODIR=210                                                                  
 INPUT CARD>    NGRFMO(1)=1, 1, 0, 0, 0,   0, 0, 0, 0, 0                                    
 INPUT CARD>    NPRINT=9                                                                    
 INPUT CARD> $END                                                                           
 INPUT CARD> $FMO                                                                           
 INPUT CARD>      SCFTYP(1)=RHF                                                             
 INPUT CARD>      MODGRD=10                                                                 
 INPUT CARD>      MODMUL=0                                                                  
 INPUT CARD>      MAXCAO=5                                                                  
 INPUT CARD>      MAXBND=34                                                                 
 INPUT CARD>      NLAYER=1                                                                  
 INPUT CARD>      NFRAG=32                                                                  
 INPUT CARD>      ICHARG(1)=-1, -1, -1, -1, -1, -1, -1, -1, -1, -1,                         
 INPUT CARD>-1, -1, -1, -1, -1, -1, -1, -1, -1, -1,                                         
 INPUT CARD>-1, -1, -1, -1, -1, -1, -1, -1, -1, -1,                                         
 INPUT CARD>-1, 0                                                                           
 INPUT CARD>      FRGNAM(1)=Frag1, Frag2, Frag3, Frag4, Frag5, Frag6, Frag7, Frag8, Frag9, F
 INPUT CARD>      indat(1)=0                                                                
 INPUT CARD>               1   -36   0                                                      
 INPUT CARD>               37   -69   0                                                     
 INPUT CARD>               70   -103   0                                                    
 INPUT CARD>               104   -134   0                                                   
 INPUT CARD>               135   -167   0                                                   
 INPUT CARD>               168   -201   0                                                   
 INPUT CARD>               202   -231   0                                                   
 INPUT CARD>               232   -261   0                                                   
 INPUT CARD>               262   -292   0                                                   
 INPUT CARD>               293   -323   0                                                   
 INPUT CARD>               324   -354   0                                                   
 INPUT CARD>               355   -385   0                                                   
 INPUT CARD>               386   -415   0                                                   
 INPUT CARD>               416   -449   0                                                   
 INPUT CARD>               450   -480   0                                                   
 INPUT CARD>               481   -513   0                                                   
 INPUT CARD>               514   -543   0                                                   
 INPUT CARD>               544   -576   0                                                   
 INPUT CARD>               577   -609   0                                                   
 INPUT CARD>               610   -643   0                                                   
 INPUT CARD>               644   -677   0                                                   
 INPUT CARD>               678   -710   0                                                   
 INPUT CARD>               711   -740   0                                                   
 INPUT CARD>               741   -774   0                                                   


 -------------------------------------------------------------
 GROUP DDI, PROGRAMMED BY: RYAN M. OLSON AND DMITRI G. FEDOROV
        FEDOROV ET AL., J. COMPUT. CHEM., 25 (2004) 872.
 -------------------------------------------------------------

 -------------------------------------------------------
 GDDI: INITIALIZATION COMPLETED FOR GROUP     1 OF     1
 WITH     8 PROCESSES BALTYP=DLB   global rank=        0
 -------------------------------------------------------

   29000000 WORDS OF MEMORY AVAILABLE


     RUN TITLE
     ---------
  FMO calculation : XXNAMEXX                                                     

 THE POINT GROUP OF THE MOLECULE IS C1      
 THE ORDER OF THE PRINCIPAL AXIS IS     0

 ATOM   ATOMIC CHARGE
 C.1-1       6.0
 O.1-1       8.0
 N.1-1       7.0
 H.1-1       1.0
 P.1-1      15.0

     ATOMIC BASIS SET LIBRARY
     ----------------
 THE CONTRACTED PRIMITIVE FUNCTIONS HAVE BEEN UNNORMALIZED
 THE CONTRACTED BASIS FUNCTIONS ARE NOW NORMALIZED TO UNITY

  SHELL TYPE  PRIMITIVE        EXPONENT          CONTRACTION COEFFICIENT(S)

 C.1-1     

      1   S       1           172.2560000    0.061766907377
      1   S       2            25.9109000    0.358794042852
      1   S       3             5.5333500    0.700713083689

      2   L       4             3.6649800   -0.395895162119    0.236459946619
      2   L       5             0.7705450    1.215834355681    0.860618805716

      3   L       6             0.1958570    1.000000000000    1.000000000000

 O.1-1     

      4   S       7           322.0370000    0.059239393389
      4   S       8            48.4308000    0.351499960776
      4   S       9            10.4206000    0.707657921031

      5   L      10             7.4029400   -0.404453583190    0.244586106967
      5   L      11             1.5762000    1.221561761397    0.853955373466

      6   L      12             0.3736840    1.000000000000    1.000000000000

 N.1-1     

      7   S      13           242.7660000    0.059865700508
      7   S      14            36.4851000    0.352955002994
      7   S      15             7.8144900    0.706513005993

      8   L      16             5.4252200   -0.413300077430    0.237972016222
      8   L      17             1.1491500    1.224417266851    0.858953058551

      9   L      18             0.2832050    1.000000000000    1.000000000000

 H.1-1     

     10   S      19             5.4471780    0.156284978695
     10   S      20             0.8245472    0.904690876670

     11   S      21             0.1831916    1.000000000000

 P.1-1     

     12   S      22          1054.9000000    0.065540713549
     12   S      23           159.1950000    0.384036079392
     12   S      24            34.5304000    0.674541139449

     13   L      25            44.2866000   -0.102130053458    0.110851002536
     13   L      26            10.1019000    0.081592242708    0.456495010442
     13   L      27             2.7399700    0.969788507613    0.606936013883

     14   L      28             1.2186500   -0.371496021877    0.091582310217
     14   L      29             0.3955460    1.270993496131    0.934924104303

     15   L      30             0.1228110    1.000000000000    1.000000000000

 TOTAL NUMBER OF BASIS SET SHELLS             =   15
 NUMBER OF CARTESIAN GAUSSIAN BASIS FUNCTIONS =   42

     $CONTRL OPTIONS
     ---------------
 SCFTYP=RHF          RUNTYP=OPTFMO       EXETYP=RUN     
 MPLEVL=       0     CITYP =NONE         CCTYP =NONE         VBTYP =NONE    
 DFTTYP=NONE         TDDFT =NONE    
 MULT  =       1     ICHARG=       0     NZVAR =       0     COORD =UNIQUE  
 PP    =NONE         RELWFN=NONE         LOCAL =NONE         NUMGRD=       F
 ISPHER=      -1     NOSYM =       0     MAXIT =      50     UNITS =ANGS    
 PLTORB=       F     MOLPLT=       F     AIMPAC=       F     FRIEND=        
 NPRINT=      -5     IREST =       0     GEOM  =INPUT   
 NORMF =       0     NORMP =       0     ITOL  =      24     ICUT  =      12
 INTTYP=BEST         GRDTYP=BEST         QMTTOL= 1.0E-06

     $SYSTEM OPTIONS
     ---------------
  REPLICATED MEMORY=    29000000 WORDS (ON EVERY NODE).
 DISTRIBUTED MEMDDI=           0 MILLION WORDS IN AGGREGATE,
 MEMDDI DISTRIBUTED OVER   8 PROCESSORS IS           0 WORDS/PROCESSOR.
 TOTAL MEMORY REQUESTED ON EACH PROCESSOR=    29000000 WORDS.
 TIMLIM=      525600.00 MINUTES, OR     365.0 DAYS.
 PARALL= T  BALTYP=  DLB     KDIAG=    0  COREFL= F
 MXSEQ2=     300 MXSEQ3=     150  mem10=         0

          ----------------
          PROPERTIES INPUT
          ----------------

     MOMENTS            FIELD           POTENTIAL          DENSITY
 IEMOM =       1   IEFLD =       0   IEPOT =       0   IEDEN =       0
 WHERE =COMASS     WHERE =NUCLEI     WHERE =NUCLEI     WHERE =NUCLEI  
 OUTPUT=BOTH       OUTPUT=BOTH       OUTPUT=NONE       OUTPUT=BOTH    
 IEMINT=       0   IEFINT=       0                     IEDINT=       0
                                                       MORB  =       0
          EXTRAPOLATION IN EFFECT
          SOSCF IN EFFECT
 ORBITAL PRINTING OPTION: NPREO=     1 32767     2     1

     -------------------------------
     INTEGRAL TRANSFORMATION OPTIONS
     -------------------------------
     NWORD  =            0
     CUTOFF = 1.0E-10     MPTRAN =       0
     DIRTRF =       F     AOINTS =DUP     

          ----------------------
          INTEGRAL INPUT OPTIONS
          ----------------------
 NOPK  =       1 NORDER=       0 SCHWRZ=       T

 ..... DONE SETTING UP THE RUN .....
 CPU     0: STEP CPU TIME=     0.05 TOTAL CPU TIME=          0.0 (      0.0 MIN)
 TOTAL WALL CLOCK TIME=          0.1 SECONDS, CPU UTILIZATION IS    71.43%

 ALLOCATED      9030000 WORDS FOR IN CORE 2E INTEGRALS.


 """""""""""""""""""""""""""""""""""""""""""""""""""""""""""""""""""""""""""
 FMO geometry optimisation driver:

 Method=HSSUPD   UPDATE=BFGS       Hess=GUESS    LINSER=   0   NFRZ=     0
   STEP=  0.7500 STPMIN=  0.0000 STPMAX=  1.0000 STPFAC=  1.0000

 Using     28676 words of memory.
 """""""""""""""""""""""""""""""""""""""""""""""""""""""""""""""""""""""""""

 Using   590016 words of incore integral buffer to store inverse Hessian.

 CPU     0: STEP CPU TIME=     0.01 TOTAL CPU TIME=          0.1 (      0.0 MIN)
 TOTAL WALL CLOCK TIME=          0.1 SECONDS, CPU UTILIZATION IS    75.00%

                    ----------------------
                    AO INTEGRAL TECHNOLOGY
                    ----------------------
     S,P,L SHELL ROTATED AXIS INTEGRALS, REPROGRAMMED BY
        KAZUYA ISHIMURA (IMS) AND JOSE SIERRA (SYNSTAR).
     S,P,D,L SHELL ROTATED AXIS INTEGRALS PROGRAMMED BY
        KAZUYA ISHIMURA (INSTITUTE FOR MOLECULAR SCIENCE).
     S,P,D,F,G SHELL TO TOTAL QUARTET ANGULAR MOMENTUM SUM 5,
        ERIC PROGRAM BY GRAHAM FLETCHER (ELORET AND NASA ADVANCED
        SUPERCOMPUTING DIVISION, AMES RESEARCH CENTER).
     S,P,D,F,G,L SHELL GENERAL RYS QUADRATURE PROGRAMMED BY
        MICHEL DUPUIS (PACIFIC NORTHWEST NATIONAL LABORATORY).
 CPU     0: STEP CPU TIME=     0.05 TOTAL CPU TIME=          0.1 (      0.0 MIN)
 TOTAL WALL CLOCK TIME=          0.2 SECONDS, CPU UTILIZATION IS    61.11%
 CPU     0: STEP CPU TIME=     0.00 TOTAL CPU TIME=          0.1 (      0.0 MIN)
 TOTAL WALL CLOCK TIME=          0.2 SECONDS, CPU UTILIZATION IS    61.11%
 Initialising fragments
 CPU     0: STEP CPU TIME=     0.00 TOTAL CPU TIME=          0.1 (      0.0 MIN)
 TOTAL WALL CLOCK TIME=          0.2 SECONDS, CPU UTILIZATION IS    61.11%
 CPU     0: STEP CPU TIME=     0.00 TOTAL CPU TIME=          0.1 (      0.0 MIN)
 TOTAL WALL CLOCK TIME=          0.2 SECONDS, CPU UTILIZATION IS    61.11%

 -----------------------------------------------------------------------
                  The Fragment Molecular Orbital (FMO) method.
                       The program is developed at the
                     Nanoscience Research Institute (NRI)
     (formerly, Research Institute for Computational Sciences, RICS)
 National Institute of Advanced Industrial Science and Technology (AIST)
     AIST Tsukuba Central 2, Umezono 1-1-1, Tsukuba, 305-8568, Japan.

                         Version 5.3
                    coded by D. G. Fedorov and K. Kitaura,
 with contributions from N. Asada, K.R. Brorsen, M. Chiba, C. Choi, N. Minezawa,
 T. Nagata, H. Nakata, Y. Nishimoto, S.R. Pruitt, C. Steinmann, and F. Zahariev.
       All publications using the FMO method in GAMESS should reference:
          D. G. Fedorov, K. Kitaura, J. Chem. Phys. 120, 6832 (2004).
 -----------------------------------------------------------------------

 Used memory (words):      1729362
 Number of fragments:     32
 Number of layers:         1
 N-body FMO method:        2
 Number of atoms:       1024
 Total charge:           -31
 Total spin multiplicity:  1
 Number of basis sets:     1
 Number of LMO types:      2
 Number of boundaries:    31
 MonomerSCF convergence:   0.1000E-06
 Max monomerSCF iter:     30
 MonomerSCF criterion:     internal
 Max AOs per n-mer:      253      495
 Projection operator constant:  0.10E+07
 Layer electron correlation information
     nbody=  2
    SCFTYP=RHF     
    MPLEVL=  0
    DFTTYP=NONE    
     CITYP=NONE    
     CCTYP=NONE    
     TDDFT=NONE    
 FMO method: FMO2-RHF

 Bond fragmentation scheme: HOP

 FMO approximations.
    Using point charge approximation for the 2e ESP with the VdW factor   2.00
    Using ES-dimer approximation with the VdW factor   2.00
    The uniform distances will be used in ESPs.
    Van der Waals radii in Angstrom are:
       R(H  )=  1.2000
       R(O  )=  1.4000
       R(C  )=  1.5000
       R(N  )=  1.5000
       R(P  )=  1.8000
    FMO gradient: add ESP derivative terms.
    FMO gradient: add Mulliken charge derivative.
    FMO gradient: add HOP derivatives.

 FMO initial guess options.
    Using monomer density to form dimer guess.

 FMO extensions.

 FMO automation options.

 FMO SCF converger options.
    SCF convergers:
     65     65     65     65     65     65     65     65     65     65
    Fragment densities will be exchanged.

 FMO parallelisation options.
    Smart parallel load balancing: large jobs first.
    ESPs will be shell parallelised.
    Broadcast all fragments at once.
    Do the fragment initialisation in the reverse order.
    Layer 1, monomer(SCF,MP2,MCSCF) groups are:    1    0    0
    Layer 1,   dimer(SCF,ESD,MCSCF) groups are:    1    0    0

 FMO properties and print-out level.
    Interfragment CT method:    4
       Compact print-out level.
    Atomic charges will be printed.

 Array dimensions maxbnd,maxknd,maxcbs,maxcao,maxbbd are:
                      34     10     13      5     13

 --------------------------------------------------




 Starting layer 1 nbody=2
 SCFTYP=RHF     MPLEVL=0 DFTTYP=NONE    CITYP=NONE    CCTYP=NONE    TDDFT=NONE    


 CPU     0: STEP CPU TIME=     0.01 TOTAL CPU TIME=          0.1 (      0.0 MIN)
 TOTAL WALL CLOCK TIME=          0.2 SECONDS, CPU UTILIZATION IS    57.14%

 Running initial guess for monomer      32


          -------------
          GUESS OPTIONS
          -------------
          GUESS =HUCKEL            NORB  =       0          NORDER=       0
          MIX   =       F          PRTMO =       F          PUNMO =       F
          TOLZ  = 1.0E-08          TOLE  = 1.0E-05
          SYMDEN=       F          PURIFY=       F

 INITIAL GUESS ORBITALS GENERATED BY HUCKEL   ROUTINE.
 HUCKEL GUESS REQUIRES    259752 WORDS.

 SYMMETRIES FOR INITIAL GUESS ORBITALS FOLLOW.   BOTH SET(S).
    59 ORBITALS ARE OCCUPIED (   16 CORE ORBITALS).
    17=A       18=A       19=A       20=A       21=A       22=A       23=A   
    24=A       25=A       26=A       27=A       28=A       29=A       30=A   
    31=A       32=A       33=A       34=A       35=A       36=A       37=A   
    38=A       39=A       40=A       41=A       42=A       43=A       44=A   
    45=A       46=A       47=A       48=A       49=A       50=A       51=A   
    52=A       53=A       54=A       55=A       56=A       57=A       58=A   
    59=A       60=A       61=A       62=A       63=A       64=A       65=A   
    66=A       67=A       68=A       69=A   
 ...... END OF INITIAL ORBITAL SELECTION ......
 CPU     0: STEP CPU TIME=     0.04 TOTAL CPU TIME=          0.2 (      0.0 MIN)
 TOTAL WALL CLOCK TIME=          0.3 SECONDS, CPU UTILIZATION IS    61.54%

 Running initial guess for monomer      31


          -------------
          GUESS OPTIONS
          -------------
          GUESS =HUCKEL            NORB  =       0          NORDER=       0
          MIX   =       F          PRTMO =       F          PUNMO =       F
          TOLZ  = 1.0E-08          TOLE  = 1.0E-05
          SYMDEN=       F          PURIFY=       F

 INITIAL GUESS ORBITALS GENERATED BY HUCKEL   ROUTINE.
 HUCKEL GUESS REQUIRES    405894 WORDS.

 SYMMETRIES FOR INITIAL GUESS ORBITALS FOLLOW.   BOTH SET(S).
    79 ORBITALS ARE OCCUPIED (   24 CORE ORBITALS).
    25=A       26=A       27=A       28=A       29=A       30=A       31=A   
    32=A       33=A       34=A       35=A       36=A       37=A       38=A   
    39=A       40=A       41=A       42=A       43=A       44=A       45=A   
    46=A       47=A       48=A       49=A       50=A       51=A       52=A   
    53=A       54=A       55=A       56=A       57=A       58=A       59=A   
    60=A       61=A       62=A       63=A       64=A       65=A       66=A   
    67=A       68=A       69=A       70=A       71=A       72=A       73=A   
    74=A       75=A       76=A       77=A       78=A       79=A       80=A   
    81=A       82=A       83=A       84=A       85=A       86=A       87=A   
    88=A       89=A   
 ...... END OF INITIAL ORBITAL SELECTION ......
 CPU     0: STEP CPU TIME=     0.06 TOTAL CPU TIME=          0.2 (      0.0 MIN)
 TOTAL WALL CLOCK TIME=          0.4 SECONDS, CPU UTILIZATION IS    59.46%

 Running initial guess for monomer      30


          -------------
          GUESS OPTIONS
          -------------
          GUESS =HUCKEL            NORB  =       0          NORDER=       0
          MIX   =       F          PRTMO =       F          PUNMO =       F
          TOLZ  = 1.0E-08          TOLE  = 1.0E-05
          SYMDEN=       F          PURIFY=       F

 INITIAL GUESS ORBITALS GENERATED BY HUCKEL   ROUTINE.
 HUCKEL GUESS REQUIRES    405894 WORDS.

 SYMMETRIES FOR INITIAL GUESS ORBITALS FOLLOW.   BOTH SET(S).
    79 ORBITALS ARE OCCUPIED (   24 CORE ORBITALS).
    25=A       26=A       27=A       28=A       29=A       30=A       31=A   
    32=A       33=A       34=A       35=A       36=A       37=A       38=A   
    39=A       40=A       41=A       42=A       43=A       44=A       45=A   
    46=A       47=A       48=A       49=A       50=A       51=A       52=A   
    53=A       54=A       55=A       56=A       57=A       58=A       59=A   
    60=A       61=A       62=A       63=A       64=A       65=A       66=A   
    67=A       68=A       69=A       70=A       71=A       72=A       73=A   
    74=A       75=A       76=A       77=A       78=A       79=A       80=A   
    81=A       82=A       83=A       84=A       85=A       86=A       87=A   
    88=A       89=A   
 ...... END OF INITIAL ORBITAL SELECTION ......
 CPU     0: STEP CPU TIME=     0.05 TOTAL CPU TIME=          0.3 (      0.0 MIN)
 TOTAL WALL CLOCK TIME=          0.5 SECONDS, CPU UTILIZATION IS    57.45%

 Running initial guess for monomer      29


          -------------
          GUESS OPTIONS
          -------------
          GUESS =HUCKEL            NORB  =       0          NORDER=       0
          MIX   =       F          PRTMO =       F          PUNMO =       F
          TOLZ  = 1.0E-08          TOLE  = 1.0E-05
          SYMDEN=       F          PURIFY=       F

 INITIAL GUESS ORBITALS GENERATED BY HUCKEL   ROUTINE.
 HUCKEL GUESS REQUIRES    520404 WORDS.

 SYMMETRIES FOR INITIAL GUESS ORBITALS FOLLOW.   BOTH SET(S).
    89 ORBITALS ARE OCCUPIED (   27 CORE ORBITALS).
    28=A       29=A       30=A       31=A       32=A       33=A       34=A   
    35=A       36=A       37=A       38=A       39=A       40=A       41=A   
    42=A       43=A       44=A       45=A       46=A       47=A       48=A   
    49=A       50=A       51=A       52=A       53=A       54=A       55=A   
    56=A       57=A       58=A       59=A       60=A       61=A       62=A   
    63=A       64=A       65=A       66=A       67=A       68=A       69=A   
    70=A       71=A       72=A       73=A       74=A       75=A       76=A   
    77=A       78=A       79=A       80=A       81=A       82=A       83=A   
    84=A       85=A       86=A       87=A       88=A       89=A       90=A   
    91=A       92=A       93=A       94=A       95=A       96=A       97=A   
    98=A       99=A   
 ...... END OF INITIAL ORBITAL SELECTION ......
 CPU     0: STEP CPU TIME=     0.08 TOTAL CPU TIME=          0.4 (      0.0 MIN)
 TOTAL WALL CLOCK TIME=          0.6 SECONDS, CPU UTILIZATION IS    58.33%

 Running initial guess for monomer      28


          -------------
          GUESS OPTIONS
          -------------
          GUESS =HUCKEL            NORB  =       0          NORDER=       0
          MIX   =       F          PRTMO =       F          PUNMO =       F
          TOLZ  = 1.0E-08          TOLE  = 1.0E-05
          SYMDEN=       F          PURIFY=       F

 INITIAL GUESS ORBITALS GENERATED BY HUCKEL   ROUTINE.
 HUCKEL GUESS REQUIRES    413697 WORDS.

 SYMMETRIES FOR INITIAL GUESS ORBITALS FOLLOW.   BOTH SET(S).
    79 ORBITALS ARE OCCUPIED (   24 CORE ORBITALS).
    25=A       26=A       27=A       28=A       29=A       30=A       31=A   
    32=A       33=A       34=A       35=A       36=A       37=A       38=A   
    39=A       40=A       41=A       42=A       43=A       44=A       45=A   
    46=A       47=A       48=A       49=A       50=A       51=A       52=A   
    53=A       54=A       55=A       56=A       57=A       58=A       59=A   
    60=A       61=A       62=A       63=A       64=A       65=A       66=A   
    67=A       68=A       69=A       70=A       71=A       72=A       73=A   
    74=A       75=A       76=A       77=A       78=A       79=A       80=A   
    81=A       82=A       83=A       84=A       85=A       86=A       87=A   
    88=A       89=A   
 ...... END OF INITIAL ORBITAL SELECTION ......
 CPU     0: STEP CPU TIME=     0.06 TOTAL CPU TIME=          0.4 (      0.0 MIN)
 TOTAL WALL CLOCK TIME=          0.7 SECONDS, CPU UTILIZATION IS    57.75%

 Running initial guess for monomer      27


          -------------
          GUESS OPTIONS
          -------------
          GUESS =HUCKEL            NORB  =       0          NORDER=       0
          MIX   =       F          PRTMO =       F          PUNMO =       F
          TOLZ  = 1.0E-08          TOLE  = 1.0E-05
          SYMDEN=       F          PURIFY=       F

 INITIAL GUESS ORBITALS GENERATED BY HUCKEL   ROUTINE.
 HUCKEL GUESS REQUIRES    413697 WORDS.

 SYMMETRIES FOR INITIAL GUESS ORBITALS FOLLOW.   BOTH SET(S).
    79 ORBITALS ARE OCCUPIED (   24 CORE ORBITALS).
    25=A       26=A       27=A       28=A       29=A       30=A       31=A   
    32=A       33=A       34=A       35=A       36=A       37=A       38=A   
    39=A       40=A       41=A       42=A       43=A       44=A       45=A   
    46=A       47=A       48=A       49=A       50=A       51=A       52=A   
    53=A       54=A       55=A       56=A       57=A       58=A       59=A   
    60=A       61=A       62=A       63=A       64=A       65=A       66=A   
    67=A       68=A       69=A       70=A       71=A       72=A       73=A   
    74=A       75=A       76=A       77=A       78=A       79=A       80=A   
    81=A       82=A       83=A       84=A       85=A       86=A       87=A   
    88=A       89=A   
 ...... END OF INITIAL ORBITAL SELECTION ......
 CPU     0: STEP CPU TIME=     0.06 TOTAL CPU TIME=          0.5 (      0.0 MIN)
 TOTAL WALL CLOCK TIME=          0.8 SECONDS, CPU UTILIZATION IS    57.32%

 Running initial guess for monomer      26


          -------------
          GUESS OPTIONS
          -------------
          GUESS =HUCKEL            NORB  =       0          NORDER=       0
          MIX   =       F          PRTMO =       F          PUNMO =       F
          TOLZ  = 1.0E-08          TOLE  = 1.0E-05
          SYMDEN=       F          PURIFY=       F

 INITIAL GUESS ORBITALS GENERATED BY HUCKEL   ROUTINE.
 HUCKEL GUESS REQUIRES    483461 WORDS.

 SYMMETRIES FOR INITIAL GUESS ORBITALS FOLLOW.   BOTH SET(S).
    85 ORBITALS ARE OCCUPIED (   26 CORE ORBITALS).
    27=A       28=A       29=A       30=A       31=A       32=A       33=A   
    34=A       35=A       36=A       37=A       38=A       39=A       40=A   
    41=A       42=A       43=A       44=A       45=A       46=A       47=A   
    48=A       49=A       50=A       51=A       52=A       53=A       54=A   
    55=A       56=A       57=A       58=A       59=A       60=A       61=A   
    62=A       63=A       64=A       65=A       66=A       67=A       68=A   
    69=A       70=A       71=A       72=A       73=A       74=A       75=A   
    76=A       77=A       78=A       79=A       80=A       81=A       82=A   
    83=A       84=A       85=A       86=A       87=A       88=A       89=A   
    90=A       91=A       92=A       93=A       94=A       95=A   
 ...... END OF INITIAL ORBITAL SELECTION ......
 CPU     0: STEP CPU TIME=     0.07 TOTAL CPU TIME=          0.5 (      0.0 MIN)
 TOTAL WALL CLOCK TIME=          0.9 SECONDS, CPU UTILIZATION IS    57.45%

 Running initial guess for monomer      25


          -------------
          GUESS OPTIONS
          -------------
          GUESS =HUCKEL            NORB  =       0          NORDER=       0
          MIX   =       F          PRTMO =       F          PUNMO =       F
          TOLZ  = 1.0E-08          TOLE  = 1.0E-05
          SYMDEN=       F          PURIFY=       F

 INITIAL GUESS ORBITALS GENERATED BY HUCKEL   ROUTINE.
 HUCKEL GUESS REQUIRES    483461 WORDS.

 SYMMETRIES FOR INITIAL GUESS ORBITALS FOLLOW.   BOTH SET(S).
    85 ORBITALS ARE OCCUPIED (   26 CORE ORBITALS).
    27=A       28=A       29=A       30=A       31=A       32=A       33=A   
    34=A       35=A       36=A       37=A       38=A       39=A       40=A   
    41=A       42=A       43=A       44=A       45=A       46=A       47=A   
    48=A       49=A       50=A       51=A       52=A       53=A       54=A   
    55=A       56=A       57=A       58=A       59=A       60=A       61=A   
    62=A       63=A       64=A       65=A       66=A       67=A       68=A   
    69=A       70=A       71=A       72=A       73=A       74=A       75=A   
    76=A       77=A       78=A       79=A       80=A       81=A       82=A   
    83=A       84=A       85=A       86=A       87=A       88=A       89=A   
    90=A       91=A       92=A       93=A       94=A       95=A   
 ...... END OF INITIAL ORBITAL SELECTION ......
 CPU     0: STEP CPU TIME=     0.07 TOTAL CPU TIME=          0.6 (      0.0 MIN)
 TOTAL WALL CLOCK TIME=          1.1 SECONDS, CPU UTILIZATION IS    57.01%

 Running initial guess for monomer      24


          -------------
          GUESS OPTIONS
          -------------
          GUESS =HUCKEL            NORB  =       0          NORDER=       0
          MIX   =       F          PRTMO =       F          PUNMO =       F
          TOLZ  = 1.0E-08          TOLE  = 1.0E-05
          SYMDEN=       F          PURIFY=       F

 INITIAL GUESS ORBITALS GENERATED BY HUCKEL   ROUTINE.
 HUCKEL GUESS REQUIRES    520404 WORDS.

 SYMMETRIES FOR INITIAL GUESS ORBITALS FOLLOW.   BOTH SET(S).
    89 ORBITALS ARE OCCUPIED (   27 CORE ORBITALS).
    28=A       29=A       30=A       31=A       32=A       33=A       34=A   
    35=A       36=A       37=A       38=A       39=A       40=A       41=A   
    42=A       43=A       44=A       45=A       46=A       47=A       48=A   
    49=A       50=A       51=A       52=A       53=A       54=A       55=A   
    56=A       57=A       58=A       59=A       60=A       61=A       62=A   
    63=A       64=A       65=A       66=A       67=A       68=A       69=A   
    70=A       71=A       72=A       73=A       74=A       75=A       76=A   
    77=A       78=A       79=A       80=A       81=A       82=A       83=A   
    84=A       85=A       86=A       87=A       88=A       89=A       90=A   
    91=A       92=A       93=A       94=A       95=A       96=A       97=A   
    98=A       99=A   
 ...... END OF INITIAL ORBITAL SELECTION ......
 CPU     0: STEP CPU TIME=     0.08 TOTAL CPU TIME=          0.7 (      0.0 MIN)
 TOTAL WALL CLOCK TIME=          1.2 SECONDS, CPU UTILIZATION IS    57.50%

 Running initial guess for monomer      23


          -------------
          GUESS OPTIONS
          -------------
          GUESS =HUCKEL            NORB  =       0          NORDER=       0
          MIX   =       F          PRTMO =       F          PUNMO =       F
          TOLZ  = 1.0E-08          TOLE  = 1.0E-05
          SYMDEN=       F          PURIFY=       F

 INITIAL GUESS ORBITALS GENERATED BY HUCKEL   ROUTINE.
 HUCKEL GUESS REQUIRES    405894 WORDS.

 SYMMETRIES FOR INITIAL GUESS ORBITALS FOLLOW.   BOTH SET(S).
    79 ORBITALS ARE OCCUPIED (   24 CORE ORBITALS).
    25=A       26=A       27=A       28=A       29=A       30=A       31=A   
    32=A       33=A       34=A       35=A       36=A       37=A       38=A   
    39=A       40=A       41=A       42=A       43=A       44=A       45=A   
    46=A       47=A       48=A       49=A       50=A       51=A       52=A   
    53=A       54=A       55=A       56=A       57=A       58=A       59=A   
    60=A       61=A       62=A       63=A       64=A       65=A       66=A   
    67=A       68=A       69=A       70=A       71=A       72=A       73=A   
    74=A       75=A       76=A       77=A       78=A       79=A       80=A   
    81=A       82=A       83=A       84=A       85=A       86=A       87=A   
    88=A       89=A   
 ...... END OF INITIAL ORBITAL SELECTION ......
 CPU     0: STEP CPU TIME=     0.06 TOTAL CPU TIME=          0.8 (      0.0 MIN)
 TOTAL WALL CLOCK TIME=          1.3 SECONDS, CPU UTILIZATION IS    56.82%

 Running initial guess for monomer      22


          -------------
          GUESS OPTIONS
          -------------
          GUESS =HUCKEL            NORB  =       0          NORDER=       0
          MIX   =       F          PRTMO =       F          PUNMO =       F
          TOLZ  = 1.0E-08          TOLE  = 1.0E-05
          SYMDEN=       F          PURIFY=       F

 INITIAL GUESS ORBITALS GENERATED BY HUCKEL   ROUTINE.
 HUCKEL GUESS REQUIRES    483461 WORDS.

 SYMMETRIES FOR INITIAL GUESS ORBITALS FOLLOW.   BOTH SET(S).
    85 ORBITALS ARE OCCUPIED (   26 CORE ORBITALS).
    27=A       28=A       29=A       30=A       31=A       32=A       33=A   
    34=A       35=A       36=A       37=A       38=A       39=A       40=A   
    41=A       42=A       43=A       44=A       45=A       46=A       47=A   
    48=A       49=A       50=A       51=A       52=A       53=A       54=A   
    55=A       56=A       57=A       58=A       59=A       60=A       61=A   
    62=A       63=A       64=A       65=A       66=A       67=A       68=A   
    69=A       70=A       71=A       72=A       73=A       74=A       75=A   
    76=A       77=A       78=A       79=A       80=A       81=A       82=A   
    83=A       84=A       85=A       86=A       87=A       88=A       89=A   
    90=A       91=A       92=A       93=A       94=A       95=A   
 ...... END OF INITIAL ORBITAL SELECTION ......
 CPU     0: STEP CPU TIME=     0.07 TOTAL CPU TIME=          0.8 (      0.0 MIN)
 TOTAL WALL CLOCK TIME=          1.4 SECONDS, CPU UTILIZATION IS    57.34%

 Running initial guess for monomer      21


          -------------
          GUESS OPTIONS
          -------------
          GUESS =HUCKEL            NORB  =       0          NORDER=       0
          MIX   =       F          PRTMO =       F          PUNMO =       F
          TOLZ  = 1.0E-08          TOLE  = 1.0E-05
          SYMDEN=       F          PURIFY=       F

 INITIAL GUESS ORBITALS GENERATED BY HUCKEL   ROUTINE.
 HUCKEL GUESS REQUIRES    520404 WORDS.

 SYMMETRIES FOR INITIAL GUESS ORBITALS FOLLOW.   BOTH SET(S).
    89 ORBITALS ARE OCCUPIED (   27 CORE ORBITALS).
    28=A       29=A       30=A       31=A       32=A       33=A       34=A   
    35=A       36=A       37=A       38=A       39=A       40=A       41=A   
    42=A       43=A       44=A       45=A       46=A       47=A       48=A   
    49=A       50=A       51=A       52=A       53=A       54=A       55=A   
    56=A       57=A       58=A       59=A       60=A       61=A       62=A   
    63=A       64=A       65=A       66=A       67=A       68=A       69=A   
    70=A       71=A       72=A       73=A       74=A       75=A       76=A   
    77=A       78=A       79=A       80=A       81=A       82=A       83=A   
    84=A       85=A       86=A       87=A       88=A       89=A       90=A   
    91=A       92=A       93=A       94=A       95=A       96=A       97=A   
    98=A       99=A   
 ...... END OF INITIAL ORBITAL SELECTION ......
 CPU     0: STEP CPU TIME=     0.07 TOTAL CPU TIME=          0.9 (      0.0 MIN)
 TOTAL WALL CLOCK TIME=          1.6 SECONDS, CPU UTILIZATION IS    57.05%

 Running initial guess for monomer      20


          -------------
          GUESS OPTIONS
          -------------
          GUESS =HUCKEL            NORB  =       0          NORDER=       0
          MIX   =       F          PRTMO =       F          PUNMO =       F
          TOLZ  = 1.0E-08          TOLE  = 1.0E-05
          SYMDEN=       F          PURIFY=       F

 INITIAL GUESS ORBITALS GENERATED BY HUCKEL   ROUTINE.
 HUCKEL GUESS REQUIRES    520404 WORDS.

 SYMMETRIES FOR INITIAL GUESS ORBITALS FOLLOW.   BOTH SET(S).
    89 ORBITALS ARE OCCUPIED (   27 CORE ORBITALS).
    28=A       29=A       30=A       31=A       32=A       33=A       34=A   
    35=A       36=A       37=A       38=A       39=A       40=A       41=A   
    42=A       43=A       44=A       45=A       46=A       47=A       48=A   
    49=A       50=A       51=A       52=A       53=A       54=A       55=A   
    56=A       57=A       58=A       59=A       60=A       61=A       62=A   
    63=A       64=A       65=A       66=A       67=A       68=A       69=A   
    70=A       71=A       72=A       73=A       74=A       75=A       76=A   
    77=A       78=A       79=A       80=A       81=A       82=A       83=A   
    84=A       85=A       86=A       87=A       88=A       89=A       90=A   
    91=A       92=A       93=A       94=A       95=A       96=A       97=A   
    98=A       99=A   
 ...... END OF INITIAL ORBITAL SELECTION ......
 CPU     0: STEP CPU TIME=     0.08 TOTAL CPU TIME=          1.0 (      0.0 MIN)
 TOTAL WALL CLOCK TIME=          1.7 SECONDS, CPU UTILIZATION IS    57.06%

 Running initial guess for monomer      19


          -------------
          GUESS OPTIONS
          -------------
          GUESS =HUCKEL            NORB  =       0          NORDER=       0
          MIX   =       F          PRTMO =       F          PUNMO =       F
          TOLZ  = 1.0E-08          TOLE  = 1.0E-05
          SYMDEN=       F          PURIFY=       F

 INITIAL GUESS ORBITALS GENERATED BY HUCKEL   ROUTINE.
 HUCKEL GUESS REQUIRES    483461 WORDS.

 SYMMETRIES FOR INITIAL GUESS ORBITALS FOLLOW.   BOTH SET(S).
    85 ORBITALS ARE OCCUPIED (   26 CORE ORBITALS).
    27=A       28=A       29=A       30=A       31=A       32=A       33=A   
    34=A       35=A       36=A       37=A       38=A       39=A       40=A   
    41=A       42=A       43=A       44=A       45=A       46=A       47=A   
    48=A       49=A       50=A       51=A       52=A       53=A       54=A   
    55=A       56=A       57=A       58=A       59=A       60=A       61=A   
    62=A       63=A       64=A       65=A       66=A       67=A       68=A   
    69=A       70=A       71=A       72=A       73=A       74=A       75=A   
    76=A       77=A       78=A       79=A       80=A       81=A       82=A   
    83=A       84=A       85=A       86=A       87=A       88=A       89=A   
    90=A       91=A       92=A       93=A       94=A       95=A   
 ...... END OF INITIAL ORBITAL SELECTION ......
 CPU     0: STEP CPU TIME=     0.07 TOTAL CPU TIME=          1.0 (      0.0 MIN)
 TOTAL WALL CLOCK TIME=          1.8 SECONDS, CPU UTILIZATION IS    57.14%

 Running initial guess for monomer      18


          -------------
          GUESS OPTIONS
          -------------
          GUESS =HUCKEL            NORB  =       0          NORDER=       0
          MIX   =       F          PRTMO =       F          PUNMO =       F
          TOLZ  = 1.0E-08          TOLE  = 1.0E-05
          SYMDEN=       F          PURIFY=       F

 INITIAL GUESS ORBITALS GENERATED BY HUCKEL   ROUTINE.
 HUCKEL GUESS REQUIRES    483461 WORDS.

 SYMMETRIES FOR INITIAL GUESS ORBITALS FOLLOW.   BOTH SET(S).
    85 ORBITALS ARE OCCUPIED (   26 CORE ORBITALS).
    27=A       28=A       29=A       30=A       31=A       32=A       33=A   
    34=A       35=A       36=A       37=A       38=A       39=A       40=A   
    41=A       42=A       43=A       44=A       45=A       46=A       47=A   
    48=A       49=A       50=A       51=A       52=A       53=A       54=A   
    55=A       56=A       57=A       58=A       59=A       60=A       61=A   
    62=A       63=A       64=A       65=A       66=A       67=A       68=A   
    69=A       70=A       71=A       72=A       73=A       74=A       75=A   
    76=A       77=A       78=A       79=A       80=A       81=A       82=A   
    83=A       84=A       85=A       86=A       87=A       88=A       89=A   
    90=A       91=A       92=A       93=A       94=A       95=A   
 ...... END OF INITIAL ORBITAL SELECTION ......
 CPU     0: STEP CPU TIME=     0.08 TOTAL CPU TIME=          1.1 (      0.0 MIN)
 TOTAL WALL CLOCK TIME=          1.9 SECONDS, CPU UTILIZATION IS    57.73%

 Running initial guess for monomer      17


          -------------
          GUESS OPTIONS
          -------------
          GUESS =HUCKEL            NORB  =       0          NORDER=       0
          MIX   =       F          PRTMO =       F          PUNMO =       F
          TOLZ  = 1.0E-08          TOLE  = 1.0E-05
          SYMDEN=       F          PURIFY=       F

 INITIAL GUESS ORBITALS GENERATED BY HUCKEL   ROUTINE.
 HUCKEL GUESS REQUIRES    405894 WORDS.

 SYMMETRIES FOR INITIAL GUESS ORBITALS FOLLOW.   BOTH SET(S).
    79 ORBITALS ARE OCCUPIED (   24 CORE ORBITALS).
    25=A       26=A       27=A       28=A       29=A       30=A       31=A   
    32=A       33=A       34=A       35=A       36=A       37=A       38=A   
    39=A       40=A       41=A       42=A       43=A       44=A       45=A   
    46=A       47=A       48=A       49=A       50=A       51=A       52=A   
    53=A       54=A       55=A       56=A       57=A       58=A       59=A   
    60=A       61=A       62=A       63=A       64=A       65=A       66=A   
    67=A       68=A       69=A       70=A       71=A       72=A       73=A   
    74=A       75=A       76=A       77=A       78=A       79=A       80=A   
    81=A       82=A       83=A       84=A       85=A       86=A       87=A   
    88=A       89=A   
 ...... END OF INITIAL ORBITAL SELECTION ......
 CPU     0: STEP CPU TIME=     0.05 TOTAL CPU TIME=          1.2 (      0.0 MIN)
 TOTAL WALL CLOCK TIME=          2.1 SECONDS, CPU UTILIZATION IS    57.07%

 Running initial guess for monomer      16


          -------------
          GUESS OPTIONS
          -------------
          GUESS =HUCKEL            NORB  =       0          NORDER=       0
          MIX   =       F          PRTMO =       F          PUNMO =       F
          TOLZ  = 1.0E-08          TOLE  = 1.0E-05
          SYMDEN=       F          PURIFY=       F

 INITIAL GUESS ORBITALS GENERATED BY HUCKEL   ROUTINE.
 HUCKEL GUESS REQUIRES    483461 WORDS.

 SYMMETRIES FOR INITIAL GUESS ORBITALS FOLLOW.   BOTH SET(S).
    85 ORBITALS ARE OCCUPIED (   26 CORE ORBITALS).
    27=A       28=A       29=A       30=A       31=A       32=A       33=A   
    34=A       35=A       36=A       37=A       38=A       39=A       40=A   
    41=A       42=A       43=A       44=A       45=A       46=A       47=A   
    48=A       49=A       50=A       51=A       52=A       53=A       54=A   
    55=A       56=A       57=A       58=A       59=A       60=A       61=A   
    62=A       63=A       64=A       65=A       66=A       67=A       68=A   
    69=A       70=A       71=A       72=A       73=A       74=A       75=A   
    76=A       77=A       78=A       79=A       80=A       81=A       82=A   
    83=A       84=A       85=A       86=A       87=A       88=A       89=A   
    90=A       91=A       92=A       93=A       94=A       95=A   
 ...... END OF INITIAL ORBITAL SELECTION ......
 CPU     0: STEP CPU TIME=     0.08 TOTAL CPU TIME=          1.2 (      0.0 MIN)
 TOTAL WALL CLOCK TIME=          2.2 SECONDS, CPU UTILIZATION IS    57.87%

 Running initial guess for monomer      15


          -------------
          GUESS OPTIONS
          -------------
          GUESS =HUCKEL            NORB  =       0          NORDER=       0
          MIX   =       F          PRTMO =       F          PUNMO =       F
          TOLZ  = 1.0E-08          TOLE  = 1.0E-05
          SYMDEN=       F          PURIFY=       F

 INITIAL GUESS ORBITALS GENERATED BY HUCKEL   ROUTINE.
 HUCKEL GUESS REQUIRES    413697 WORDS.

 SYMMETRIES FOR INITIAL GUESS ORBITALS FOLLOW.   BOTH SET(S).
    79 ORBITALS ARE OCCUPIED (   24 CORE ORBITALS).
    25=A       26=A       27=A       28=A       29=A       30=A       31=A   
    32=A       33=A       34=A       35=A       36=A       37=A       38=A   
    39=A       40=A       41=A       42=A       43=A       44=A       45=A   
    46=A       47=A       48=A       49=A       50=A       51=A       52=A   
    53=A       54=A       55=A       56=A       57=A       58=A       59=A   
    60=A       61=A       62=A       63=A       64=A       65=A       66=A   
    67=A       68=A       69=A       70=A       71=A       72=A       73=A   
    74=A       75=A       76=A       77=A       78=A       79=A       80=A   
    81=A       82=A       83=A       84=A       85=A       86=A       87=A   
    88=A       89=A   
 ...... END OF INITIAL ORBITAL SELECTION ......
 CPU     0: STEP CPU TIME=     0.05 TOTAL CPU TIME=          1.3 (      0.0 MIN)
 TOTAL WALL CLOCK TIME=          2.3 SECONDS, CPU UTILIZATION IS    57.27%

 Running initial guess for monomer      14


          -------------
          GUESS OPTIONS
          -------------
          GUESS =HUCKEL            NORB  =       0          NORDER=       0
          MIX   =       F          PRTMO =       F          PUNMO =       F
          TOLZ  = 1.0E-08          TOLE  = 1.0E-05
          SYMDEN=       F          PURIFY=       F

 INITIAL GUESS ORBITALS GENERATED BY HUCKEL   ROUTINE.
 HUCKEL GUESS REQUIRES    520404 WORDS.

 SYMMETRIES FOR INITIAL GUESS ORBITALS FOLLOW.   BOTH SET(S).
    89 ORBITALS ARE OCCUPIED (   27 CORE ORBITALS).
    28=A       29=A       30=A       31=A       32=A       33=A       34=A   
    35=A       36=A       37=A       38=A       39=A       40=A       41=A   
    42=A       43=A       44=A       45=A       46=A       47=A       48=A   
    49=A       50=A       51=A       52=A       53=A       54=A       55=A   
    56=A       57=A       58=A       59=A       60=A       61=A       62=A   
    63=A       64=A       65=A       66=A       67=A       68=A       69=A   
    70=A       71=A       72=A       73=A       74=A       75=A       76=A   
    77=A       78=A       79=A       80=A       81=A       82=A       83=A   
    84=A       85=A       86=A       87=A       88=A       89=A       90=A   
    91=A       92=A       93=A       94=A       95=A       96=A       97=A   
    98=A       99=A   
 ...... END OF INITIAL ORBITAL SELECTION ......
 CPU     0: STEP CPU TIME=     0.08 TOTAL CPU TIME=          1.4 (      0.0 MIN)
 TOTAL WALL CLOCK TIME=          2.4 SECONDS, CPU UTILIZATION IS    57.50%

 Running initial guess for monomer      13


          -------------
          GUESS OPTIONS
          -------------
          GUESS =HUCKEL            NORB  =       0          NORDER=       0
          MIX   =       F          PRTMO =       F          PUNMO =       F
          TOLZ  = 1.0E-08          TOLE  = 1.0E-05
          SYMDEN=       F          PURIFY=       F

 INITIAL GUESS ORBITALS GENERATED BY HUCKEL   ROUTINE.
 HUCKEL GUESS REQUIRES    405894 WORDS.

 SYMMETRIES FOR INITIAL GUESS ORBITALS FOLLOW.   BOTH SET(S).
    79 ORBITALS ARE OCCUPIED (   24 CORE ORBITALS).
    25=A       26=A       27=A       28=A       29=A       30=A       31=A   
    32=A       33=A       34=A       35=A       36=A       37=A       38=A   
    39=A       40=A       41=A       42=A       43=A       44=A       45=A   
    46=A       47=A       48=A       49=A       50=A       51=A       52=A   
    53=A       54=A       55=A       56=A       57=A       58=A       59=A   
    60=A       61=A       62=A       63=A       64=A       65=A       66=A   
    67=A       68=A       69=A       70=A       71=A       72=A       73=A   
    74=A       75=A       76=A       77=A       78=A       79=A       80=A   
    81=A       82=A       83=A       84=A       85=A       86=A       87=A   
    88=A       89=A   
 ...... END OF INITIAL ORBITAL SELECTION ......
 CPU     0: STEP CPU TIME=     0.06 TOTAL CPU TIME=          1.4 (      0.0 MIN)
 TOTAL WALL CLOCK TIME=          2.5 SECONDS, CPU UTILIZATION IS    57.37%

 Running initial guess for monomer      12


          -------------
          GUESS OPTIONS
          -------------
          GUESS =HUCKEL            NORB  =       0          NORDER=       0
          MIX   =       F          PRTMO =       F          PUNMO =       F
          TOLZ  = 1.0E-08          TOLE  = 1.0E-05
          SYMDEN=       F          PURIFY=       F

 INITIAL GUESS ORBITALS GENERATED BY HUCKEL   ROUTINE.
 HUCKEL GUESS REQUIRES    413697 WORDS.

 SYMMETRIES FOR INITIAL GUESS ORBITALS FOLLOW.   BOTH SET(S).
    79 ORBITALS ARE OCCUPIED (   24 CORE ORBITALS).
    25=A       26=A       27=A       28=A       29=A       30=A       31=A   
    32=A       33=A       34=A       35=A       36=A       37=A       38=A   
    39=A       40=A       41=A       42=A       43=A       44=A       45=A   
    46=A       47=A       48=A       49=A       50=A       51=A       52=A   
    53=A       54=A       55=A       56=A       57=A       58=A       59=A   
    60=A       61=A       62=A       63=A       64=A       65=A       66=A   
    67=A       68=A       69=A       70=A       71=A       72=A       73=A   
    74=A       75=A       76=A       77=A       78=A       79=A       80=A   
    81=A       82=A       83=A       84=A       85=A       86=A       87=A   
    88=A       89=A   
 ...... END OF INITIAL ORBITAL SELECTION ......
 CPU     0: STEP CPU TIME=     0.06 TOTAL CPU TIME=          1.5 (      0.0 MIN)
 TOTAL WALL CLOCK TIME=          2.6 SECONDS, CPU UTILIZATION IS    57.47%

 Running initial guess for monomer      11


          -------------
          GUESS OPTIONS
          -------------
          GUESS =HUCKEL            NORB  =       0          NORDER=       0
          MIX   =       F          PRTMO =       F          PUNMO =       F
          TOLZ  = 1.0E-08          TOLE  = 1.0E-05
          SYMDEN=       F          PURIFY=       F

 INITIAL GUESS ORBITALS GENERATED BY HUCKEL   ROUTINE.
 HUCKEL GUESS REQUIRES    413697 WORDS.

 SYMMETRIES FOR INITIAL GUESS ORBITALS FOLLOW.   BOTH SET(S).
    79 ORBITALS ARE OCCUPIED (   24 CORE ORBITALS).
    25=A       26=A       27=A       28=A       29=A       30=A       31=A   
    32=A       33=A       34=A       35=A       36=A       37=A       38=A   
    39=A       40=A       41=A       42=A       43=A       44=A       45=A   
    46=A       47=A       48=A       49=A       50=A       51=A       52=A   
    53=A       54=A       55=A       56=A       57=A       58=A       59=A   
    60=A       61=A       62=A       63=A       64=A       65=A       66=A   
    67=A       68=A       69=A       70=A       71=A       72=A       73=A   
    74=A       75=A       76=A       77=A       78=A       79=A       80=A   
    81=A       82=A       83=A       84=A       85=A       86=A       87=A   
    88=A       89=A   
 ...... END OF INITIAL ORBITAL SELECTION ......
 CPU     0: STEP CPU TIME=     0.06 TOTAL CPU TIME=          1.6 (      0.0 MIN)
 TOTAL WALL CLOCK TIME=          2.7 SECONDS, CPU UTILIZATION IS    57.14%

 Running initial guess for monomer      10


          -------------
          GUESS OPTIONS
          -------------
          GUESS =HUCKEL            NORB  =       0          NORDER=       0
          MIX   =       F          PRTMO =       F          PUNMO =       F
          TOLZ  = 1.0E-08          TOLE  = 1.0E-05
          SYMDEN=       F          PURIFY=       F

 INITIAL GUESS ORBITALS GENERATED BY HUCKEL   ROUTINE.
 HUCKEL GUESS REQUIRES    413697 WORDS.

 SYMMETRIES FOR INITIAL GUESS ORBITALS FOLLOW.   BOTH SET(S).
    79 ORBITALS ARE OCCUPIED (   24 CORE ORBITALS).
    25=A       26=A       27=A       28=A       29=A       30=A       31=A   
    32=A       33=A       34=A       35=A       36=A       37=A       38=A   
    39=A       40=A       41=A       42=A       43=A       44=A       45=A   
    46=A       47=A       48=A       49=A       50=A       51=A       52=A   
    53=A       54=A       55=A       56=A       57=A       58=A       59=A   
    60=A       61=A       62=A       63=A       64=A       65=A       66=A   
    67=A       68=A       69=A       70=A       71=A       72=A       73=A   
    74=A       75=A       76=A       77=A       78=A       79=A       80=A   
    81=A       82=A       83=A       84=A       85=A       86=A       87=A   
    88=A       89=A   
 ...... END OF INITIAL ORBITAL SELECTION ......
 CPU     0: STEP CPU TIME=     0.05 TOTAL CPU TIME=          1.6 (      0.0 MIN)
 TOTAL WALL CLOCK TIME=          2.8 SECONDS, CPU UTILIZATION IS    56.89%

 Running initial guess for monomer       9


          -------------
          GUESS OPTIONS
          -------------
          GUESS =HUCKEL            NORB  =       0          NORDER=       0
          MIX   =       F          PRTMO =       F          PUNMO =       F
          TOLZ  = 1.0E-08          TOLE  = 1.0E-05
          SYMDEN=       F          PURIFY=       F

 INITIAL GUESS ORBITALS GENERATED BY HUCKEL   ROUTINE.
 HUCKEL GUESS REQUIRES    413697 WORDS.

 SYMMETRIES FOR INITIAL GUESS ORBITALS FOLLOW.   BOTH SET(S).
    79 ORBITALS ARE OCCUPIED (   24 CORE ORBITALS).
    25=A       26=A       27=A       28=A       29=A       30=A       31=A   
    32=A       33=A       34=A       35=A       36=A       37=A       38=A   
    39=A       40=A       41=A       42=A       43=A       44=A       45=A   
    46=A       47=A       48=A       49=A       50=A       51=A       52=A   
    53=A       54=A       55=A       56=A       57=A       58=A       59=A   
    60=A       61=A       62=A       63=A       64=A       65=A       66=A   
    67=A       68=A       69=A       70=A       71=A       72=A       73=A   
    74=A       75=A       76=A       77=A       78=A       79=A       80=A   
    81=A       82=A       83=A       84=A       85=A       86=A       87=A   
    88=A       89=A   
 ...... END OF INITIAL ORBITAL SELECTION ......
 CPU     0: STEP CPU TIME=     0.06 TOTAL CPU TIME=          1.7 (      0.0 MIN)
 TOTAL WALL CLOCK TIME=          2.9 SECONDS, CPU UTILIZATION IS    57.00%

 Running initial guess for monomer       8


          -------------
          GUESS OPTIONS
          -------------
          GUESS =HUCKEL            NORB  =       0          NORDER=       0
          MIX   =       F          PRTMO =       F          PUNMO =       F
          TOLZ  = 1.0E-08          TOLE  = 1.0E-05
          SYMDEN=       F          PURIFY=       F

 INITIAL GUESS ORBITALS GENERATED BY HUCKEL   ROUTINE.
 HUCKEL GUESS REQUIRES    405894 WORDS.

 SYMMETRIES FOR INITIAL GUESS ORBITALS FOLLOW.   BOTH SET(S).
    79 ORBITALS ARE OCCUPIED (   24 CORE ORBITALS).
    25=A       26=A       27=A       28=A       29=A       30=A       31=A   
    32=A       33=A       34=A       35=A       36=A       37=A       38=A   
    39=A       40=A       41=A       42=A       43=A       44=A       45=A   
    46=A       47=A       48=A       49=A       50=A       51=A       52=A   
    53=A       54=A       55=A       56=A       57=A       58=A       59=A   
    60=A       61=A       62=A       63=A       64=A       65=A       66=A   
    67=A       68=A       69=A       70=A       71=A       72=A       73=A   
    74=A       75=A       76=A       77=A       78=A       79=A       80=A   
    81=A       82=A       83=A       84=A       85=A       86=A       87=A   
    88=A       89=A   
 ...... END OF INITIAL ORBITAL SELECTION ......
 CPU     0: STEP CPU TIME=     0.06 TOTAL CPU TIME=          1.7 (      0.0 MIN)
 TOTAL WALL CLOCK TIME=          3.0 SECONDS, CPU UTILIZATION IS    57.10%

 Running initial guess for monomer       7


          -------------
          GUESS OPTIONS
          -------------
          GUESS =HUCKEL            NORB  =       0          NORDER=       0
          MIX   =       F          PRTMO =       F          PUNMO =       F
          TOLZ  = 1.0E-08          TOLE  = 1.0E-05
          SYMDEN=       F          PURIFY=       F

 INITIAL GUESS ORBITALS GENERATED BY HUCKEL   ROUTINE.
 HUCKEL GUESS REQUIRES    405894 WORDS.

 SYMMETRIES FOR INITIAL GUESS ORBITALS FOLLOW.   BOTH SET(S).
    79 ORBITALS ARE OCCUPIED (   24 CORE ORBITALS).
    25=A       26=A       27=A       28=A       29=A       30=A       31=A   
    32=A       33=A       34=A       35=A       36=A       37=A       38=A   
    39=A       40=A       41=A       42=A       43=A       44=A       45=A   
    46=A       47=A       48=A       49=A       50=A       51=A       52=A   
    53=A       54=A       55=A       56=A       57=A       58=A       59=A   
    60=A       61=A       62=A       63=A       64=A       65=A       66=A   
    67=A       68=A       69=A       70=A       71=A       72=A       73=A   
    74=A       75=A       76=A       77=A       78=A       79=A       80=A   
    81=A       82=A       83=A       84=A       85=A       86=A       87=A   
    88=A       89=A   
 ...... END OF INITIAL ORBITAL SELECTION ......
 CPU     0: STEP CPU TIME=     0.06 TOTAL CPU TIME=          1.8 (      0.0 MIN)
 TOTAL WALL CLOCK TIME=          3.1 SECONDS, CPU UTILIZATION IS    57.19%

 Running initial guess for monomer       6


          -------------
          GUESS OPTIONS
          -------------
          GUESS =HUCKEL            NORB  =       0          NORDER=       0
          MIX   =       F          PRTMO =       F          PUNMO =       F
          TOLZ  = 1.0E-08          TOLE  = 1.0E-05
          SYMDEN=       F          PURIFY=       F

 INITIAL GUESS ORBITALS GENERATED BY HUCKEL   ROUTINE.
 HUCKEL GUESS REQUIRES    520404 WORDS.

 SYMMETRIES FOR INITIAL GUESS ORBITALS FOLLOW.   BOTH SET(S).
    89 ORBITALS ARE OCCUPIED (   27 CORE ORBITALS).
    28=A       29=A       30=A       31=A       32=A       33=A       34=A   
    35=A       36=A       37=A       38=A       39=A       40=A       41=A   
    42=A       43=A       44=A       45=A       46=A       47=A       48=A   
    49=A       50=A       51=A       52=A       53=A       54=A       55=A   
    56=A       57=A       58=A       59=A       60=A       61=A       62=A   
    63=A       64=A       65=A       66=A       67=A       68=A       69=A   
    70=A       71=A       72=A       73=A       74=A       75=A       76=A   
    77=A       78=A       79=A       80=A       81=A       82=A       83=A   
    84=A       85=A       86=A       87=A       88=A       89=A       90=A   
    91=A       92=A       93=A       94=A       95=A       96=A       97=A   
    98=A       99=A   
 ...... END OF INITIAL ORBITAL SELECTION ......
 CPU     0: STEP CPU TIME=     0.08 TOTAL CPU TIME=          1.9 (      0.0 MIN)
 TOTAL WALL CLOCK TIME=          3.3 SECONDS, CPU UTILIZATION IS    57.36%

 Running initial guess for monomer       5


          -------------
          GUESS OPTIONS
          -------------
          GUESS =HUCKEL            NORB  =       0          NORDER=       0
          MIX   =       F          PRTMO =       F          PUNMO =       F
          TOLZ  = 1.0E-08          TOLE  = 1.0E-05
          SYMDEN=       F          PURIFY=       F

 INITIAL GUESS ORBITALS GENERATED BY HUCKEL   ROUTINE.
 HUCKEL GUESS REQUIRES    483461 WORDS.

 SYMMETRIES FOR INITIAL GUESS ORBITALS FOLLOW.   BOTH SET(S).
    85 ORBITALS ARE OCCUPIED (   26 CORE ORBITALS).
    27=A       28=A       29=A       30=A       31=A       32=A       33=A   
    34=A       35=A       36=A       37=A       38=A       39=A       40=A   
    41=A       42=A       43=A       44=A       45=A       46=A       47=A   
    48=A       49=A       50=A       51=A       52=A       53=A       54=A   
    55=A       56=A       57=A       58=A       59=A       60=A       61=A   
    62=A       63=A       64=A       65=A       66=A       67=A       68=A   
    69=A       70=A       71=A       72=A       73=A       74=A       75=A   
    76=A       77=A       78=A       79=A       80=A       81=A       82=A   
    83=A       84=A       85=A       86=A       87=A       88=A       89=A   
    90=A       91=A       92=A       93=A       94=A       95=A   
 ...... END OF INITIAL ORBITAL SELECTION ......
 CPU     0: STEP CPU TIME=     0.06 TOTAL CPU TIME=          1.9 (      0.0 MIN)
 TOTAL WALL CLOCK TIME=          3.4 SECONDS, CPU UTILIZATION IS    57.10%

 Running initial guess for monomer       4


          -------------
          GUESS OPTIONS
          -------------
          GUESS =HUCKEL            NORB  =       0          NORDER=       0
          MIX   =       F          PRTMO =       F          PUNMO =       F
          TOLZ  = 1.0E-08          TOLE  = 1.0E-05
          SYMDEN=       F          PURIFY=       F

 INITIAL GUESS ORBITALS GENERATED BY HUCKEL   ROUTINE.
 HUCKEL GUESS REQUIRES    413697 WORDS.

 SYMMETRIES FOR INITIAL GUESS ORBITALS FOLLOW.   BOTH SET(S).
    79 ORBITALS ARE OCCUPIED (   24 CORE ORBITALS).
    25=A       26=A       27=A       28=A       29=A       30=A       31=A   
    32=A       33=A       34=A       35=A       36=A       37=A       38=A   
    39=A       40=A       41=A       42=A       43=A       44=A       45=A   
    46=A       47=A       48=A       49=A       50=A       51=A       52=A   
    53=A       54=A       55=A       56=A       57=A       58=A       59=A   
    60=A       61=A       62=A       63=A       64=A       65=A       66=A   
    67=A       68=A       69=A       70=A       71=A       72=A       73=A   
    74=A       75=A       76=A       77=A       78=A       79=A       80=A   
    81=A       82=A       83=A       84=A       85=A       86=A       87=A   
    88=A       89=A   
 ...... END OF INITIAL ORBITAL SELECTION ......
 CPU     0: STEP CPU TIME=     0.07 TOTAL CPU TIME=          2.0 (      0.0 MIN)
 TOTAL WALL CLOCK TIME=          3.5 SECONDS, CPU UTILIZATION IS    57.31%

 Running initial guess for monomer       3


          -------------
          GUESS OPTIONS
          -------------
          GUESS =HUCKEL            NORB  =       0          NORDER=       0
          MIX   =       F          PRTMO =       F          PUNMO =       F
          TOLZ  = 1.0E-08          TOLE  = 1.0E-05
          SYMDEN=       F          PURIFY=       F

 INITIAL GUESS ORBITALS GENERATED BY HUCKEL   ROUTINE.
 HUCKEL GUESS REQUIRES    520404 WORDS.

 SYMMETRIES FOR INITIAL GUESS ORBITALS FOLLOW.   BOTH SET(S).
    89 ORBITALS ARE OCCUPIED (   27 CORE ORBITALS).
    28=A       29=A       30=A       31=A       32=A       33=A       34=A   
    35=A       36=A       37=A       38=A       39=A       40=A       41=A   
    42=A       43=A       44=A       45=A       46=A       47=A       48=A   
    49=A       50=A       51=A       52=A       53=A       54=A       55=A   
    56=A       57=A       58=A       59=A       60=A       61=A       62=A   
    63=A       64=A       65=A       66=A       67=A       68=A       69=A   
    70=A       71=A       72=A       73=A       74=A       75=A       76=A   
    77=A       78=A       79=A       80=A       81=A       82=A       83=A   
    84=A       85=A       86=A       87=A       88=A       89=A       90=A   
    91=A       92=A       93=A       94=A       95=A       96=A       97=A   
    98=A       99=A   
 ...... END OF INITIAL ORBITAL SELECTION ......
 CPU     0: STEP CPU TIME=     0.07 TOTAL CPU TIME=          2.1 (      0.0 MIN)
 TOTAL WALL CLOCK TIME=          3.6 SECONDS, CPU UTILIZATION IS    57.34%

 Running initial guess for monomer       2


          -------------
          GUESS OPTIONS
          -------------
          GUESS =HUCKEL            NORB  =       0          NORDER=       0
          MIX   =       F          PRTMO =       F          PUNMO =       F
          TOLZ  = 1.0E-08          TOLE  = 1.0E-05
          SYMDEN=       F          PURIFY=       F

 INITIAL GUESS ORBITALS GENERATED BY HUCKEL   ROUTINE.
 HUCKEL GUESS REQUIRES    483461 WORDS.

 SYMMETRIES FOR INITIAL GUESS ORBITALS FOLLOW.   BOTH SET(S).
    85 ORBITALS ARE OCCUPIED (   26 CORE ORBITALS).
    27=A       28=A       29=A       30=A       31=A       32=A       33=A   
    34=A       35=A       36=A       37=A       38=A       39=A       40=A   
    41=A       42=A       43=A       44=A       45=A       46=A       47=A   
    48=A       49=A       50=A       51=A       52=A       53=A       54=A   
    55=A       56=A       57=A       58=A       59=A       60=A       61=A   
    62=A       63=A       64=A       65=A       66=A       67=A       68=A   
    69=A       70=A       71=A       72=A       73=A       74=A       75=A   
    76=A       77=A       78=A       79=A       80=A       81=A       82=A   
    83=A       84=A       85=A       86=A       87=A       88=A       89=A   
    90=A       91=A       92=A       93=A       94=A       95=A   
 ...... END OF INITIAL ORBITAL SELECTION ......
 CPU     0: STEP CPU TIME=     0.08 TOTAL CPU TIME=          2.2 (      0.0 MIN)
 TOTAL WALL CLOCK TIME=          3.7 SECONDS, CPU UTILIZATION IS    57.49%

 Running initial guess for monomer       1


          -------------
          GUESS OPTIONS
          -------------
          GUESS =HUCKEL            NORB  =       0          NORDER=       0
          MIX   =       F          PRTMO =       F          PUNMO =       F
          TOLZ  = 1.0E-08          TOLE  = 1.0E-05
          SYMDEN=       F          PURIFY=       F

 INITIAL GUESS ORBITALS GENERATED BY HUCKEL   ROUTINE.
 HUCKEL GUESS REQUIRES    567794 WORDS.

 SYMMETRIES FOR INITIAL GUESS ORBITALS FOLLOW.   BOTH SET(S).
    94 ORBITALS ARE OCCUPIED (   28 CORE ORBITALS).
    29=A       30=A       31=A       32=A       33=A       34=A       35=A   
    36=A       37=A       38=A       39=A       40=A       41=A       42=A   
    43=A       44=A       45=A       46=A       47=A       48=A       49=A   
    50=A       51=A       52=A       53=A       54=A       55=A       56=A   
    57=A       58=A       59=A       60=A       61=A       62=A       63=A   
    64=A       65=A       66=A       67=A       68=A       69=A       70=A   
    71=A       72=A       73=A       74=A       75=A       76=A       77=A   
    78=A       79=A       80=A       81=A       82=A       83=A       84=A   
    85=A       86=A       87=A       88=A       89=A       90=A       91=A   
    92=A       93=A       94=A       95=A       96=A       97=A       98=A   
    99=A      100=A      101=A      102=A      103=A      104=A   
 ...... END OF INITIAL ORBITAL SELECTION ......
 CPU     0: STEP CPU TIME=     0.08 TOTAL CPU TIME=          2.2 (      0.0 MIN)
 TOTAL WALL CLOCK TIME=          3.9 SECONDS, CPU UTILIZATION IS    57.47%

 There are         407 separated and      89 SCF (       0 of them correlated) dimers.
 Estimate of max dimer size:  486 AOs,  178 occ. MOs

 Fragment statistics

      I  NAME     Q NAT0 NATB NA  NAO LAY MUL SCFTYP        NOP     MOL    CONV
 ==============================================================================
      1 FRAG1    -1   36   1   94  253 1  1 G RHF             0      -1      -1
      2 FRAG2    -1   33   1   85  233 1  1 G RHF             0      -1      -1
      3 FRAG3    -1   34   1   89  242 1  1 G RHF             0      -1      -1
      4 FRAG4    -1   31   1   79  215 1  1 G RHF             0      -1      -1
      5 FRAG5    -1   33   1   85  233 1  1 G RHF             0      -1      -1
      6 FRAG6    -1   34   1   89  242 1  1 G RHF             0      -1      -1
      7 FRAG7    -1   30   1   79  213 1  1 G RHF             0      -1      -1
      8 FRAG8    -1   30   1   79  213 1  1 G RHF             0      -1      -1
      9 FRAG9    -1   31   1   79  215 1  1 G RHF             0      -1      -1
     10 F        -1   31   1   79  215 1  1 G RHF             0      -1      -1
     11 frg00011 -1   31   1   79  215 1  1 G RHF             0      -1      -1
     12 frg00012 -1   31   1   79  215 1  1 G RHF             0      -1      -1
     13 frg00013 -1   30   1   79  213 1  1 G RHF             0      -1      -1
     14 frg00014 -1   34   1   89  242 1  1 G RHF             0      -1      -1
     15 frg00015 -1   31   1   79  215 1  1 G RHF             0      -1      -1
     16 frg00016 -1   33   1   85  233 1  1 G RHF             0      -1      -1
     17 frg00017 -1   30   1   79  213 1  1 G RHF             0      -1      -1
     18 frg00018 -1   33   1   85  233 1  1 G RHF             0      -1      -1
     19 frg00019 -1   33   1   85  233 1  1 G RHF             0      -1      -1
     20 frg00020 -1   34   1   89  242 1  1 G RHF             0      -1      -1
     21 frg00021 -1   34   1   89  242 1  1 G RHF             0      -1      -1
     22 frg00022 -1   33   1   85  233 1  1 G RHF             0      -1      -1
     23 frg00023 -1   30   1   79  213 1  1 G RHF             0      -1      -1
     24 frg00024 -1   34   1   89  242 1  1 G RHF             0      -1      -1
     25 frg00025 -1   33   1   85  233 1  1 G RHF             0      -1      -1
     26 frg00026 -1   33   1   85  233 1  1 G RHF             0      -1      -1
     27 frg00027 -1   31   1   79  215 1  1 G RHF             0      -1      -1
     28 frg00028 -1   31   1   79  215 1  1 G RHF             0      -1      -1
     29 frg00029 -1   34   1   89  242 1  1 G RHF             0      -1      -1
     30 frg00030 -1   30   1   79  213 1  1 G RHF             0      -1      -1
     31 frg00031 -1   30   1   79  213 1  1 G RHF             0      -1      -1
     32 frg00032  0   28   0   59  168 1  1 G RHF             0      -1      -1

 Close fragment pairs, distance relative to vdW radii

     21    11   0.48501 very close!
 CPU     0: STEP CPU TIME=     0.00 TOTAL CPU TIME=          2.2 (      0.0 MIN)
 TOTAL WALL CLOCK TIME=          3.9 SECONDS, CPU UTILIZATION IS    57.33%
 dmexch needs              4921958  words of memory.
 CPU     0: STEP CPU TIME=     0.01 TOTAL CPU TIME=          2.2 (      0.0 MIN)
 TOTAL WALL CLOCK TIME=          3.9 SECONDS, CPU UTILIZATION IS    57.44%

 Data exchange of    816588 words took     0.0 s.

 RHF      monomer      1 corr= NONE       , L1=   253, L0=   253 ID=      1

 Int dimensions: LABSIZ=1, NINTIC=  6005000 ININTIC=  3002500
 Max L1 incore=   170 current l1=   253 force dirscf= T

 DIRECT SCF CALCULATION, SCHWRZ=T   FDIFF=T,  DIRTHR=  0.00E+00 NITDIR=10

                                                                                   NONZERO     BLOCKS
 ITER EX DEM     TOTAL ENERGY        E CHANGE  DENSITY CHANGE    DIIS ERROR      INTEGRALS    SKIPPED
   1  0  0   981707.2666314918981707.2666314918   1.120057827   0.000000000      143854889    9810959
   2  1  0    -1455.0413045260*****************   0.305363827   0.000000000      143906609    9830587
   3  2  0    -1455.3477818311    -0.3064773051   0.328429794   0.000000000      142746458    9966078
   4  3  0    -1455.4426359301    -0.0948540990   0.237151329   0.000000000      141889696   10026303
   5  4  0    -1455.5003179745    -0.0576820444   0.194164941   0.000000000      141114070   10069826
   6  5  0    -1455.5306467731    -0.0303287985   0.164925355   0.000000000      140336830   10108478
   7  6  0    -1455.5518338729    -0.0211870998   0.130460812   0.000000000      139591798   10139692
   8  7  0    -1455.5640711191    -0.0122372462   0.110055264   0.000000000      138778645   10171970
   9  8  0    -1455.5727227388    -0.0086516197   0.087097475   0.000000000      137997491   10199804
  10  9  0    -1455.5780135365    -0.0052907977   0.072556031   0.000000000      137150645   10228865
  11 10  0    -1455.5817326899    -0.0037191534   0.057660799   0.000000000      136308918   10255703
  12 11  0    -1455.5840972194    -0.0023645295   0.047558937   0.000000000      135405352   10282887
  13 12  0    -1455.5857467104    -0.0016494910   0.037932875   0.000000000      134512367   10308564
  14 13  0    -1455.5868237895    -0.0010770790   0.031063371   0.000000000      133602393   10334092
  15 14  0    -1455.5875711168    -0.0007473273   0.024838490   0.000000000      132693907   10359023
  16 15  0    -1455.5880682852    -0.0004971684   0.020674159   0.000000000      131741989   10383997
  17 16  0    -1455.5884123418    -0.0003440566   0.017302218   0.000000000      130773958   10408442
  18 17  0    -1455.5886443164    -0.0002319745   0.014588284   0.000000000      129779654   10432971
  19 18  0    -1455.5888047975    -0.0001604811   0.012246480   0.000000000      128796928   10456917
  20 19  0    -1455.5889140918    -0.0001092943   0.010335004   0.000000000      127783433   10480855
  21 20  0    -1455.5889898001    -0.0000757083   0.008696025   0.000000000      126756391   10504737
  22 21  0    -1455.5890417697    -0.0000519696   0.007344535   0.000000000      125712852   10528696
  23 22  0    -1455.5890778556    -0.0000360859   0.006190636   0.000000000      124660385   10552356
  24 23  0    -1455.5891027883    -0.0000249327   0.005232106   0.000000000      123620351   10575933
  25 24  0    -1455.5891201532    -0.0000173650   0.004416032   0.000000000      122573631   10599063
  26 25  0    -1455.5891322184    -0.0000120652   0.003734500   0.000000000      121511916   10622226
  27 26  0    -1455.5891406500    -0.0000084316   0.003155329   0.000000000      120457285   10645156
  28 27  0    -1455.5891465368    -0.0000058867   0.002669758   0.000000000      119395196   10668160
  29 28  0    -1455.5891506650    -0.0000041282   0.002257600   0.000000000      118324818   10690875
  30 29  0    -1455.5891535606    -0.0000028956   0.001911063   0.000000000      117260851   10713662
  31 30  0    -1455.5891555979    -0.0000020373   0.001617127   0.000000000      116177281   10736406
  32 31  0    -1455.5891570321    -0.0000014342   0.001369465   0.000000000      115084142   10758879
  33 32  0    -1455.5891580447    -0.0000010126   0.001159479   0.000000000      113994943   10781075
  34 33  0    -1455.5891587598    -0.0000007151   0.000982268   0.000000000      112893703   10803528
  35 34  0    -1455.5891592670    -0.0000005072   0.000832044   0.000000000      111812908   10825892
  36 35  0    -1455.5891596260    -0.0000003590   0.000705112   0.000000000      110733376   10848094
  37 36  0    -1455.5891598809    -0.0000002550   0.000597514   0.000000000      109647230   10870069
  38 37  0    -1455.5891600623    -0.0000001813   0.000506514   0.000000000      108513957   10892510
  39 38  0    -1455.5891601912    -0.0000001290   0.000429371   0.000000000      107417726   10914481
  40 39  0    -1455.5891602835    -0.0000000923   0.000364078   0.000000000      106309449   10936657
  41 40  0    -1455.5891603489    -0.0000000654   0.000308722   0.000000000      105214785   10958672
  42 41  0    -1455.5891603960    -0.0000000471   0.000261842   0.000000000      104114419   10980458
  43 42  0    -1455.5891604295    -0.0000000335   0.000222090   0.000000000      103020380   11002401
  44 43  0    -1455.5891604531    -0.0000000236   0.000188408   0.000000000      101903101   11024396
  45 44  0    -1455.5891604710    -0.0000000179   0.000159843   0.000000000      100805906   11046400
  46 45  0    -1455.5891604828    -0.0000000118   0.000135630   0.000000000       99702424   11068155
  47 46  0    -1455.5891604914    -0.0000000086   0.000115091   0.000000000       98623288   11089606
  48 47  0    -1455.5891604983    -0.0000000069   0.000097676   0.000000000       97492558   11111510
  49 48  0    -1455.5891605028    -0.0000000044   0.000082901   0.000000000       96385776   11133301
  50 49  0    -1455.5891605055    -0.0000000027   0.000070369   0.000000000       95283048   11154869

 SCF IS UNCONVERGED, TOO MANY ITERATIONS
     TIME TO FORM FOCK OPERATORS=      36.6 SECONDS (       0.7 SEC/ITER)
     FOCK TIME ON FIRST ITERATION=       0.9, LAST ITERATION=       0.6
     TIME TO SOLVE SCF EQUATIONS=       1.2 SECONDS (       0.0 SEC/ITER)

 FINAL RHF ENERGY IS        0.0000000000 AFTER  50 ITERATIONS
 ...... END OF RHF CALCULATION ......
 CPU     0: STEP CPU TIME=    41.59 TOTAL CPU TIME=         43.8 (      0.7 MIN)
 TOTAL WALL CLOCK TIME=         46.6 SECONDS, CPU UTILIZATION IS    94.00%

 Iter=  1 iFrag=      1 EFMO=     0.000000000, DD= 1.101161001, DE= 0.000000000


 RHF      monomer     24 corr= NONE       , L1=   242, L0=   242 ID=      2

 Int dimensions: LABSIZ=1, NINTIC=  6005000 ININTIC=  3002500
 Max L1 incore=   170 current l1=   242 force dirscf= T

 DIRECT SCF CALCULATION, SCHWRZ=T   FDIFF=T,  DIRTHR=  0.00E+00 NITDIR=10

                                                                                   NONZERO     BLOCKS
[...]
  50  1  0     -213.6701149234  -844.8602372145  43.677304408   0.781894129

 SCF IS UNCONVERGED, TOO MANY ITERATIONS
     TIME TO FORM FOCK OPERATORS=       3.9 SECONDS (       0.1 SEC/ITER)
     TIME TO SOLVE SCF EQUATIONS=       0.6 SECONDS (       0.0 SEC/ITER)

 FINAL RHF ENERGY IS        0.0000000000 AFTER  50 ITERATIONS
 ...... END OF RHF CALCULATION ......
 CPU     0: STEP CPU TIME=     7.55 TOTAL CPU TIME=      16704.0 (    278.4 MIN)
 TOTAL WALL CLOCK TIME=      17076.5 SECONDS, CPU UTILIZATION IS    97.82%

 Iter= 12 iFrag=     32 EFMO=     0.000000000, DD=12.546651398, DE= 0.000000000

 CPU     0: STEP CPU TIME=     0.00 TOTAL CPU TIME=      16704.0 (    278.4 MIN)
 TOTAL WALL CLOCK TIME=      17076.5 SECONDS, CPU UTILIZATION IS    97.82%

  Monomer SCF synchronisation on iteration  12.1 took     0.0 s.
 CPU     0: STEP CPU TIME=     0.00 TOTAL CPU TIME=      16704.0 (    278.4 MIN)
 TOTAL WALL CLOCK TIME=      17076.5 SECONDS, CPU UTILIZATION IS    97.82%
 dmexch needs              4921958  words of memory.
 CPU     0: STEP CPU TIME=     0.01 TOTAL CPU TIME=      16704.0 (    278.4 MIN)
 TOTAL WALL CLOCK TIME=      17076.5 SECONDS, CPU UTILIZATION IS    97.82%

 Data exchange of    816588 words took     0.0 s.


 ------------------------------------------------------------------------------
 FMO iter 12.1,      0 fragment(s) converged, maxD41.814696693 maxE 0.000000000
 ------------------------------------------------------------------------------

 RHF      monomer      1 corr= NONE       , L1=   253, L0=   253 ID=      1

 Int dimensions: LABSIZ=1, NINTIC=  6005000 ININTIC=  3002500
 Max L1 incore=   170 current l1=   253 force dirscf= T

 DIRECT SCF CALCULATION, SCHWRZ=T   FDIFF=T,  DIRTHR=  0.00E+00 NITDIR=10

                                                                                   NONZERO     BLOCKS
 ITER EX DEM     TOTAL ENERGY        E CHANGE  DENSITY CHANGE    DIIS ERROR      INTEGRALS    SKIPPED
   1  0  0      105.1319355224   105.1319355224 151.300524367   0.000000000      142958626    9688205
   2  1  0     -994.5057849701 -1099.6377204926 163.460329149   0.000000000      144448589    9454165
   3  2  0       93.3741244062  1087.8799093763 163.460364606   0.000000000      144448634    9454238
   4  3  0     -993.3596739547 -1086.7337983608 163.668092302   0.000000000      144448611    9454113
   5  4  0       93.1654586512  1086.5251326059 163.668102271   0.000000000      144448575    9454190
   6  5  0     -993.1664070850 -1086.3318657362 163.699665142   0.000000000      144448600    9454147
   7  6  0       93.1309532532  1086.2973603382 163.699666417   0.000000000      144448587    9454178
   8  7  0     -993.1343880384 -1086.2653412916 163.704788147   0.000000000      144448586    9454174
   9  8  0       93.1253952979  1086.2597833363 163.704788339   0.000000000      144448584    9454178
  10  9  0     -993.1291611391 -1086.2545564370 163.705622801   0.000000000      144448584    9454176
  11 10  0       93.1244959456  1086.2536570847 163.705622831   0.000000000      144448584    9454177
  12 11  0     -993.1283108960 -1086.2528068416 163.705758582   0.000000000      144448584    9454177
  13 12  0       93.1243499890  1086.2526608849 163.705758587   0.000000000      144448584    9454177
  14 13  0     -993.1281726689 -1086.2525226578 163.705780652   0.000000000      144448584    9454177
  15 14  0       93.1243262779  1086.2524989468 163.705780652   0.000000000      144448584    9454177
  16 15  0     -993.1281502292 -1086.2524765071 163.705784242   0.000000000      144448584    9454177
  17 16  0       93.1243224256  1086.2524726549 163.705784242   0.000000000      144448584    9454177
  18 17  0     -993.1281465959 -1086.2524690215 163.705784824   0.000000000      144448584    9454177
  19 18  0       93.1243218004  1086.2524683963 163.705784824   0.000000000      144448584    9454177
  20 19  0     -993.1281459867 -1086.2524677871 163.705784918   0.000000000      144448584    9454177
  21 20  0       93.1243217000  1086.2524676867 163.705784918   0.000000000      144448584    9454177
  22 21  0     -993.1281458735 -1086.2524675735 163.705784937   0.000000000      144448584    9454177
  23 22  0       93.1243216827  1086.2524675563 163.705784937   0.000000000      144448584    9454177
  24 23  0     -993.1281458778 -1086.2524675606 163.705784942   0.000000000      144448584    9454177
  25 24  0       93.1243216798  1086.2524675577 163.705784942   0.000000000      144448584    9454177
  26 25  0     -993.1281458620 -1086.2524675418 163.705784946   0.000000000      144448584    9454177
  27 26  0       93.1243216789  1086.2524675409 163.705784946   0.000000000      144448584    9454177
  28 27  0     -993.1281458609 -1086.2524675397 163.705784947   0.000000000      144448584    9454177
  29 28  0       93.1243216792  1086.2524675401 163.705784947   0.000000000      144448584    9454177
  30 29  0     -993.1281458384 -1086.2524675176 163.705784947   0.000000000      144448584    9454177
  31 30  0       93.1243216792  1086.2524675176 163.705784947   0.000000000      144448584    9454177
  32 31  0     -993.1281458554 -1086.2524675346 163.705784944   0.000000000      144448584    9454177
  33 32  0       93.1243216794  1086.2524675348 163.705784944   0.000000000      144448584    9454177
  34 33  0     -993.1281458626 -1086.2524675420 163.705784943   0.000000000      144448584    9454177
  35 34  0       93.1243216793  1086.2524675419 163.705784943   0.000000000      144448584    9454177
  36 35  0     -993.1281458610 -1086.2524675403 163.705784942   0.000000000      144448584    9454177
  37 36  0       93.1243216795  1086.2524675405 163.705784942   0.000000000      144448584    9454177
  38 37  0     -993.1281458667 -1086.2524675462 163.705784943   0.000000000      144448584    9454177
  39 38  0       93.1243216787  1086.2524675454 163.705784943   0.000000000      144448584    9454177
  40 39  0     -993.1281458394 -1086.2524675181 163.705784948   0.000000000      144448584    9454177
  41 40  0       93.1243216787  1086.2524675182 163.705784948   0.000000000      144448584    9454177
  42 41  0     -993.1281458434 -1086.2524675221 163.705784946   0.000000000      144448584    9454177
  43 42  0       93.1243216783  1086.2524675217 163.705784946   0.000000000      144448584    9454177
  44 43  0     -993.1281458446 -1086.2524675228 163.705784942   0.000000000      144448584    9454177
  45 44  0       93.1243216791  1086.2524675236 163.705784942   0.000000000      144448584    9454177
  46 45  0     -993.1281458485 -1086.2524675276 163.705784947   0.000000000      144448584    9454177
  47 46  0       93.1243216786  1086.2524675272 163.705784947   0.000000000      144448584    9454177
  48 47  0     -993.1281458518 -1086.2524675304 163.705784946   0.000000000      144448584    9454177
  49 48  0       93.1243216780  1086.2524675297 163.705784946   0.000000000      144448584    9454177
  50 49  0     -993.1281458726 -1086.2524675506 163.705784940   0.000000000      144448584    9454177

 SCF IS UNCONVERGED, TOO MANY ITERATIONS
     TIME TO FORM FOCK OPERATORS=      50.9 SECONDS (       1.0 SEC/ITER)
     FOCK TIME ON FIRST ITERATION=       1.0, LAST ITERATION=       1.0
     TIME TO SOLVE SCF EQUATIONS=       1.3 SECONDS (       0.0 SEC/ITER)

 FINAL RHF ENERGY IS        0.0000000000 AFTER  50 ITERATIONS
 ...... END OF RHF CALCULATION ......
 CPU     0: STEP CPU TIME=    55.99 TOTAL CPU TIME=      16760.0 (    279.3 MIN)
 TOTAL WALL CLOCK TIME=      17133.5 SECONDS, CPU UTILIZATION IS    97.82%

 Iter= 13 iFrag=      1 EFMO=     0.000000000, DD=20.368920414, DE= 0.000000000


 RHF      monomer     24 corr= NONE       , L1=   242, L0=   242 ID=      2

 Int dimensions: LABSIZ=1, NINTIC=  6005000 ININTIC=  3002500
 Max L1 incore=   170 current l1=   242 force dirscf= T

 DIRECT SCF CALCULATION, SCHWRZ=T   FDIFF=T,  DIRTHR=  0.00E+00 NITDIR=10

                                                                                   NONZERO     BLOCKS
 ITER EX DEM     TOTAL ENERGY        E CHANGE  DENSITY CHANGE    DIIS ERROR      INTEGRALS    SKIPPED
   1  0  0     -923.8659371856  -923.8659371856 106.598376821   0.000000000      131286227    7697036
   2  1  0      -71.0439011329   852.8220360527 106.598508886   0.000000000      132473606    7465438
   3  2  0     -924.3899634716  -853.3460623386 106.559645598   0.000000000      132473648    7465369
   4  3  0      -71.0166840848   853.3732793868 106.559647536   0.000000000      132473641    7465371
   5  4  0     -924.3969189622  -853.3802348774 106.559078008   0.000000000      132473641    7465368
   6  5  0      -71.0162340556   853.3806849065 106.559078040   0.000000000      132473641    7465369
   7  6  0     -924.3970301573  -853.3807961017 106.559068474   0.000000000      132473641    7465369
   8  7  0      -71.0162264581   853.3808036992 106.559068474   0.000000000      132473641    7465369
   9  8  0     -924.3970320096  -853.3808055515 106.559068310   0.000000000      132473641    7465369
  10  9  0      -71.0162263304   853.3808056793 106.559068310   0.000000000      132473641    7465369
  11 10  0     -924.3970320850  -853.3808057546 106.559068313   0.000000000      132473641    7465369
  12 11  0      -71.0162263287   853.3808057563 106.559068313   0.000000000      132473641    7465369
  13 12  0     -924.3970320265  -853.3808056978 106.559068311   0.000000000      132473641    7465369
  14 13  0      -71.0162263284   853.3808056981 106.559068311   0.000000000      132473641    7465369
  15 14  0     -924.3970320373  -853.3808057089 106.559068306   0.000000000      132473641    7465369
  16 15  0      -71.0162263274   853.3808057100 106.559068306   0.000000000      132473641    7465369
  17 16  0     -924.3970320765  -853.3808057492 106.559068303   0.000000000      132473641    7465369
  18 17  0      -71.0162263274   853.3808057491 106.559068303   0.000000000      132473641    7465369
  19 18  0     -924.3970319903  -853.3808056629 106.559068302   0.000000000      132473641    7465369
  20 19  0      -71.0162263276   853.3808056628 106.559068302   0.000000000      132473641    7465369
  21 20  0     -924.3970319930  -853.3808056654 106.559068304   0.000000000      132473641    7465369
  22 21  0      -71.0162263277   853.3808056653 106.559068304   0.000000000      132473641    7465369
  23 22  0     -924.3970320277  -853.3808057000 106.559068303   0.000000000      132473641    7465369
  24 23  0      -71.0162263276   853.3808057001 106.559068303   0.000000000      132473641    7465369
  25 24  0     -924.3970320135  -853.3808056859 106.559068305   0.000000000      132473641    7465369
  26 25  0      -71.0162263278   853.3808056857 106.559068305   0.000000000      132473641    7465369
  27 26  0     -924.3970320175  -853.3808056897 106.559068307   0.000000000      132473641    7465369
  28 27  0      -71.0162263280   853.3808056894 106.559068307   0.000000000      132473641    7465369
  29 28  0     -924.3970319936  -853.3808056656 106.559068312   0.000000000      132473641    7465369
  30 29  0      -71.0162263285   853.3808056652 106.559068312   0.000000000      132473641    7465369
  31 30  0     -924.3970320067  -853.3808056783 106.559068309   0.000000000      132473641    7465369
  32 31  0      -71.0162263283   853.3808056784 106.559068309   0.000000000      132473641    7465369
  33 32  0     -924.3970320156  -853.3808056873 106.559068310   0.000000000      132473641    7465369
  34 33  0      -71.0162263279   853.3808056877 106.559068310   0.000000000      132473641    7465369
  35 34  0     -924.3970319961  -853.3808056681 106.559068309   0.000000000      132473641    7465369
  36 35  0      -71.0162263281   853.3808056680 106.559068309   0.000000000      132473641    7465369
  37 36  0     -924.3970319849  -853.3808056568 106.559068311   0.000000000      132473641    7465369
  38 37  0      -71.0162263281   853.3808056567 106.559068311   0.000000000      132473641    7465369
  39 38  0     -924.3970320265  -853.3808056984 106.559068309   0.000000000      132473641    7465369
  40 39  0      -71.0162263278   853.3808056987 106.559068309   0.000000000      132473641    7465369
  41 40  0     -924.3970320104  -853.3808056826 106.559068310   0.000000000      132473641    7465369
  42 41  0      -71.0162263280   853.3808056824 106.559068310   0.000000000      132473641    7465369
  43 42  0     -924.3970319795  -853.3808056515 106.559068310   0.000000000      132473641    7465369
  44 43  0      -71.0162263278   853.3808056517 106.559068310   0.000000000      132473641    7465369
  45 44  0     -924.3970319539  -853.3808056262 106.559068310   0.000000000      132473641    7465369
  46 45  0      -71.0162263275   853.3808056264 106.559068310   0.000000000      132473641    7465369
  47 46  0     -924.3970319583  -853.3808056309 106.559068312   0.000000000      132473641    7465369
  48 47  0      -71.0162263280   853.3808056304 106.559068312   0.000000000      132473641    7465369
  49 48  0     -924.3970320065  -853.3808056785 106.559068314   0.000000000      132473641    7465369
  50 49  0      -71.0162263279   853.3808056787 106.559068314   0.000000000      132473641    7465369

 SCF IS UNCONVERGED, TOO MANY ITERATIONS
     TIME TO FORM FOCK OPERATORS=      46.1 SECONDS (       0.9 SEC/ITER)
     FOCK TIME ON FIRST ITERATION=       0.9, LAST ITERATION=       0.9
     TIME TO SOLVE SCF EQUATIONS=       1.2 SECONDS (       0.0 SEC/ITER)

 FINAL RHF ENERGY IS        0.0000000000 AFTER  50 ITERATIONS
 ...... END OF RHF CALCULATION ......
 CPU     0: STEP CPU TIME=    56.40 TOTAL CPU TIME=      16816.4 (    280.3 MIN)
 TOTAL WALL CLOCK TIME=      17190.9 SECONDS, CPU UTILIZATION IS    97.82%

 Iter= 13 iFrag=     24 EFMO=     0.000000000, DD= 0.599960503, DE= 0.000000000


 RHF      monomer     21 corr= NONE       , L1=   242, L0=   242 ID=      3

 Int dimensions: LABSIZ=1, NINTIC=  6005000 ININTIC=  3002500
 Max L1 incore=   170 current l1=   242 force dirscf= T

 DIRECT SCF CALCULATION, SCHWRZ=T   FDIFF=T,  DIRTHR=  0.00E+00 NITDIR=10

                                                                                   NONZERO     BLOCKS
 ITER EX DEM     TOTAL ENERGY        E CHANGE  DENSITY CHANGE    DIIS ERROR      INTEGRALS    SKIPPED
   1  0  0      622.6287694902   622.6287694902  68.587885665   0.000000000      125275425    7771185
   2  1  0     -521.1168205047 -1143.7455899948  73.000952397   0.000000000      126420626    7567430
   3  2  0      752.3420712384  1273.4588917431  73.000954967   0.000000000      126420843    7563588
   4  3  0     -520.4103480850 -1272.7524193234  72.997428423   0.000000000      126420652    7563697
   5  4  0      752.4725732279  1272.8829213129  72.997428503   0.000000000      126420649    7563702
   6  5  0     -520.4108499454 -1272.8834231733  72.997430908   0.000000000      126420647    7563703
   7  6  0      752.4760600513  1272.8869099967  72.997430911   0.000000000      126420647    7563703
   8  7  0     -520.4108728627 -1272.8869329140  72.997431206   0.000000000      126420647    7563703
   9  8  0      752.4761547541  1272.8870276168  72.997431206   0.000000000      126420647    7563702
  10  9  0     -520.4108735032 -1272.8870282573  72.997431218   0.000000000      126420647    7563702
  11 10  0      752.4761573323  1272.8870308355  72.997431218   0.000000000      126420647    7563702
  12 11  0     -520.4108734599 -1272.8870307922  72.997431216   0.000000000      126420647    7563702
  13 12  0      752.4761573985  1272.8870308584  72.997431216   0.000000000      126420647    7563702
  14 13  0     -520.4108734693 -1272.8870308679  72.997431216   0.000000000      126420647    7563702
  15 14  0      752.4761574016  1272.8870308709  72.997431216   0.000000000      126420647    7563702
  16 15  0     -520.4108734757 -1272.8870308773  72.997431216   0.000000000      126420647    7563702
  17 16  0      752.4761574024  1272.8870308781  72.997431216   0.000000000      126420647    7563702
  18 17  0     -520.4108735041 -1272.8870309065  72.997431217   0.000000000      126420647    7563702
  19 18  0      752.4761574010  1272.8870309051  72.997431217   0.000000000      126420647    7563702
  20 19  0     -520.4108735065 -1272.8870309074  72.997431215   0.000000000      126420647    7563702
  21 20  0      752.4761574006  1272.8870309071  72.997431215   0.000000000      126420647    7563702
  22 21  0     -520.4108735008 -1272.8870309014  72.997431217   0.000000000      126420647    7563702
  23 22  0      752.4761574005  1272.8870309013  72.997431217   0.000000000      126420647    7563702
  24 23  0     -520.4108734535 -1272.8870308540  72.997431219   0.000000000      126420647    7563702
  25 24  0      752.4761574011  1272.8870308546  72.997431219   0.000000000      126420647    7563702
  26 25  0     -520.4108734868 -1272.8870308879  72.997431221   0.000000000      126420647    7563702
  27 26  0      752.4761574007  1272.8870308875  72.997431221   0.000000000      126420647    7563702
  28 27  0     -520.4108734846 -1272.8870308853  72.997431221   0.000000000      126420647    7563702
  29 28  0      752.4761574021  1272.8870308866  72.997431221   0.000000000      126420647    7563702
  30 29  0     -520.4108734682 -1272.8870308702  72.997431221   0.000000000      126420647    7563702
  31 30  0      752.4761574010  1272.8870308692  72.997431221   0.000000000      126420647    7563702
  32 31  0     -520.4108734486 -1272.8870308496  72.997431223   0.000000000      126420647    7563702
  33 32  0      752.4761574024  1272.8870308510  72.997431223   0.000000000      126420647    7563702
  34 33  0     -520.4108734703 -1272.8870308727  72.997431224   0.000000000      126420647    7563702
  35 34  0      752.4761574027  1272.8870308729  72.997431224   0.000000000      126420647    7563702
  36 35  0     -520.4108734755 -1272.8870308782  72.997431222   0.000000000      126420647    7563702
  37 36  0      752.4761574005  1272.8870308760  72.997431222   0.000000000      126420647    7563702
  38 37  0     -520.4108734755 -1272.8870308760  72.997431222   0.000000000      126420647    7563702
  39 38  0      752.4761574008  1272.8870308763  72.997431222   0.000000000      126420647    7563702
  40 39  0     -520.4108734921 -1272.8870308929  72.997431222   0.000000000      126420647    7563702
  41 40  0      752.4761574013  1272.8870308934  72.997431222   0.000000000      126420647    7563702
  42 41  0     -520.4108734613 -1272.8870308626  72.997431221   0.000000000      126420647    7563702
  43 42  0      752.4761574021  1272.8870308634  72.997431221   0.000000000      126420647    7563702
  44 43  0     -520.4108734290 -1272.8870308311  72.997431221   0.000000000      126420647    7563702
  45 44  0      752.4761574024  1272.8870308315  72.997431221   0.000000000      126420647    7563702
  46 45  0     -520.4108734811 -1272.8870308835  72.997431220   0.000000000      126420647    7563702
  47 46  0      752.4761574035  1272.8870308845  72.997431220   0.000000000      126420647    7563702
  48 47  0     -520.4108734607 -1272.8870308642  72.997431220   0.000000000      126420647    7563702
  49 48  0      752.4761574032  1272.8870308639  72.997431220   0.000000000      126420647    7563702
  50 49  0     -520.4108734654 -1272.8870308685  72.997431221   0.000000000      126420647    7563702

 SCF IS UNCONVERGED, TOO MANY ITERATIONS
     TIME TO FORM FOCK OPERATORS=      44.7 SECONDS (       0.9 SEC/ITER)
     FOCK TIME ON FIRST ITERATION=       0.8, LAST ITERATION=       0.9
     TIME TO SOLVE SCF EQUATIONS=       1.1 SECONDS (       0.0 SEC/ITER)

 FINAL RHF ENERGY IS        0.0000000000 AFTER  50 ITERATIONS
 ...... END OF RHF CALCULATION ......
 CPU     0: STEP CPU TIME=    53.60 TOTAL CPU TIME=      16870.0 (    281.2 MIN)
 TOTAL WALL CLOCK TIME=      17245.5 SECONDS, CPU UTILIZATION IS    97.82%
