!*** FMO 5.2 (Gamess) INPUT generated by Facio 21.1.1.32 ***
 $CONTRL RUNTYP=OPTIMIZE NPRINT=-5 ISPHER=-1 MAXIT=50 $END
 $SYSTEM MWORDS=29 $END
 $GDDI NGROUP=1 $END
 $INTGRL NINTIC=-9000000 $END
 $SCF DIRSCF=.FALSE. NPUNCH=0 $END
!*** NumCPU : 2  MemPerNode : 512MB
 $FMOPRP
    NAODIR=210
    NGRFMO(1)=1, 1, 0, 0, 0,   0, 0, 0, 0, 0
    NPRINT=9
 $END
 $FMO
      SCFTYP(1)=RHF
      MODGRD=10
      MODMUL=0
      MAXCAO=5
      MAXBND=4
      NLAYER=1
      NFRAG=42
      ICHARG(1)=-1, -1, -1, -1, -1, -1, -1, -1, -1, -1, -1, -1, -1, -1, -1, -1, -1, -1, -1, -1, -1, -1, -1, -1, -1, -1, -1, -1, -1, -1, -1, -1, -1, -1, -1, -1, -1, -1, -1, -1, -1, 0
      FRGNAM(1)=Frag1, Frag2, Frag3, Frag4, Frag5, Frag6, Frag7, Frag8, Frag9, Frag10, Frag11, Frag12, Frag13, Frag14, Frag15, Frag16, Frag17, Frag18, Frag19, Frag20, Frag21, Frag22, Frag23, Frag24, Frag25, Frag26, Frag27, Frag28, Frag29, Frag30, Frag31, Frag32, Frag33, Frag34, Frag35, Frag36, Frag37, Frag38, Frag39, Frag40, Frag41, Frag42
      indat(1)=0, 2, -3, 0, 36, -37, 0, 70, -71, 0, 104, -105, 0, 134, -135, 0, 167, -168, 0, 201, -202, 0, 234, -235, 0, 268, -269, 0, 298, -299, 0, 331, -332, 0, 361, -362, 0, 394, -395, 0, 427, -428, 0, 457, -458, 0, 487, -488, 0, 520, -521, 0, 554, -555, 0, 584, -585, 0, 615, -616, 0, 645, -646, 0, 675, -676, 0, 706, -707, 0, 740, -741, 0, 774, -775, 0, 807, -808, 0, 838, -839, 0, 868, -869, 0, 898, -899, 0, 929, -930, 0, 960, -961, 0, 990, -991, 0, 1020, -1021, 0, 1053, -1054, 0, 1083, -1084, 0, 1116, -1117, 0, 1147, -1148, 0, 1177, -1178, 0, 1207, -1208, 0, 1240, -1241, 0, 1270, -1271, 0, 1301, -1302, 0, 131
$END

$FMOBND
      -3    4    3-21G    MINI
      -37    38    3-21G    MINI
      -71    72    3-21G    MINI
      -105    106    3-21G    MINI
      -135    136    3-21G    MINI
      -168    169    3-21G    MINI
      -202    203    3-21G    MINI
      -235    236    3-21G    MINI
      -269    270    3-21G    MINI
      -299    300    3-21G    MINI
      -332    333    3-21G    MINI
      -362    363    3-21G    MINI
      -395    396    3-21G    MINI
      -428    429    3-21G    MINI
      -458    459    3-21G    MINI
      -488    489    3-21G    MINI
      -521    522    3-21G    MINI
      -555    556    3-21G    MINI
      -585    586    3-21G    MINI
      -616    617    3-21G    MINI
      -646    647    3-21G    MINI
      -676    677    3-21G    MINI
      -707    708    3-21G    MINI
      -741    742    3-21G    MINI
      -775    776    3-21G    MINI
      -808    809    3-21G    MINI
      -839    840    3-21G    MINI
      -869    870    3-21G    MINI
      -899    900    3-21G    MINI
      -930    931    3-21G    MINI
      -961    962    3-21G    MINI
      -991    992    3-21G    MINI
      -1021    1022    3-21G    MINI
      -1054    1055    3-21G    MINI
      -1084    1085    3-21G    MINI
      -1117    1118    3-21G    MINI
      -1148    1149    3-21G    MINI
      -1178    1179    3-21G    MINI
      -1208    1209    3-21G    MINI
      -1241    1242    3-21G    MINI
      -1271    1272    3-21G    MINI
      -1302    1303    3-21G    MINI
$END
 $FMOHYB
 3-21G        9   5
   1 0  -0.070459   0.164841   0.000000   0.000000   0.502116
         0.466939   0.000000   0.000000   0.418036
   0 1  -0.070465   0.164857   0.473392   0.000000  -0.167359
         0.466967   0.394111   0.000000  -0.139327
   0 1  -0.070465   0.164857  -0.236695  -0.409969  -0.167359
         0.466967  -0.197055  -0.341311  -0.139327
   0 1  -0.070465   0.164857  -0.236695   0.409969  -0.167359
         0.466967  -0.197055   0.341311  -0.139327
   0 1   1.006716   0.074826   0.000000   0.000000   0.000000
        -0.143830   0.000000   0.000000  -0.000003
 MINI         5   5
   1 0  -0.104883   0.308874   0.000000   0.000000   0.521806
   0 1  -0.104883   0.308874   0.491961   0.000000  -0.173934
   0 1  -0.104883   0.308876  -0.245980  -0.426050  -0.173933
   0 1  -0.104883   0.308876  -0.245980   0.426050  -0.173933
   0 1   0.988209   0.063992   0.000000   0.000000   0.000000
 $END

 $DATA
 FMO calculation : XXNAMEXX
 C1 
 C.1-1    6
      N21 3
   
 O.1-1    8
      N21 3
   
 N.1-1    7
      N21 3
   
 H.1-1    1
      N21 3
   
 P.1-1   15
      N21 3
   
 $END
$FMOXYZ
    1    H    7.493    -32.997    6.858
    2    O    7.909    -32.399    6.173
    3    C    9.218    -32.021    6.617
    4    H    9.797    -32.836    6.655
    5    H    9.134    -31.467    7.445
    6    C    9.886    -31.107    5.595
    7    H    10.732    -30.772    6.010
    8    O    10.206    -31.832    4.412
    9    C    10.154    -30.928    3.298
                    
   10    H    11.102    -30.780    3.015
   11    N    9.368    -31.586    2.245
   12    C    9.301    -31.206    0.929
   13    N    10.210    -29.018    -1.622
   14    H    10.079    -28.823    -2.604
   15    H    10.815    -28.389    -1.115
   16    N    9.939    -30.146    0.379
   17    C    9.670    -30.017    -0.923
   18    N    8.844    -30.873    -1.619
   19    H    8.704    -30.685    -2.622
   20    C    8.187    -31.968    -1.072
   21    O    7.474    -32.675    -1.777
   22    C    8.466    -32.103    0.313
   23    N    8.009    -33.048    1.225
   24    C    8.571    -32.698    2.346
   25    H    8.292    -33.336    3.063
   26    C    9.566    -29.599    3.788
   27    H    8.774    -29.393    3.213
   28    O    10.542    -28.555    3.764
   29    H    11.203    -28.634    3.072
   30    C    9.090    -29.866    5.210
   31    H    8.118    -30.098    5.184
   32    O    9.353    -28.773    6.119
   33    P    8.387    -27.501    6.392
   34    O    8.749    -26.794    7.638
   35    O    6.983    -27.917    6.222
   36    O    8.753    -26.490    5.193
   37    C    10.057    -25.908    5.068
   38    H    10.738    -26.639    5.032
   39    H    10.166    -25.200    5.766
   40    C    10.204    -25.170    3.735
   41    H    11.104    -24.735    3.723
   42    O    10.124    -26.103    2.657
   43    C    9.362    -25.525    1.585
   44    H    9.961    -25.518    0.784
   45    N    8.168    -26.374    1.382
   46    C    7.502    -26.565    0.194
   47    N    7.174    -25.940    -3.219
   48    H    6.613    -26.155    -4.031
   49    H    7.957    -25.319    -3.364
   50    N    7.826    -26.011    -0.998
   51    C    6.992    -26.388    -1.975
   52    N    5.927    -27.239    -1.781
   53    H    5.343    -27.462    -2.600
   54    C    5.577    -27.820    -0.571
   55    O    4.611    -28.575    -0.505
   56    C    6.464    -27.423    0.469
   57    N    6.467    -27.769    1.817
   58    C    7.487    -27.123    2.307
   59    H    7.557    -27.318    3.285
   60    C    9.036    -24.086    1.974
   61    H    8.078    -23.917    1.743
   62    O    9.933    -23.161    1.350
   63    H    10.243    -23.422    0.480
   64    C    9.194    -24.055    3.485
   65    H    8.321    -24.307    3.903
   66    O    9.816    -22.821    3.898
   67    P    9.014    -21.438    4.149
   68    O    9.938    -20.327    4.500
   69    O    7.945    -21.815    5.101
   70    O    8.370    -21.080    2.709
   71    C    9.182    -20.797    1.563
   72    H    9.942    -21.447    1.534
   73    H    9.399    -19.821    1.551
   74    C    8.383    -21.050    0.287
   75    H    9.048    -20.994    -0.458
   76    O    7.829    -22.358    0.315
   77    C    6.659    -22.365    -0.518
   78    H    6.920    -22.838    -1.359
   79    N    5.592    -23.086    0.210
   80    C    4.497    -23.679    -0.365
   81    N    2.646    -24.473    -3.203
   82    H    1.813    -24.949    -3.518
   83    H    3.215    -24.041    -3.917
   84    N    4.203    -23.689    -1.685
   85    C    3.075    -24.353    -1.946
   86    N    2.298    -24.950    -0.977
   87    H    1.445    -25.437    -1.287
   88    C    2.579    -24.943    0.383
   89    O    1.820    -25.499    1.173
   90    C    3.782    -24.244    0.663
   91    N    4.413    -24.010    1.880
   92    C    5.473    -23.325    1.556
   93    H    5.990    -23.113    2.385
   94    C    6.300    -20.913    -0.853
   95    H    5.376    -20.749    -0.508
   96    O    6.453    -20.645    -2.248
   97    H    6.272    -21.390    -2.826
   98    C    7.289    -20.048    -0.062
   99    H    6.847    -19.742    0.781
  100    O    8.019    -19.080    -0.870
  101    P    7.447    -17.783    -1.676
  102    O    8.520    -16.854    -2.122
  103    O    6.535    -17.377    -0.589
  104    O    6.567    -18.155    -2.995
  105    C    7.115    -18.440    -4.295
  106    H    7.734    -19.222    -4.223
  107    H    7.473    -17.594    -4.690
  108    C    6.003    -18.889    -5.241
  109    H    6.445    -19.164    -6.095
  110    O    5.304    -20.002    -4.703
  111    C    3.950    -19.962    -5.177
  112    H    3.874    -20.704    -5.843
  113    N    3.057    -20.185    -4.023
  114    C    3.496    -19.985    -2.750
  115    H    4.389    -19.674    -2.424
  116    C    1.770    -20.617    -4.288
  117    O    1.362    -20.780    -5.435
  118    N    0.965    -20.838    -3.187
  119    H    0.003    -21.163    -3.359
  120    C    1.330    -20.663    -1.863
  121    O    0.528    -20.881    -0.960
  122    C    2.690    -20.208    -1.683
  123    H    2.873    -20.109    -0.705
  124    C    3.709    -18.632    -5.885
  125    H    2.937    -18.182    -5.437
  126    O    3.532    -18.823    -7.286
  127    H    3.097    -19.643    -7.531
  128    C    4.981    -17.824    -5.616
  129    H    4.817    -17.237    -4.823
  130    O    5.579    -17.318    -6.831
  131    P    4.847    -16.384    -7.952
  132    O    5.539    -16.150    -9.252
  133    O    5.026    -15.384    -6.893
  134    O    3.264    -16.693    -8.176
  135    C    2.783    -17.513    -9.256
  136    H    3.273    -18.385    -9.246
  137    H    2.795    -16.978    -10.101
  138    C    1.314    -17.876    -9.033
  139    H    1.016    -18.572    -9.687
  140    O    1.195    -18.402    -7.706
  141    C    -0.125    -18.144    -7.241
  142    H    -0.681    -18.927    -7.518
  143    N    -0.097    -18.019    -5.777
  144    C    -0.613    -18.217    -3.656
  145    N    0.545    -17.445    -3.705
  146    C    0.805    -17.363    -4.983
  147    H    1.635    -16.820    -5.112
  148    N    -2.485    -19.421    -2.905
  149    C    -2.737    -19.681    -4.184
  150    H    -3.524    -20.229    -4.466
  151    N    -2.067    -19.308    -5.257
  152    C    -1.003    -18.569    -4.913
  153    C    -1.408    -18.676    -2.593
  154    N    -1.142    -18.405    -1.317
  155    H    -1.757    -18.765    -0.601
  156    H    -0.331    -17.845    -1.094
  157    C    -0.628    -16.900    -7.959
  158    H    -0.523    -16.130    -7.330
  159    O    -1.959    -17.095    -8.437
  160    H    -2.507    -17.662    -7.890
  161    C    0.315    -16.705    -9.148
  162    H    0.806    -15.844    -9.014
  163    O    -0.491    -16.668    -10.341
  164    P    -1.611    -15.534    -10.585
  165    O    -1.436    -14.886    -11.894
  166    O    -1.645    -14.674    -9.396
  167    O    -3.039    -16.264    -10.659
  168    C    -3.547    -16.894    -11.842
  169    H    -2.876    -17.559    -12.170
  170    H    -3.858    -16.188    -12.479
  171    C    -4.799    -17.729    -11.567
  172    H    -5.151    -18.044    -12.448
  173    O    -4.469    -18.868    -10.762
  174    C    -5.648    -19.254    -10.044
  175    H    -6.009    -20.064    -10.506
  176    N    -5.270    -19.568    -8.660
  177    C    -6.108    -20.080    -7.700
  178    N    -9.272    -21.157    -6.718
  179    H    -9.791    -21.525    -5.934
  180    H    -9.788    -21.020    -7.576
  181    N    -7.426    -20.355    -7.860
  182    C    -7.980    -20.833    -6.743
  183    N    -7.284    -21.023    -5.570
  184    H    -7.805    -21.398    -4.765
  185    C    -5.938    -20.747    -5.394
  186    O    -5.415    -20.927    -4.302
  187    C    -5.346    -20.238    -6.577
  188    N    -4.035    -19.838    -6.816
  189    C    -4.045    -19.453    -8.059
  190    H    -3.127    -19.147    -8.313
  191    C    -6.664    -18.109    -10.176
  192    H    -6.886    -17.811    -9.248
  193    O    -7.828    -18.526    -10.888
  194    H    -8.048    -19.456    -10.796
  195    C    -5.951    -16.969    -10.908
  196    H    -5.577    -16.327    -10.238
  197    O    -6.849    -16.195    -11.757
  198    P    -7.401    -14.686    -11.496
  199    O    -7.796    -14.034    -12.756
  200    O    -6.335    -14.052    -10.714
  201    O    -8.735    -14.574    -10.592
  202    C    -10.043    -14.201    -11.071
  203    H    -10.462    -14.990    -11.521
  204    H    -9.969    -13.350    -11.590
  205    C    -11.070    -13.846    -9.983
  206    H    -11.914    -13.532    -10.419
  207    O    -11.346    -15.046    -9.239
  208    C    -11.245    -14.767    -7.834
  209    H    -12.081    -15.112    -7.408
  210    N    -10.053    -15.472    -7.317
  211    C    -8.610    -16.496    -6.013
  212    N    -8.010    -16.395    -7.262
  213    C    -8.904    -15.785    -7.990
  214    H    -8.547    -15.672    -8.917
  215    N    -9.021    -16.981    -3.755
  216    C    -10.203    -16.407    -3.916
  217    H    -10.860    -16.335    -3.165
  218    N    -10.727    -15.854    -5.002
  219    C    -9.856    -15.935    -6.034
  220    C    -8.177    -17.050    -4.797
  221    N    -6.991    -17.629    -4.636
  222    H    -6.749    -18.006    -3.731
  223    H    -6.359    -17.679    -5.423
  224    C    -11.208    -13.247    -7.698
  225    H    -10.562    -13.036    -6.965
  226    O    -12.514    -12.744    -7.434
  227    H    -13.086    -13.339    -6.944
  228    C    -10.659    -12.708    -9.013
  229    H    -9.661    -12.666    -8.964
  230    O    -10.965    -11.320    -9.314
  231    P    -10.199    -9.927    -8.977
  232    O    -10.797    -8.720    -9.559
  233    O    -8.754    -9.994    -9.130
  234    O    -10.448    -9.746    -7.412
  235    C    -11.774    -9.739    -6.893
  236    H    -12.284    -10.500    -7.293
  237    H    -12.155    -8.819    -6.986
  238    C    -11.841    -10.008    -5.394
  239    H    -12.803    -10.117    -5.144
  240    O    -11.150    -11.256    -5.163
  241    C    -10.678    -11.254    -3.801
  242    H    -11.252    -11.899    -3.297
  243    N    -9.259    -11.693    -3.756
  244    C    -8.557    -12.058    -2.625
  245    N    -8.436    -12.547    0.823
  246    H    -7.824    -12.823    1.578
  247    H    -9.384    -12.307    1.076
  248    N    -9.046    -12.082    -1.361
  249    C    -8.127    -12.465    -0.472
  250    N    -6.834    -12.796    -0.808
  251    H    -6.202    -13.073    -0.044
  252    C    -6.313    -12.787    -2.094
  253    O    -5.144    -13.107    -2.291
  254    C    -7.288    -12.377    -3.043
  255    N    -7.178    -12.222    -4.421
  256    C    -8.361    -11.819    -4.790
  257    H    -8.364    -11.682    -5.781
  258    C    -10.911    -9.845    -3.252
  259    H    -10.040    -9.544    -2.864
  260    O    -11.943    -9.835    -2.270
  261    H    -12.042    -10.653    -1.778
  262    C    -11.262    -8.954    -4.427
  263    H    -10.427    -8.573    -4.823
  264    O    -11.754    -7.628    -4.151
  265    P    -11.128    -6.211    -3.663
  266    O    -12.013    -5.058    -3.806
  267    O    -9.795    -5.916    -4.095
  268    O    -10.949    -6.343    -2.088
  269    C    -12.077    -6.635    -1.266
  270    H    -12.507    -7.477    -1.591
  271    H    -12.646    -5.816    -1.192
  272    C    -11.729    -6.954    0.182
  273    H    -12.580    -7.097    0.688
  274    O    -10.951    -8.144    0.239
  275    C    -9.997    -8.036    1.317
  276    H    -10.212    -8.768    1.964
  277    N    -8.645    -8.180    0.719
  278    C    -8.428    -7.830    -0.584
  279    H    -9.070    -7.461    -1.255
  280    C    -7.613    -8.672    1.511
  281    O    -7.789    -9.008    2.678
  282    N    -6.375    -8.788    0.897
  283    H    -5.595    -9.150    1.465
  284    C    -6.083    -8.462    -0.417
  285    O    -4.950    -8.623    -0.869
  286    C    -7.210    -7.956    -1.162
  287    H    -6.916    -7.745    -2.094
  288    C    -10.237    -6.679    1.999
  289    H    -9.349    -6.257    2.181
  290    O    -11.005    -6.811    3.197
  291    H    -10.860    -7.626    3.683
  292    C    -10.957    -5.875    0.926
  293    H    -10.277    -5.478    0.310
  294    O    -11.703    -4.719    1.353
  295    P    -11.201    -3.189    1.456
  296    O    -12.287    -2.371    2.018
  297    O    -10.528    -2.652    0.274
  298    O    -10.071    -3.307    2.578
  299    C    -10.408    -3.871    3.842
  300    H    -10.887    -4.736    3.695
  301    H    -10.859    -3.174    4.399
  302    C    -9.178    -4.261    4.659
  303    H    -9.461    -4.621    5.548
  304    O    -8.400    -5.255    3.979
  305    C    -7.019    -5.116    4.385
  306    H    -6.826    -5.893    4.984
  307    N    -6.160    -5.144    3.180
  308    C    -4.428    -5.382    1.857
  309    N    -5.498    -5.049    1.040
  310    C    -6.493    -4.915    1.865
  311    H    -7.313    -4.666    1.349
  312    N    -2.289    -5.931    2.635
  313    C    -2.810    -5.951    3.862
  314    H    -2.258    -6.155    4.671
  315    N    -4.054    -5.726    4.237
  316    C    -4.822    -5.441    3.165
  317    C    -3.086    -5.643    1.584
  318    N    -2.572    -5.618    0.350
  319    H    -1.590    -5.816    0.225
  320    H    -3.178    -5.401    -0.429
  321    C    -6.884    -3.826    5.186
  322    H    -6.140    -3.283    4.797
  323    O    -6.677    -4.072    6.577
  324    H    -6.167    -4.860    6.778
  325    C    -8.203    -3.131    4.904
  326    H    -8.097    -2.604    4.061
  327    O    -8.627    -2.218    5.924
  328    P    -8.312    -0.640    5.862
  329    O    -9.069    -0.020    6.960
  330    O    -8.366    -0.033    4.524
  331    O    -6.763    -0.736    6.253
  332    C    -6.419    -1.456    7.436
  333    H    -6.851    -2.357    7.406
  334    H    -6.596    -0.878    8.232
  335    C    -4.927    -1.757    7.514
  336    H    -4.721    -2.272    8.346
  337    O    -4.507    -2.515    6.383
  338    C    -3.093    -2.308    6.191
  339    H    -2.635    -3.106    6.582
  340    N    -2.806    -2.174    4.737
  341    C    -3.749    -1.717    3.854
  342    H    -4.689    -1.421    4.022
  343    C    -1.541    -2.520    4.310
  344    O    -0.680    -2.919    5.082
  345    N    -1.293    -2.392    2.966
  346    H    -0.350    -2.648    2.641
  347    C    -2.178    -1.955    2.003
  348    O    -1.829    -1.891    0.823
  349    C    -3.481    -1.607    2.525
  350    H    -4.064    -1.305    1.771
  351    C    -2.692    -1.060    6.991
  352    H    -2.293    -0.392    6.363
  353    O    -1.792    -1.366    8.055
  354    H    -1.182    -2.086    7.876
  355    C    -4.031    -0.540    7.480
  356    H    -4.377    0.100    6.794
  357    O    -4.014    0.278    8.655
  358    P    -3.944    1.880    8.629
  359    O    -4.676    2.455    9.763
  360    O    -4.073    2.523    7.325
  361    O    -2.387    1.897    8.956
  362    C    -1.976    1.167    10.108
  363    H    -2.351    0.241    10.058
  364    H    -2.174    1.709    10.925
  365    C    -0.467    0.973    10.128
  366    H    -0.162    0.575    10.993
  367    O    -0.098    0.101    9.059
  368    C    1.178    0.510    8.532
  369    H    1.814    -0.241    8.710
  370    N    1.002    0.747    7.085
  371    C    1.360    0.917    4.924
  372    N    0.038    1.303    5.138
  373    C    -0.114    1.188    6.431
  374    H    -1.046    1.456    6.674
  375    N    3.421    0.413    3.916
  376    C    3.867    0.115    5.130
  377    H    4.806    -0.192    5.287
  378    N    3.227    0.155    6.288
  379    C    1.955    0.576    6.106
  380    C    2.148    0.820    3.763
  381    N    1.689    1.101    2.542
  382    H    2.309    1.002    1.751
  383    H    0.732    1.406    2.437
  384    C    1.628    1.747    9.330
  385    H    1.978    2.430    8.689
  386    O    2.616    1.419    10.306
  387    H    3.210    0.707    10.058
  388    C    0.322    2.251    9.926
  389    H    -0.142    2.816    9.244
  390    O    0.308    3.199    11.011
  391    P    0.097    4.796    10.978
  392    O    -0.017    5.322    12.346
  393    O    -0.792    5.376    9.985
  394    O    1.557    5.111    10.429
  395    C    2.620    4.483    11.131
  396    H    2.337    3.561    11.393
  397    H    2.942    5.097    11.851
  398    C    3.847    4.261    10.254
  399    H    4.547    3.719    10.719
  400    O    3.488    3.611    9.039
  401    C    4.435    3.986    8.018
  402    H    5.035    3.196    7.889
  403    N    3.687    4.304    6.768
  404    C    3.188    4.628    4.647
  405    N    2.033    4.910    5.368
  406    C    2.377    4.703    6.610
  407    H    1.590    4.884    7.200
  408    N    4.726    4.325    2.903
  409    C    5.614    3.991    3.837
  410    H    6.554    3.740    3.606
  411    N    5.461    3.925    5.148
  412    C    4.203    4.264    5.490
  413    C    3.476    4.654    3.274
  414    N    2.573    4.981    2.343
  415    H    2.848    4.975    1.371
  416    H    1.637    5.226    2.633
  417    C    5.261    5.156    8.548
  418    H    5.221    5.906    7.888
  419    O    6.607    4.768    8.827
  420    H    6.969    4.106    8.234
  421    C    4.479    5.550    9.795
  422    H    3.758    6.186    9.519
  423    O    5.213    6.203    10.831
  424    P    5.056    7.766    11.168
  425    O    6.081    8.016    12.190
  426    O    3.697    8.279    11.390
  427    O    5.526    8.339    9.754
  428    C    6.743    7.844    9.214
  429    H    6.790    6.857    9.368
  430    H    7.500    8.407    9.547
  431    C    6.787    7.998    7.698
  432    H    7.671    7.691    7.347
  433    O    5.758    7.236    7.088
  434    C    5.349    7.880    5.871
  435    H    5.718    7.325    5.126
  436    N    3.863    7.905    5.874
  437    C    3.172    8.051    7.045
  438    H    3.520    8.141    7.978
  439    C    3.205    7.793    4.665
  440    O    3.809    7.672    3.606
  441    N    1.822    7.830    4.716
  442    H    1.315    7.741    3.824
  443    C    1.048    7.975    5.854
  444    O    -0.177    7.980    5.781
  445    C    1.816    8.094    7.073
  446    H    1.188    8.202    7.844
  447    C    5.991    9.267    5.823
  448    H    5.267    9.946    5.698
  449    O    6.980    9.353    4.797
  450    H    6.798    8.829    4.014
  451    C    6.578    9.422    7.214
  452    H    5.889    9.864    7.789
  453    O    7.804    10.169    7.243
  454    P    7.845    11.769    7.428
  455    O    9.072    12.117    8.170
  456    O    6.559    12.339    7.863
  457    O    8.046    12.160    5.884
  458    C    9.184    11.650    5.183
  459    H    9.190    10.653    5.254
  460    H    9.999    12.146    5.482
  461    C    9.081    11.934    3.688
  462    H    9.937    11.685    3.235
  463    O    8.022    11.192    3.112
  464    C    7.512    11.928    1.981
  465    H    7.809    11.431    1.166
  466    N    6.029    11.963    2.101
  467    C    5.417    11.758    3.311
  468    H    5.823    11.584    4.208
  469    C    5.288    12.193    0.951
  470    O    5.821    12.371    -0.139
  471    N    3.909    12.203    1.101
  472    H    3.341    12.373    0.259
  473    C    3.216    12.005    2.285
  474    O    1.988    12.034    2.306
  475    C    4.065    11.770    3.432
  476    H    3.491    11.634    4.240
  477    C    8.162    13.302    1.988
  478    H    7.437    13.988    1.931
  479    O    9.094    13.450    0.918
  480    H    8.874    12.966    0.119
  481    C    8.821    13.389    3.363
  482    H    8.157    13.755    4.015
  483    O    10.045    14.149    3.399
  484    P    10.144    15.654    3.983
  485    O    11.524    15.893    4.448
  486    O    9.034    15.927    4.908
  487    O    9.920    16.566    2.678
  488    C    10.884    16.557    1.623
  489    H    11.155    15.612    1.438
  490    H    11.604    17.218    1.834
  491    C    10.269    17.051    0.318
  492    H    10.977    17.073    -0.388
  493    O    9.230    16.170    -0.095
  494    C    8.108    16.933    -0.571
  495    H    7.946    16.635    -1.512
  496    N    6.964    16.639    0.317
  497    C    4.944    16.181    1.057
  498    N    5.772    16.228    2.174
  499    C    6.950    16.501    1.679
  500    H    7.613    16.553    2.426
  501    N    3.079    15.959    -0.349
  502    C    3.898    16.223    -1.363
  503    H    3.574    16.257    -2.308
  504    N    5.198    16.475    -1.344
  505    C    5.663    16.436    -0.081
  506    C    3.568    15.928    0.902
  507    N    2.743    15.657    1.924
  508    H    1.767    15.481    1.732
  509    H    3.116    15.635    2.862
  510    C    8.509    18.397    -0.578
  511    H    7.751    18.929    -0.199
  512    O    8.889    18.827    -1.890
  513    H    8.412    18.405    -2.609
  514    C    9.681    18.454    0.383
  515    H    9.322    18.614    1.302
  516    O    10.680    19.344    -0.136
  517    P    10.623    20.926    0.166
  518    O    11.791    21.566    -0.496
  519    O    10.412    21.055    1.629
  520    O    9.281    21.378    -0.618
  521    C    9.199    21.287    -2.045
  522    H    9.588    20.414    -2.338
  523    H    9.570    22.124    -2.446
  524    C    7.740    21.243    -2.496
  525    H    7.699    21.024    -3.471
  526    O    7.043    20.236    -1.764
  527    C    5.650    20.581    -1.707
  528    H    5.189    20.010    -2.387
  529    N    5.153    20.315    -0.336
  530    C    3.860    19.972    -0.013
  531    N    0.596    19.284    -1.008
  532    H    -0.314    19.012    -0.663
  533    H    0.677    19.424    -2.005
  534    N    2.840    19.838    -0.889
  535    C    1.702    19.478    -0.288
  536    N    1.584    19.281    1.070
  537    H    0.659    19.008    1.431
  538    C    2.610    19.421    1.986
  539    O    2.391    19.223    3.181
  540    C    3.832    19.794    1.349
  541    N    5.094    20.031    1.893
  542    C    5.832    20.336    0.859
  543    H    6.764    20.526    1.169
  544    C    5.520    22.048    -2.119
  545    H    5.103    22.543    -1.357
  546    O    4.778    22.186    -3.330
  547    H    4.090    21.529    -3.461
  548    C    6.958    22.527    -2.295
  549    H    7.250    22.956    -1.440
  550    O    7.072    23.336    -3.478
  551    P    6.618    24.886    -3.485
  552    O    7.393    25.608    -4.521
  553    O    6.630    25.362    -2.085
  554    O    5.086    24.797    -3.991
  555    C    4.767    24.390    -5.328
  556    H    5.231    23.526    -5.525
  557    H    4.924    25.158    -5.948
  558    C    3.281    24.073    -5.472
  559    H    3.097    23.738    -6.396
  560    O    2.927    23.062    -4.534
  561    C    1.603    23.300    -4.041
  562    H    1.039    22.548    -4.382
  563    N    1.669    23.326    -2.560
  564    C    2.792    23.772    -1.925
  565    H    3.648    24.116    -2.311
  566    C    0.563    22.894    -1.847
  567    O    -0.454    22.487    -2.400
  568    N    0.675    22.937    -0.467
  569    H    -0.137    22.623    0.083
  570    C    1.778    23.363    0.250
  571    O    1.784    23.327    1.478
  572    C    2.876    23.799    -0.572
  573    H    3.628    24.092    0.018
  574    C    1.104    24.604    -4.641
  575    H    0.770    25.176    -3.892
  576    O    0.102    24.371    -5.634
  577    H    -0.453    23.604    -5.477
  578    C    2.343    25.248    -5.240
  579    H    2.743    25.853    -4.552
  580    O    2.036    25.907    -6.481
  581    P    1.556    27.445    -6.534
  582    O    1.442    27.870    -7.945
  583    O    2.377    28.249    -5.603
  584    O    0.067    27.357    -5.931
  585    C    -0.967    26.630    -6.614
  586    H    -0.720    25.661    -6.642
  587    H    -1.169    27.087    -7.480
  588    C    -2.277    26.678    -5.831
  589    H    -3.008    26.268    -6.377
  590    O    -2.155    25.964    -4.611
  591    C    -3.008    26.572    -3.620
  592    H    -3.745    25.920    -3.441
  593    N    -2.166    26.853    -2.434
  594    C    -0.838    27.113    -2.569
  595    H    -0.271    27.158    -3.391
  596    C    -0.067    27.364    -1.488
  597    H    0.904    27.572    -1.367
  598    C    -2.773    26.853    -1.196
  599    O    -3.976    26.623    -1.101
  600    N    -2.013    27.104    -0.097
  601    C    -0.702    27.347    -0.207
  602    N    0.017    27.571    0.893
  603    H    -0.446    27.552    1.791
  604    H    1.008    27.756    0.832
  605    C    -3.605    27.843    -4.247
  606    H    -3.475    28.599    -3.606
  607    O    -4.977    27.667    -4.607
  608    H    -5.476    27.084    -4.030
  609    C    -2.731    28.076    -5.472
  610    H    -1.936    28.616    -5.196
  611    O    -3.469    28.672    -6.543
  612    P    -3.394    30.255    -6.843
  613    O    -4.475    30.599    -7.792
  614    O    -1.997    30.604    -7.176
  615    O    -3.760    30.935    -5.429
  616    C    -5.046    30.760    -4.830
  617    H    -5.330    29.808    -4.941
  618    H    -5.661    31.475    -5.164
  619    C    -4.987    30.974    -3.317
  620    H    -5.872    30.735    -2.917
  621    O    -3.981    30.152    -2.740
  622    C    -3.498    30.780    -1.539
  623    H    -3.903    30.275    -0.777
  624    N    -2.018    30.691    -1.551
  625    C    -1.329    30.541    -2.726
  626    H    -1.672    30.478    -3.663
  627    C    -1.360    30.758    -0.336
  628    O    -1.961    30.912    0.724
  629    N    0.018    30.661    -0.384
  630    H    0.525    30.702    0.512
  631    C    0.787    30.514    -1.521
  632    O    2.011    30.444    -1.444
  633    C    0.023    30.454    -2.744
  634    H    0.651    30.346    -3.515
  635    C    -4.019    32.220    -1.516
  636    H    -3.232    32.834    -1.450
  637    O    -4.961    32.426    -0.462
  638    H    -4.800    31.911    0.332
  639    C    -4.668    32.392    -2.881
  640    H    -3.985    32.778    -3.501
  641    O    -5.879    33.150    -2.783
  642    P    -5.847    34.758    -2.710
  643    O    -7.199    35.262    -3.037
  644    O    -4.672    35.234    -3.471
  645    O    -5.581    35.032    -1.139
  646    C    -5.730    36.351    -0.594
  647    H    -6.431    36.840    -1.113
  648    H    -4.827    36.773    -0.512
  649    C    -6.267    36.328    0.838
  650    H    -6.242    37.249    1.228
  651    O    -7.620    35.856    0.841
  652    C    -7.732    34.685    1.665
  653    H    -8.137    34.981    2.530
  654    N    -8.593    33.710    0.946
  655    C    -8.340    33.370    -0.352
  656    H    -7.617    33.690    -0.964
  657    C    -9.654    33.140    1.639
  658    O    -9.895    33.427    2.809
  659    N    -10.428    32.236    0.942
  660    H    -11.221    31.807    1.440
  661    C    -10.241    31.847    -0.372
  662    O    -10.996    31.030    -0.897
  663    C    -9.115    32.477    -1.015
  664    H    -9.047    32.141    -1.954
  665    C    -6.320    34.185    1.926
  666    H    -6.076    33.542    1.200
  667    O    -6.203    33.636    3.242
  668    H    -6.988    33.187    3.565
  669    C    -5.471    35.435    1.785
  670    H    -4.613    35.174    1.342
  671    O    -5.377    36.081    3.060
  672    P    -4.104    37.004    3.413
  673    O    -4.474    37.911    4.521
  674    O    -3.578    37.556    2.144
  675    O    -3.048    35.919    3.961
  676    C    -3.393    35.060    5.050
  677    H    -4.249    34.590    4.835
  678    H    -3.345    35.580    5.903
  679    C    -2.367    33.942    5.219
  680    H    -2.682    33.263    5.882
  681    O    -2.185    33.306    3.952
  682    C    -0.830    33.455    3.511
  683    H    -0.395    32.563    3.631
  684    N    -0.864    33.885    2.085
  685    C    -1.573    34.985    1.703
  686    H    -2.124    35.617    2.248
  687    C    -1.606    35.374    0.411
  688    H    -2.054    36.129    -0.068
  689    C    -0.152    33.139    1.160
  690    O    0.482    32.158    1.530
  691    N    -0.177    33.521    -0.144
  692    C    -0.871    34.595    -0.533
  693    N    -0.875    34.936    -1.820
  694    H    -0.352    34.373    -2.476
  695    H    -1.392    35.743    -2.138
  696    C    -0.152    34.464    4.427
  697    H    -0.244    35.371    4.017
  698    O    1.209    34.100    4.688
  699    H    1.660    33.667    3.959
  700    C    -0.987    34.407    5.690
  701    H    -1.062    35.338    6.048
  702    O    -0.424    33.435    6.578
  703    P    -0.553    33.602    8.173
  704    O    -0.571    35.050    8.476
  705    O    0.454    32.727    8.813
  706    O    -2.014    33.006    8.495
  707    C    -2.271    31.612    8.333
  708    H    -1.734    31.102    9.005
  709    H    -2.165    31.371    7.368
  710    C    -3.723    31.264    8.658
  711    H    -3.943    31.509    9.602
  712    O    -4.598    31.967    7.781
  713    C    -5.775    31.182    7.560
  714    H    -6.500    31.613    8.097
  715    N    -6.064    31.216    6.118
  716    C    -5.140    31.080    5.110
  717    N    -1.847    30.604    4.080
  718    H    -1.260    30.517    3.263
  719    H    -1.385    30.537    4.976
  720    N    -3.807    30.892    5.273
  721    C    -3.165    30.797    4.104
  722    N    -3.793    30.887    2.880
  723    H    -3.205    30.805    2.038
  724    C    -5.154    31.079    2.694
  725    O    -5.618    31.155    1.560
  726    C    -5.839    31.176    3.935
  727    N    -7.193    31.369    4.191
  728    C    -7.269    31.385    5.491
  729    H    -8.222    31.522    5.760
  730    C    -5.522    29.775    8.103
  731    H    -5.653    29.127    7.353
  732    O    -6.361    29.491    9.232
  733    H    -7.227    29.905    9.208
  734    C    -4.045    29.787    8.498
  735    H    -3.516    29.420    7.733
  736    O    -3.903    29.139    9.768
  737    P    -3.219    27.686    9.871
  738    O    -3.189    27.297    11.299
  739    O    -1.965    27.711    9.079
  740    O    -4.286    26.755    9.101
  741    C    -5.599    26.550    9.637
  742    H    -5.987    27.435    9.895
  743    H    -5.558    25.835    10.335
  744    C    -6.549    26.002    8.573
  745    H    -7.438    25.812    8.989
  746    O    -6.721    26.955    7.522
  747    C    -6.556    26.301    6.251
  748    H    -7.346    26.558    5.695
  749    N    -5.277    26.774    5.685
  750    C    -4.966    26.901    4.353
  751    N    -5.852    26.599    1.003
  752    H    -5.509    26.730    0.062
  753    H    -6.796    26.251    1.094
  754    N    -5.781    26.615    3.314
  755    C    -5.192    26.837    2.140
  756    N    -3.902    27.308    2.013
  757    H    -3.539    27.445    1.059
  758    C    -3.053    27.612    3.060
  759    O    -1.928    28.053    2.833
  760    C    -3.674    27.371    4.306
  761    N    -3.173    27.540    5.586
  762    C    -4.156    27.174    6.353
  763    H    -3.875    27.265    7.308
  764    C    -6.594    24.802    6.501
  765    H    -5.940    24.356    5.890
  766    O    -7.916    24.263    6.373
  767    H    -8.461    24.681    5.702
  768    C    -6.084    24.705    7.924
  769    H    -5.085    24.696    7.894
  770    O    -6.717    23.628    8.628
  771    P    -6.053    22.162    8.631
  772    O    -6.830    21.317    9.570
  773    O    -4.592    22.344    8.811
  774    O    -6.328    21.660    7.121
  775    C    -7.670    21.496    6.641
  776    H    -8.204    22.305    6.886
  777    H    -8.013    20.602    6.931
  778    C    -7.708    21.451    5.113
  779    H    -8.656    21.485    4.795
  780    O    -6.993    22.565    4.566
  781    C    -6.344    22.154    3.346
  782    H    -6.780    22.675    2.612
  783    N    -4.900    22.477    3.449
  784    C    -2.810    22.907    2.923
  785    N    -2.886    22.972    4.307
  786    C    -4.136    22.717    4.569
  787    H    -4.275    22.752    5.559
  788    N    -2.010    22.959    0.722
  789    C    -3.242    22.659    0.333
  790    H    -3.480    22.550    -0.632
  791    N    -4.327    22.457    1.071
  792    C    -4.028    22.602    2.386
  793    C    -1.749    23.096    2.033
  794    N    -0.517    23.416    2.430
  795    H    0.202    23.550    1.734
  796    H    -0.331    23.517    3.418
  797    C    -6.617    20.676    3.133
  798    H    -5.754    20.224    2.906
  799    O    -7.626    20.464    2.142
  800    H    -7.631    21.103    1.426
  801    C    -7.069    20.217    4.500
  802    H    -6.255    19.975    5.028
  803    O    -8.039    19.165    4.396
  804    P    -7.587    17.619    4.303
  805    O    -8.814    16.795    4.299
  806    O    -6.512    17.344    5.282
  807    O    -6.947    17.606    2.819
  808    C    -7.766    17.951    1.693
  809    H    -8.359    18.716    1.944
  810    H    -8.197    17.122    1.337
  811    C    -6.927    18.480    0.526
  812    H    -7.495    18.989    -0.121
  813    O    -5.915    19.344    1.034
  814    C    -4.719    19.211    0.250
  815    H    -4.590    20.087    -0.214
  816    N    -3.601    18.900    1.180
  817    C    -3.831    18.276    2.372
  818    H    -4.687    17.958    2.780
  819    C    -2.814    17.996    3.211
  820    H    -2.770    17.555    4.108
  821    C    -2.315    19.264    0.798
  822    O    -2.132    19.851    -0.265
  823    N    -1.281    18.985    1.638
  824    C    -1.489    18.375    2.811
  825    N    -0.447    18.129    3.611
  826    H    0.476    18.410    3.311
  827    H    -0.577    17.670    4.501
  828    C    -4.959    18.127    -0.794
  829    H    -4.185    17.494    -0.779
  830    O    -5.179    18.686    -2.090
  831    H    -4.685    19.489    -2.274
  832    C    -6.191    17.414    -0.260
  833    H    -5.884    16.699    0.369
  834    O    -7.035    16.940    -1.319
  835    P    -6.910    15.435    -1.873
  836    O    -8.000    15.252    -2.853
  837    O    -6.760    14.476    -0.756
  838    O    -5.516    15.486    -2.667
  839    C    -5.367    16.340    -3.809
  840    H    -5.571    17.281    -3.540
  841    H    -5.877    15.950    -4.576
  842    C    -3.918    16.370    -4.276
  843    H    -3.854    16.894    -5.125
  844    O    -3.087    16.965    -3.305
  845    C    -1.774    16.371    -3.361
  846    H    -1.165    17.073    -3.729
  847    N    -1.426    15.974    -1.973
  848    C    -2.378    15.471    -1.127
  849    H    -3.351    15.305    -1.286
  850    C    -0.114    16.123    -1.567
  851    O    0.747    16.591    -2.304
  852    N    0.172    15.747    -0.275
  853    H    1.148    15.855    0.036
  854    C    -0.714    15.240    0.647
  855    O    -0.324    14.950    1.780
  856    C    -2.069    15.108    0.146
  857    H    -2.649    14.733    0.870
  858    C    -1.829    15.202    -4.336
  859    H    -1.453    14.393    -3.884
  860    O    -1.158    15.505    -5.562
  861    H    -0.389    16.073    -5.474
  862    C    -3.316    15.006    -4.540
  863    H    -3.638    14.367    -3.842
  864    O    -3.602    14.578    -5.869
  865    P    -3.615    13.010    -6.229
  866    O    -3.791    12.944    -7.695
  867    O    -4.518    12.259    -5.332
  868    O    -2.096    12.602    -5.879
  869    C    -1.008    13.209    -6.579
  870    H    -1.159    14.197    -6.622
  871    H    -0.861    12.720    -7.439
  872    C    0.296    13.044    -5.805
  873    H    1.022    13.509    -6.312
  874    O    0.202    13.613    -4.504
  875    C    1.116    12.924    -3.638
  876    H    1.905    13.529    -3.530
  877    N    0.424    12.678    -2.350
  878    C    -0.854    12.188    -2.323
  879    H    -1.458    11.937    -3.079
  880    C    1.104    12.964    -1.178
  881    O    2.247    13.417    -1.175
  882    N    0.424    12.724    -0.006
  883    H    0.922    12.925    0.873
  884    C    -0.860    12.240    0.112
  885    O    -1.364    12.069    1.218
  886    C    -1.500    11.970    -1.150
  887    H    -2.423    11.625    -0.980
  888    C    1.566    11.639    -4.337
  889    H    1.304    10.865    -3.760
  890    O    2.965    11.658    -4.618
  891    H    3.501    12.130    -3.976
  892    C    0.741    11.606    -5.614
  893    H    -0.063    11.036    -5.446
  894    O    1.561    11.317    -6.746
  895    P    2.150    9.842    -6.995
  896    O    2.320    9.640    -8.457
  897    O    1.338    8.896    -6.181
  898    O    3.604    10.025    -6.309
  899    C    4.501    11.059    -6.758
  900    H    4.102    11.951    -6.546
  901    H    4.761    10.875    -7.706
  902    C    5.804    11.001    -5.964
  903    H    6.448    11.630    -6.399
  904    O    5.616    11.393    -4.611
  905    C    6.447    10.569    -3.767
  906    H    7.067    11.191    -3.289
  907    N    5.545    9.854    -2.835
  908    C    4.194    9.908    -2.996
  909    H    3.644    10.376    -3.688
  910    C    3.377    9.268    -2.149
  911    H    2.382    9.186    -2.093
  912    C    6.117    9.140    -1.795
  913    O    7.333    9.106    -1.666
  914    N    5.295    8.484    -0.930
  915    C    3.964    8.530    -1.082
  916    N    3.182    7.876    -0.225
  917    H    3.610    7.355    0.527
  918    H    2.177    7.899    -0.323
  919    C    7.272    9.642    -4.680
  920    H    7.263    8.721    -4.290
  921    O    8.596    10.137    -4.888
  922    H    8.979    10.597    -4.138
  923    C    6.472    9.641    -5.965
  924    H    5.769    8.933    -5.896
  925    O    7.304    9.591    -7.134
  926    P    7.751    8.187    -7.784
  927    O    8.444    8.436    -9.075
  928    O    6.553    7.314    -7.737
  929    O    8.847    7.636    -6.740
  930    C    10.246    7.902    -6.925
  931    H    10.384    8.891    -6.987
  932    H    10.589    7.333    -7.672
  933    C    11.042    7.466    -5.697
  934    H    11.956    7.168    -5.973
  935    O    11.164    8.522    -4.769
  936    C    11.449    7.923    -3.512
  937    H    12.407    7.636    -3.527
  938    N    11.192    8.930    -2.458
  939    C    9.964    9.496    -2.325
  940    H    9.131    9.355    -2.860
  941    C    9.716    10.397    -1.361
  942    H    8.904    10.918    -1.097
  943    C    12.234    9.265    -1.599
  944    O    13.338    8.746    -1.745
  945    N    11.997    10.174    -0.622
  946    C    10.792    10.736    -0.485
  947    N    10.600    11.624    0.481
  948    H    11.371    11.855    1.092
  949    H    9.699    12.063    0.606
  950    C    10.563    6.687    -3.445
  951    H    9.672    6.953    -3.077
  952    O    11.180    5.637    -2.693
  953    H    11.719    5.930    -1.954
  954    C    10.401    6.310    -4.926
  955    H    9.422    6.288    -5.128
  956    O    11.130    5.117    -5.193
  957    P    10.419    3.710    -4.907
  958    O    11.016    2.753    -5.867
  959    O    8.951    3.906    -4.852
  960    O    10.938    3.371    -3.421
  961    C    12.340    3.236    -3.169
  962    H    12.796    4.098    -3.393
  963    H    12.671    2.402    -3.610
  964    C    12.623    3.025    -1.684
  965    H    13.581    2.801    -1.507
  966    O    12.278    4.188    -0.951
  967    C    11.773    3.818    0.343
  968    H    12.478    4.085    1.000
  969    N    10.507    4.563    0.539
  970    C    9.522    4.524    -0.413
  971    H    9.501    4.040    -1.288
  972    C    10.349    5.298    1.704
  973    O    11.220    5.344    2.569
  974    N    9.157    5.981    1.839
  975    H    9.023    6.536    2.696
  976    C    8.116    5.993    0.927
  977    O    7.096    6.640    1.153
  978    C    8.361    5.201    -0.257
  979    H    7.566    5.264    -0.861
  980    C    11.606    2.303    0.383
  981    H    10.672    2.089    0.670
  982    O    12.577    1.687    1.236
  983    H    12.826    2.203    2.006
  984    C    11.774    1.923    -1.082
  985    H    10.867    1.944    -1.503
  986    O    12.359    0.641    -1.292
  987    P    11.452    -0.648    -1.599
  988    O    12.424    -1.721    -1.853
  989    O    10.313    -0.461    -2.515
  990    O    10.838    -0.749    -0.129
  991    C    11.753    -0.704    0.959
  992    H    12.208    0.187    0.965
  993    H    12.326    -1.523    0.936
  994    C    11.029    -0.777    2.295
  995    H    11.667    -0.759    3.065
  996    O    10.130    0.321    2.413
  997    C    8.981    -0.076    3.188
  998    H    9.062    0.395    4.066
  999    N    7.774    0.349    2.444
$END
