‘2LX1_3_fmo_input.inp’ -> ‘/scratch/hazwong/826698/./2LX1_3_fmo_input.inp’
‘rungms’ -> ‘/scratch/hazwong/826698/./rungms’
‘gms-files.csh’ -> ‘/scratch/hazwong/826698/./gms-files.csh’
----- GAMESS execution script 'rungms' -----
This job is running on host gollum072.lsa.umich.edu
under operating system Linux at Sat Dec 7 22:33:54 EST 2019
Available scratch disk space (Kbyte units) at beginning of the job is
Filesystem     1K-blocks    Used Available Use% Mounted on
/dev/sda4      426933580 6803032 420130548   2% /scratch
GAMESS temporary binary files will be written to /scratch/hazwong/826698/2LX1_3/usrc
GAMESS supplementary output files will be written to /scratch/hazwong/826698/2LX1_3/src
Copying input file 2LX1_3_fmo_input.inp to your run's scratch directory...
cp 2LX1_3_fmo_input.inp /scratch/hazwong/826698/2LX1_3/usrc/2LX1_3_fmo_input.F05
unset echo
setenv OUTPUT /scratch/hazwong/826698/2LX1_3/usrc/2LX1_3_fmo_input.F06
This is a GDDI run, keeping various output files on local disks
setenv PUNCH /scratch/hazwong/826698/2LX1_3/usrc/2LX1_3_fmo_input.F07
unset echo
 
Assuming a single but multicore node.
 
/export/apps/CentOS7/gamess/src/build//ddikick.x /export/apps/CentOS7/gamess/src/build//gamess.R3.x 2LX1_3_fmo_input -ddi 1 16 gollum072.lsa.umich.edu:cpus=16 -scr /scratch/hazwong/826698/2LX1_3/usrc

 Distributed Data Interface kickoff program.
 Initiating 16 compute processes on 1 nodes to run the following command:
 /export/apps/CentOS7/gamess/src/build//gamess.R3.x 2LX1_3_fmo_input 

          ******************************************************
          *         GAMESS VERSION = 30 SEP 2018 (R3)         *
          *             FROM IOWA STATE UNIVERSITY             *
          * M.W.SCHMIDT, K.K.BALDRIDGE, J.A.BOATZ, S.T.ELBERT, *
          *   M.S.GORDON, J.H.JENSEN, S.KOSEKI, N.MATSUNAGA,   *
          *          K.A.NGUYEN, S.J.SU, T.L.WINDUS,           *
          *       TOGETHER WITH M.DUPUIS, J.A.MONTGOMERY       *
          *         J.COMPUT.CHEM.  14, 1347-1363(1993)        *
          **************** 64 BIT LINUX VERSION ****************

  SINCE 1993, STUDENTS AND POSTDOCS WORKING AT IOWA STATE UNIVERSITY
  AND ALSO IN THEIR VARIOUS JOBS AFTER LEAVING ISU HAVE MADE IMPORTANT
  CONTRIBUTIONS TO THE CODE:
     IVANA ADAMOVIC, CHRISTINE AIKENS, YURI ALEXEEV, POOJA ARORA,
     ANDREY ASADCHEV, ROB BELL, PRADIPTA BANDYOPADHYAY, JONATHAN BENTZ,
     BRETT BODE, KURT BRORSEN, CALEB CARLIN, GALINA CHABAN, WEI CHEN,
     CHEOL HO CHOI, PAUL DAY, ALBERT DEFUSCO, NUWAN DESILVA, TIM DUDLEY,
     DMITRI FEDOROV, ALEX FINDLATER, GRAHAM FLETCHER, MARK FREITAG,
     KURT GLAESEMANN, ANASTASIA GUNINA,
     DAN KEMP, GRANT MERRILL, NORIYUKI MINEZAWA, JONATHAN MULLIN,
     TAKESHI NAGATA, SEAN NEDD, HEATHER NETZLOFF, BOSILJKA NJEGIC, RYAN OLSON,
     MIKE PAK, BUU PHAM,
     SPENCER PRUITT, LUKE ROSKOP, JIM SHOEMAKER, LYUDMILA SLIPCHENKO,
     TONY SMITH, SAROM SOK LEANG, JIE SONG, TETSUYA TAKETSUGU, SIMON WEBB,
     PENG XU, SOOHAENG YOO, FEDERICO ZAHARIEV

  ADDITIONAL CODE HAS BEEN PROVIDED BY COLLABORATORS IN OTHER GROUPS:
     IOWA STATE UNIVERSITY:
          JOE IVANIC, AARON WEST, LAIMUTIS BYTAUTAS, KLAUS RUEDENBERG
     UNIVERSITY OF TOKYO: KIMIHIKO HIRAO, TAKAHITO NAKAJIMA,
          TAKAO TSUNEDA, MUNEAKI KAMIYA, SUSUMU YANAGISAWA,
          KIYOSHI YAGI, MAHITO CHIBA, SEIKEN TOKURA, NAOAKI KAWAKAMI
     UNIVERSITY OF AARHUS: FRANK JENSEN
     UNIVERSITY OF IOWA: VISVALDAS KAIRYS, HUI LI
     NATIONAL INST. OF STANDARDS AND TECHNOLOGY: WALT STEVENS, DAVID GARMER
     UNIVERSITY OF PISA: BENEDETTA MENNUCCI, JACOPO TOMASI
     UNIVERSITY OF MEMPHIS: HENRY KURTZ, PRAKASHAN KORAMBATH
     UNIVERSITY OF ALBERTA: TOBY ZENG, MARIUSZ KLOBUKOWSKI
     UNIVERSITY OF NEW ENGLAND: MARK SPACKMAN
     MIE UNIVERSITY: HIROAKI UMEDA
     NAT. INST. OF ADVANCED INDUSTRIAL SCIENCE AND TECHNOLOGY: KAZUO KITAURA
     MICHIGAN STATE UNIVERSITY:
          KAROL KOWALSKI, MARTA WLOCH, JEFFREY GOUR, JESSE LUTZ,
          WEI LI, JUN SHEN, J. EMILIANO DEUSTUA, PIOTR PIECUCH
     UNIVERSITY OF MINNESOTA:
          YINAN SHU
     UNIVERSITY OF SILESIA: MONIKA MUSIAL, STANISLAW KUCHARSKI
     FACULTES UNIVERSITAIRES NOTRE-DAME DE LA PAIX:
          OLIVIER QUINET, BENOIT CHAMPAGNE
     UNIVERSITY OF CALIFORNIA - SANTA BARBARA: BERNARD KIRTMAN
     INSTITUTE FOR MOLECULAR SCIENCE:
          KAZUYA ISHIMURA, MICHIO KATOUDA, AND SHIGERU NAGASE
     UNIVERSITY OF NOTRE DAME: ANNA POMOGAEVA, DAN CHIPMAN
     KYUSHU UNIVERSITY:
          HARUYUKI NAKANO,
          FENG LONG GU, JACEK KORCHOWIEC, MARCIN MAKOWSKI, AND YURIKO AOKI,
          HIROTOSHI MORI AND EISAKU MIYOSHI
     PENNSYLVANIA STATE UNIVERSITY:
          TZVETELIN IORDANOV, CHET SWALINA, JONATHAN SKONE,
          SHARON HAMMES-SCHIFFER
     WASEDA UNIVERSITY:
          MASATO KOBAYASHI, TOMOKO AKAMA, TSUGUKI TOUMA,
          TAKESHI YOSHIKAWA, YASUHIRO IKABATA, JUNJI SEINO,
          YUYA NAKAJIMA, HIROMI NAKAI
     NANJING UNIVERSITY: SHUHUA LI
     UNIVERSITY OF NEBRASKA:
          PEIFENG SU, DEJUN SI, NANDUN THELLAMUREGE, YALI WANG, HUI LI
     UNIVERSITY OF ZURICH: ROBERTO PEVERATI, KIM BALDRIDGE
     N. COPERNICUS UNIVERSITY AND JACKSON STATE UNIVERSITY:
          MARIA BARYSZ
     UNIVERSITY OF COPENHAGEN: Jimmy Kromann, CASPER STEINMANN
     TOKYO INSTITUTE OF TECHNOLOGY: HIROYA NAKATA
     NAGOYA UNIVERSITY: YOSHIO NISHIMOTO, STEPHAN IRLE
     MOSCOW STATE UNIVERSITY: VLADIMIR MIRONOV


 PARALLEL VERSION RUNNING ON       16 PROCESSORS IN        1 NODES.

 EXECUTION OF GAMESS BEGUN Sat Dec  7 22:33:54 2019

            ECHO OF THE FIRST FEW INPUT CARDS -
 INPUT CARD>!*** FMO 5.3 (Gamess) INPUT generated by Facio 22.1.1.32 ***                    
 INPUT CARD> $CONTRL RUNTYP=ENERGY NPRINT=-5 ISPHER=1 MAXIT=200 $END                        
 INPUT CARD> $SYSTEM MWORDS=63 MEMDDI=63 $END                                               
 INPUT CARD> $GDDI NGROUP=1 $END                                                            
 INPUT CARD> $SCF DIRSCF=.TRUE. NPUNCH=0 $END                                               
 INPUT CARD>!*** NumCPU : 2  MemPerNode : 512MB                                             
 INPUT CARD> $PCM SOLVNT=WATER IEF=-10 ICOMP=2 ICAV=1 IDISP=1 IFMO=-1 $END                  
 INPUT CARD> $PCMCAV RADII=SUAHF $END                                                       
 INPUT CARD> $TESCAV NTSALL=60 $END                                                         
 INPUT CARD> $FMOPRP                                                                        
 INPUT CARD>    NAODIR=200                                                                  
 INPUT CARD>    NGRFMO(1)=1, 1, 0, 0, 0,   0, 0, 0, 0, 0                                    
 INPUT CARD>    IPIEDA=1                                                                    
 INPUT CARD>    NPRINT=9                                                                    
 INPUT CARD> $END                                                                           
 INPUT CARD> $FMO                                                                           
 INPUT CARD>      SCFTYP(1)=RHF                                                             
 INPUT CARD>      MODGRD=10                                                                 
 INPUT CARD>      MODMUL=0                                                                  
 INPUT CARD>      MAXCAO=5                                                                  
 INPUT CARD>      MAXBND=18                                                                 
 INPUT CARD>      NLAYER=1                                                                  
 INPUT CARD>      MPLEVL(1)=2                                                               
 INPUT CARD>      NFRAG=16                                                                  
 INPUT CARD>      ICHARG(1)=-1, -1, -1, -1, -1, -1, -1, 0, -1, -1, -1, -1, -1, -1,          
 INPUT CARD>-1, 0                                                                           
 INPUT CARD>      FRGNAM(1)=F1, F2, F3, F4, F5, F6, F7, F8, F9, F10, F11, F12, F13,         
 INPUT CARD>F14, F15, F16                                                                   
 INPUT CARD>      indat(1)=0                                                                
 INPUT CARD>               1   -35   0                                                      
 INPUT CARD>               36   -66   0                                                     
 INPUT CARD>               67   -100   0                                                    
 INPUT CARD>               101   -133   0                                                   
 INPUT CARD>               134   -167   0                                                   
 INPUT CARD>               168   -197   0                                                   
 INPUT CARD>               198   -231   0                                                   
 INPUT CARD>               232   -260   0                                                   
 INPUT CARD>               261   -293   0                                                   
 INPUT CARD>               294   -324   0                                                   
 INPUT CARD>               325   -358   0                                                   
 INPUT CARD>               359   -391   0                                                   
 INPUT CARD>               392   -425   0                                                   
 INPUT CARD>               426   -455   0                                                   
 INPUT CARD>               456   -489   0                                                   
 INPUT CARD>               490   -516   0                                                   
 INPUT CARD> $END                                                                           
 INPUT CARD>                                                                                
 INPUT CARD> $FMOBND                                                                        
 INPUT CARD>   -36   35       6-31G*    MINI                                                
 INPUT CARD>   -67   66       6-31G*    MINI                                                


 -------------------------------------------------------------
 GROUP DDI, PROGRAMMED BY: RYAN M. OLSON AND DMITRI G. FEDOROV
        FEDOROV ET AL., J. COMPUT. CHEM., 25 (2004) 872.
 -------------------------------------------------------------

 -------------------------------------------------------
 GDDI: INITIALIZATION COMPLETED FOR GROUP     1 OF     1
 WITH    16 PROCESSES BALTYP=DLB   global rank=        0
 -------------------------------------------------------

   63000000 WORDS OF MEMORY AVAILABLE


     RUN TITLE
     ---------
  FMO calculation                                                                

 THE POINT GROUP OF THE MOLECULE IS C1      
 THE ORDER OF THE PRINCIPAL AXIS IS     0

 ATOM   ATOMIC CHARGE
 H.1-1       1.0
 O.1-1       8.0
 C.1-1       6.0
 N.1-1       7.0
 P.1-1      15.0

     ATOMIC BASIS SET LIBRARY
     ----------------
 THE CONTRACTED PRIMITIVE FUNCTIONS HAVE BEEN UNNORMALIZED
 THE CONTRACTED BASIS FUNCTIONS ARE NOW NORMALIZED TO UNITY

  SHELL TYPE  PRIMITIVE        EXPONENT          CONTRACTION COEFFICIENT(S)

 H.1-1     

      1   S       1            18.7311370    0.033494604338
      1   S       2             2.8253944    0.234726953484
      1   S       3             0.6401217    0.813757326146

      2   S       4             0.1612778    1.000000000000

 O.1-1     

      3   S       5          5484.6716600    0.001831074430
      3   S       6           825.2349460    0.013950172200
      3   S       7           188.0469580    0.068445078098
      3   S       8            52.9645000    0.232714335992
      3   S       9            16.8975704    0.470192897984
      3   S      10             5.7996353    0.358520852987

      4   L      11            15.5396162   -0.110777549525    0.070874268231
      4   L      12             3.5999336   -0.148026262701    0.339752839147
      4   L      13             1.0137618    1.130767015354    0.727158577316

      5   L      14             0.2700058    1.000000000000    1.000000000000

      6   D      15             0.8000000    1.000000000000

 C.1-1     

      7   S      16          3047.5248800    0.001834737132
      7   S      17           457.3695180    0.014037322813
      7   S      18           103.9486850    0.068842622264
      7   S      19            29.2101553    0.232184443216
      7   S      20             9.2866630    0.467941348435
      7   S      21             3.1639270    0.362311985337

      8   L      22             7.8682723   -0.119332419775    0.068999066591
      8   L      23             1.8812885   -0.160854151696    0.316423960957
      8   L      24             0.5442493    1.143456437840    0.744308290898

      9   L      25             0.1687145    1.000000000000    1.000000000000

     10   D      26             0.8000000    1.000000000000

 N.1-1     

     11   S      27          4173.5114600    0.001834772160
     11   S      28           627.4579110    0.013994627002
     11   S      29           142.9020930    0.068586551812
     11   S      30            40.2343293    0.232240873040
     11   S      31            12.8202129    0.469069948082
     11   S      32             4.3904370    0.360455199063

     12   L      33            11.6263619   -0.114961181702    0.067579743878
     12   L      34             2.7162798   -0.169117478561    0.323907295893
     12   L      35             0.7722184    1.145851947027    0.740895139755

     13   L      36             0.2120315    1.000000000000    1.000000000000

     14   D      37             0.8000000    1.000000000000

 P.1-1     

     15   S      38         19413.3000000    0.001851598923
     15   S      39          2909.4200000    0.014206191735
     15   S      40           661.3640000    0.069999459277
     15   S      41           185.7590000    0.240078860331
     15   S      42            59.1943000    0.484761717984
     15   S      43            20.0310000    0.335199804993

     16   L      44           339.4780000   -0.002782170105    0.004564616191
     16   L      45            81.0101000   -0.036049901354    0.033693571881
     16   L      46            25.8780000   -0.116631004382    0.139754883368
     16   L      47             9.4522100    0.096832803638    0.339361716786
     16   L      48             3.6656600    0.614418023082    0.450920623685
     16   L      49             1.4674600    0.403798015170    0.238585800889

     17   L      50             2.1562300   -0.252924113863   -0.017765312733
     17   L      51             0.7489970    0.032851844678    0.274058196433
     17   L      52             0.2831450    1.081254761783    0.785421562957

     18   L      53             0.0998317    1.000000000000    1.000000000000

     19   D      54             0.5500000    1.000000000000

 TOTAL NUMBER OF BASIS SET SHELLS             =   19
 NUMBER OF CARTESIAN GAUSSIAN BASIS FUNCTIONS =   66

     $CONTRL OPTIONS
     ---------------
 SCFTYP=RHF          RUNTYP=ENERGY       EXETYP=RUN     
 MPLEVL=       0     CITYP =NONE         CCTYP =NONE         VBTYP =NONE    
 DFTTYP=NONE         TDDFT =NONE    
 MULT  =       1     ICHARG=       0     NZVAR =       0     COORD =UNIQUE  
 PP    =NONE         RELWFN=NONE         LOCAL =NONE         NUMGRD=       F
 ISPHER=       1     NOSYM =       0     MAXIT =     200     UNITS =ANGS    
 PLTORB=       F     MOLPLT=       F     AIMPAC=       F     FRIEND=        
 NPRINT=      -5     IREST =       0     GEOM  =INPUT   
 NORMF =       0     NORMP =       0     ITOL  =      24     ICUT  =      12
 INTTYP=BEST         GRDTYP=BEST         QMTTOL= 1.0E-06

     $SYSTEM OPTIONS
     ---------------
  REPLICATED MEMORY=    63000000 WORDS (ON EVERY NODE).
 DISTRIBUTED MEMDDI=          63 MILLION WORDS IN AGGREGATE,
 MEMDDI DISTRIBUTED OVER  16 PROCESSORS IS     3937500 WORDS/PROCESSOR.
 TOTAL MEMORY REQUESTED ON EACH PROCESSOR=    66937500 WORDS.
 TIMLIM=      525600.00 MINUTES, OR     365.0 DAYS.
 PARALL= T  BALTYP=  DLB     KDIAG=    0  COREFL= F
 MXSEQ2=     300 MXSEQ3=     150  mem10=         0

 ** LOOKING UP INTERNALLY STORED DATA FOR SOLVENT=WATER    **
 OPTICAL AND PHYSICAL CONSTANTS:
 EPS= 78.390; EPSINF=  1.776; RSOLV=  1.385 A; VMOL=  18.070 ML/MOL;
 TCE= .25700E-03 1/K; STEN= 71.810 DYN/CM;  DSTEN=  0.6500; CMF=  1.2770


     -----------------------------------
     INPUT FOR PCM SOLVATION CALCULATION 
     -----------------------------------
     IEF   =     -10
     ICOMP =       2     IFIELD=       0     ICAV  =       1
     IDISP =       1     IREP  =       0     IDP   =       0

     SOLVNT=WATER        EPS   = 78.3900     EPSINF=  1.7760
     VMOL  = 18.0700     TCE   =  0.00025700 STEN  = 71.8100
     DSTEN =  0.6500     CMF   =  1.2770     RSOLV =  1.3850

     NESFP =       0
     OMEGA = 40.0000     RET   =100.0000     FRO   =  0.7000

     TABS  =298.0000     IPRINT=       0

     --------------------------------
     INPUT FOR ITERATIVE C-PCM METHOD 
     --------------------------------
     IPCMIT  =         1     MXDIIS  =        50
     MXITR1  =       200     MXITR2  =       200
     THRES   = 0.100E-09     IMUL    =         3
     RCUT(1) =   20.0000     RCUT(2) =   50.0000

     IDIRCT  =         1
     IMGABI  =         0     RABI    =    4.0000
     IMGASC  =         0     RASC    =   20.0000
     THRSLS  = 0.500E-03     DENSLS  =    0.0100
     IEFPOL  =         1     REFPOL  =    0.0000

     INPUT FOR ISOTROPIC DIELECTRICS
     -------------------------------
     EPS=    78.39

          ----------------
          PROPERTIES INPUT
          ----------------

     MOMENTS            FIELD           POTENTIAL          DENSITY
 IEMOM =       1   IEFLD =       0   IEPOT =       0   IEDEN =       0
 WHERE =COMASS     WHERE =NUCLEI     WHERE =NUCLEI     WHERE =NUCLEI  
 OUTPUT=BOTH       OUTPUT=BOTH       OUTPUT=NONE       OUTPUT=BOTH    
 IEMINT=       0   IEFINT=       0                     IEDINT=       0
                                                       MORB  =       0
          EXTRAPOLATION IN EFFECT
          SOSCF IN EFFECT
 ORBITAL PRINTING OPTION: NPREO=     1 32767     2     1

     -------------------------------
     INTEGRAL TRANSFORMATION OPTIONS
     -------------------------------
     NWORD  =            0
     CUTOFF = 1.0E-10     MPTRAN =       0
     DIRTRF =       T     AOINTS =DUP     

          ----------------------
          INTEGRAL INPUT OPTIONS
          ----------------------
 NOPK  =       1 NORDER=       0 SCHWRZ=       T

 ..... DONE SETTING UP THE RUN .....
 CPU     0: STEP CPU TIME=     0.04 TOTAL CPU TIME=          0.0 (      0.0 MIN)
 TOTAL WALL CLOCK TIME=          0.1 SECONDS, CPU UTILIZATION IS    44.44%
 CPU     0: STEP CPU TIME=     0.00 TOTAL CPU TIME=          0.0 (      0.0 MIN)
 TOTAL WALL CLOCK TIME=          0.1 SECONDS, CPU UTILIZATION IS    44.44%

                    ----------------------
                    AO INTEGRAL TECHNOLOGY
                    ----------------------
     S,P,L SHELL ROTATED AXIS INTEGRALS, REPROGRAMMED BY
        KAZUYA ISHIMURA (IMS) AND JOSE SIERRA (SYNSTAR).
     S,P,D,L SHELL ROTATED AXIS INTEGRALS PROGRAMMED BY
        KAZUYA ISHIMURA (INSTITUTE FOR MOLECULAR SCIENCE).
     S,P,D,F,G SHELL TO TOTAL QUARTET ANGULAR MOMENTUM SUM 5,
        ERIC PROGRAM BY GRAHAM FLETCHER (ELORET AND NASA ADVANCED
        SUPERCOMPUTING DIVISION, AMES RESEARCH CENTER).
     S,P,D,F,G,L SHELL GENERAL RYS QUADRATURE PROGRAMMED BY
        MICHEL DUPUIS (PACIFIC NORTHWEST NATIONAL LABORATORY).
 Setting modorb=1 flag...
 Setting modorb=1 flag...

          -----------------------
          MP2 CONTROL INFORMATION
          -----------------------
          NACORE =        8  NBCORE =        8
          LMOMP2 =        F  AOINTS = DUP     
          METHOD =        2  NWORD  =               0
          MP2PRP =        F  OSPT   = NONE    
          CUTOFF = 1.00E-12  CPHFBS = BASISAO 
          CODE   = IMS     

          NUMBER OF CORE -A-  ORBITALS =     8
          NUMBER OF CORE -B-  ORBITALS =     8
          NUMBER OF OCC. -A-  ORBITALS =    18
          NUMBER OF OCC. -B-  ORBITALS =    18
          NUMBER OF MOLECULAR ORBITALS =    66
          NUMBER OF   BASIS  FUNCTIONS =    66

 CPU     0: STEP CPU TIME=     0.04 TOTAL CPU TIME=          0.1 (      0.0 MIN)
 TOTAL WALL CLOCK TIME=          0.1 SECONDS, CPU UTILIZATION IS    53.33%
 CPU     0: STEP CPU TIME=     0.00 TOTAL CPU TIME=          0.1 (      0.0 MIN)
 TOTAL WALL CLOCK TIME=          0.1 SECONDS, CPU UTILIZATION IS    53.33%

     INPUT FOR CAVITY DEFINITION 
     ---------------------------
   ATOM               COORDINATES                RADIUS       EPS
      1     10.8920      2.0600     15.8330      0.0100     78.3900
      2     10.5380      2.7220     15.2090      1.5900     78.3900
      3     10.8960      4.0030     15.7370      1.7700     78.3900
      4     11.9930      4.1470     15.6010      0.0100     78.3900
      5     10.6820      4.0270     16.8270      0.0100     78.3900
      6     10.1490      5.1600     15.0680      1.7700     78.3900
      7     10.5010      6.1290     15.4800      0.0100     78.3900
      8     10.4140      5.1780     13.6350      1.5900     78.3900
      9      9.2400      5.5940     12.9520      1.7700     78.3900
     10      9.5230      6.4840     12.3410      0.0100     78.3900
     11      8.7510      4.5470     12.0680      1.6800     78.3900
     12      7.7780      3.4060     10.4640      1.7700     78.3900
     13      8.5460      2.5040     11.1880      1.6800     78.3900
     14      9.0980      3.2250     12.1240      1.7700     78.3900
     15      9.7860      2.8530     12.8880      0.0100     78.3900
     16      6.2970      4.3560      8.8830      1.6800     78.3900
     17      6.4840      5.5150      9.5250      1.7700     78.3900
     18      5.9330      6.3690      9.1120      0.0100     78.3900
     19      7.2620      5.7840     10.5800      1.6800     78.3900
     20      7.8890      4.6740     11.0030      1.7700     78.3900
     21      6.9460      3.2530      9.3330      1.7700     78.3900
     22      6.7630      2.0800      8.6960      1.6800     78.3900
     23      7.1070      1.2240      9.0900      0.0100     78.3900
     24      6.0880      2.0120      7.9560      0.0100     78.3900
     25      8.2230      5.9860     13.9900      1.7700     78.3900
     26      7.1770      5.7920     13.6720      0.0100     78.3900
     27      8.3970      7.3550     14.2890      1.5900     78.3900
     28      7.8180      7.5380     15.0370      0.0100     78.3900
     29      8.6150      5.1110     15.1750      1.7700     78.3900
     30      8.3110      4.0500     15.0090      0.0100     78.3900
     31      8.1930      5.6190     16.4610      1.5900     78.3900
     32      6.8110      5.1740     17.0670      2.1000     78.3900
     33      6.7190      3.7000     17.0340      1.5900     78.3900
     34      6.6770      5.8120     18.3910      1.5900     78.3900
     35      5.7410      5.7870     16.0760      1.5900     78.3900
     36      5.5230      7.2210     16.0140      1.7700     78.3900
     37      6.4770      7.7760     15.8820      0.0100     78.3900
     38      5.0730      7.5860     16.9570      0.0100     78.3900
     39      4.5680      7.6300     14.8740      1.7700     78.3900
     40      4.5150      8.7360     14.7800      0.0100     78.3900
     41      5.0430      7.1040     13.6050      1.5900     78.3900
     42      3.9410      6.6910     12.8170      1.7700     78.3900
     43      4.0110      7.3220     11.9070      0.0100     78.3900
     44      4.0120      5.2540     12.4120      1.6800     78.3900
     45      4.7740      4.3570     13.1340      1.7700     78.3900
     46      5.3030      4.7750     13.9930      0.0100     78.3900
     47      4.9010      3.0760     12.7470      1.7700     78.3900
     48      5.5480      2.3660     13.2620      0.0100     78.3900
     49      3.3150      4.8180     11.2860      1.7700     78.3900
     50      2.6490      5.6400     10.6290      1.5900     78.3900
     51      3.4100      3.5260     10.8990      1.6800     78.3900
     52      4.1900      2.6640     11.5780      1.7700     78.3900
     53      4.3050      1.4010     11.1530      1.6800     78.3900
     54      3.8060      1.1010     10.3360      0.0100     78.3900
     55      4.8550      0.7050     11.6040      0.0100     78.3900
     56      2.6640      7.0500     13.5620      1.7700     78.3900
     57      1.8600      6.2890     13.4350      0.0100     78.3900
     58      2.1900      8.3210     13.1570      1.5900     78.3900
     59      1.4260      8.4800     13.7300      0.0100     78.3900
     60      3.1380      7.0960     15.0140      1.7700     78.3900
     61      3.2390      6.0610     15.4110      0.0100     78.3900
     62      2.3720      7.9690     15.8930      1.5900     78.3900
     63      0.9810      7.4120     16.4120      2.1000     78.3900
     64      1.1600      5.9680     16.5530      1.5900     78.3900
     65      0.5820      8.1640     17.6210      1.5900     78.3900
     66     -0.0160      7.7670     15.2250      1.5900     78.3900
     67     -1.3120      7.1150     15.1570      1.7700     78.3900
     68     -2.0580      7.7050     15.7350      0.0100     78.3900
     69     -1.2840      6.0900     15.6000      0.0100     78.3900
     70     -1.8520      6.9710     13.7160      1.7700     78.3900
     71     -2.2460      7.9420     13.3550      0.0100     78.3900
     72     -0.7860      6.6130     12.7890      1.5900     78.3900
     73     -1.2600      5.6470     11.8730      1.7700     78.3900
     74     -1.0190      6.0580     10.8660      0.0100     78.3900
     75     -0.5880      4.3440     12.0370      1.6800     78.3900
     76     -0.1290      3.7070     13.1720      1.7700     78.3900
     77      0.1960      3.5170     16.6010      1.6800     78.3900
     78      0.4070      2.8510     17.3020      0.0100     78.3900
     79     -0.2000      4.4080     16.8510      0.0100     78.3900
     80     -0.2170      4.1490     14.4250      1.6800     78.3900
     81      0.2930      3.3100     15.3170      1.7700     78.3900
     82      0.9510      2.1700     14.9760      1.6800     78.3900
     83      1.1270      1.5140     15.7190      0.0100     78.3900
     84      0.9990      1.6480     13.7020      1.7700     78.3900
     85      1.5300      0.5510     13.5090      1.5900     78.3900
     86      0.4300      2.5290     12.7400      1.7700     78.3900
     87      0.3130      2.4130     11.3700      1.6800     78.3900
     88     -0.3160      3.4980     11.0010      1.7700     78.3900
     89     -0.6170      3.7330      9.9790      0.0100     78.3900
     90     -2.7610      5.5400     12.0410      1.7700     78.3900
     91     -3.1440      4.5190     11.8230      0.0100     78.3900
     92     -3.4030      6.4720     11.1850      1.5900     78.3900
     93     -4.3390      6.5170     11.4370      0.0100     78.3900
     94     -2.9360      5.8890     13.5180      1.7700     78.3900
     95     -2.6370      5.0330     14.1620      0.0100     78.3900
     96     -4.2300      6.4100     13.8790      1.5900     78.3900
     97     -5.4690      5.4650     14.1040      2.1000     78.3900
     98     -6.6820      6.3110     14.1170      1.5900     78.3900
     99     -5.4720      4.4030     13.0800      1.5900     78.3900
    100     -5.2340      4.8340     15.5290      1.5900     78.3900
    101     -5.9360      5.2610     16.7190      1.7700     78.3900
    102     -6.9880      5.5650     16.5080      0.0100     78.3900
    103     -5.4270      6.1420     17.1670      0.0100     78.3900
    104     -5.9730      4.1490     17.7780      1.7700     78.3900
    105     -6.3720      4.5320     18.7410      0.0100     78.3900
    106     -6.8670      3.0890     17.3220      1.5900     78.3900
    107     -6.3530      1.8230     17.7060      1.7700     78.3900
    108     -7.1420      1.3540     18.3440      0.0100     78.3900
    109     -6.1150      0.9830     16.5260      1.6800     78.3900
    110     -6.1090     -0.6990     15.1140      1.7700     78.3900
    111     -5.6600      0.4010     14.4020      1.6800     78.3900
    112     -5.6550      1.3690     15.2880      1.7700     78.3900
    113     -5.3460      2.3990     15.0920      0.0100     78.3900
    114     -6.6960     -2.9130     15.7140      1.6800     78.3900
    115     -6.8760     -2.4400     16.9510      1.7700     78.3900
    116     -7.1930     -3.1820     17.6890      0.0100     78.3900
    117     -6.7810     -1.1850     17.4040      1.6800     78.3900
    118     -6.3670     -0.3610     16.4290      1.7700     78.3900
    119     -6.3140     -2.0410     14.7460      1.7700     78.3900
    120     -6.1920     -2.4690     13.4800      1.6800     78.3900
    121     -5.8410     -1.8410     12.7800      0.0100     78.3900
    122     -5.9320     -3.4310     13.3580      0.0100     78.3900
    123     -5.1120      2.0510     18.5350      1.7700     78.3900
    124     -4.3350      1.2840     18.3520      0.0100     78.3900
    125     -5.4340      2.0750     19.9130      1.5900     78.3900
    126     -4.6450      2.3990     20.3700      0.0100     78.3900
    127     -4.6550      3.4200     18.0470      1.7700     78.3900
    128     -4.1520      3.3050     17.0530      0.0100     78.3900
    129     -3.8810      4.1660     19.0180      1.5900     78.3900
    130     -2.3300      4.0710     18.8030      2.1000     78.3900
    131     -2.0060      2.6310     18.7100      1.5900     78.3900
    132     -1.9880      4.9560     17.6780      1.5900     78.3900
    133     -1.7810      4.7010     20.1380      1.5900     78.3900
    134     -1.8210      6.1300     20.3500      1.7700     78.3900
    135     -2.8840      6.4470     20.4370      0.0100     78.3900
    136     -1.3680      6.6690     19.4850      0.0100     78.3900
    137     -1.1120      6.6190     21.6420      1.7700     78.3900
    138     -1.4430      7.6510     21.8770      0.0100     78.3900
    139     -1.3960      5.7470     22.7710      1.5900     78.3900
    140     -0.3070      4.8340     22.9240      1.7700     78.3900
    141      0.1210      5.0430     23.9290      0.0100     78.3900
    142     -0.7790      3.4300     22.8710      1.6800     78.3900
    143     -0.5380      2.4220     21.9620      1.7700     78.3900
    144      0.8470      1.4710     19.0000      1.6800     78.3900
    145      0.8180      0.7280     18.3290      0.0100     78.3900
    146      1.4360      2.2610     18.8700      0.0100     78.3900
    147      0.2500      2.4850     20.8850      1.6800     78.3900
    148      0.1840      1.4500     20.1210      1.7700     78.3900
    149     -0.4960      0.3160     20.4530      1.6800     78.3900
    150     -0.3790     -0.4830     19.8530      0.0100     78.3900
    151     -1.2330      0.1430     21.6170      1.7700     78.3900
    152     -1.7890     -0.9290     21.8820      1.5900     78.3900
    153     -1.2650      1.3360     22.3990      1.7700     78.3900
    154     -1.9520      1.6370     23.5690      1.6800     78.3900
    155     -1.6250      2.8880     23.8110      1.7700     78.3900
    156     -1.9850      3.4840     24.6530      0.0100     78.3900
    157      0.7520      5.1870     21.8870      1.7700     78.3900
    158      0.6310      4.6780     20.9180      0.0100     78.3900
    159      2.0550      4.9850     22.3870      1.5900     78.3900
    160      2.6340      5.5460     21.8500      0.0100     78.3900
    161      0.4240      6.6240     21.5310      1.7700     78.3900
    162      0.6230      6.7980     20.4460      0.0100     78.3900
    163      1.0490      7.6470     22.3580      1.5900     78.3900
    164      2.4890      8.0940     21.8770      2.1000     78.3900
    165      3.1670      6.9990     21.1540      1.5900     78.3900
    166      2.3340      9.3760     21.1720      1.5900     78.3900
    167      3.2620      8.3680     23.2030      1.5900     78.3900
    168      4.2570      7.4680     23.7370      1.7700     78.3900
    169      5.2560      7.7650     23.3400      0.0100     78.3900
    170      4.0790      6.4100     23.4330      0.0100     78.3900
    171      4.2870      7.5030     25.2770      1.7700     78.3900
    172      5.1830      6.9740     25.6670      0.0100     78.3900
    173      4.3450      8.8850     25.7580      1.5900     78.3900
    174      3.5140      9.0350     26.8990      1.7700     78.3900
    175      4.1870      9.4210     27.7020      0.0100     78.3900
    176      2.3930      9.9980     26.6690      1.6800     78.3900
    177      2.0030     10.3440     25.3960      1.7700     78.3900
    178      2.5790      9.9000     24.5930      0.0100     78.3900
    179      1.7730     10.5590     27.7660      1.7700     78.3900
    180      2.1010     10.2980     28.9160      1.5900     78.3900
    181      0.7660     11.4470     27.4730      1.6800     78.3900
    182      0.3160     11.8740     28.2660      0.0100     78.3900
    183      0.3410     11.8500     26.2260      1.7700     78.3900
    184     -0.5470     12.6970     26.1120      1.5900     78.3900
    185      1.0140     11.2080     25.1410      1.7700     78.3900
    186      0.7380     11.4760     24.1250      0.0100     78.3900
    187      3.0270      7.6550     27.2900      1.7700     78.3900
    188      1.9960      7.6790     27.7050      0.0100     78.3900
    189      3.9000      7.0680     28.2390      1.5900     78.3900
    190      3.5010      6.1920     28.4120      0.0100     78.3900
    191      3.0510      6.8890     25.9600      1.7700     78.3900
    192      2.1770      7.1680     25.3300      0.0100     78.3900
    193      3.1850      5.4410     26.0500      1.5900     78.3900
    194      2.0930      4.6370     26.8570      2.1000     78.3900
    195      2.2030      5.0290     28.2830      1.5900     78.3900
    196      0.7560      4.7960     26.2440      1.5900     78.3900
    197      2.5380      3.1250     26.7610      1.5900     78.3900
    198      1.9730      2.2380     27.7740      1.7700     78.3900
    199      0.9120      2.4900     28.0240      0.0100     78.3900
    200      2.5690      2.3050     28.7150      0.0100     78.3900
    201      1.9640      0.7770     27.3200      1.7700     78.3900
    202      1.5280      0.1160     28.1000      0.0100     78.3900
    203      1.1370      0.6450     26.1310      1.5900     78.3900
    204      1.7650     -0.2410     25.2190      1.7700     78.3900
    205      1.0160     -1.0150     24.9450      0.0100     78.3900
    206      2.2190      0.4550     24.0100      1.6800     78.3900
    207      2.6360     -0.1320     22.8440      1.7700     78.3900
    208      3.1630     -2.9710     20.9210      1.6800     78.3900
    209      2.9770     -3.7140     21.5600      0.0100     78.3900
    210      3.4880     -3.1860     19.9950      0.0100     78.3900
    211      2.6690     -1.4540     22.5930      1.6800     78.3900
    212      3.0450     -1.7260     21.3440      1.7700     78.3900
    213      3.3730     -0.7580     20.4370      1.6800     78.3900
    214      3.6040     -1.0440     19.4970      0.0100     78.3900
    215      3.3710      0.6090     20.6720      1.7700     78.3900
    216      3.6940      1.3810     19.7650      1.5900     78.3900
    217      2.9980      0.9080     22.0140      1.7700     78.3900
    218      2.8490      2.1260     22.6670      1.6800     78.3900
    219      2.3260      1.8120     23.8230      1.7700     78.3900
    220      2.0110      2.5350     24.5770      0.0100     78.3900
    221      2.9250     -0.8860     25.9500      1.7700     78.3900
    222      3.7620     -1.1530     25.2760      0.0100     78.3900
    223      2.4830     -2.0440     26.6280      1.5900     78.3900
    224      3.2140     -2.3410     27.1860      0.0100     78.3900
    225      3.3300      0.2140     26.9190      1.7700     78.3900
    226      3.8620      1.0350     26.3740      0.0100     78.3900
    227      4.0260     -0.2540     28.0970      1.5900     78.3900
    228      5.5830     -0.1100     28.1920      2.1000     78.3900
    229      5.9740      1.2120     27.6580      1.5900     78.3900
    230      6.0140     -0.4050     29.5780      1.5900     78.3900
    231      6.1060     -1.2350     27.2230      1.5900     78.3900
    232      5.9060     -2.6290     27.5500      1.7700     78.3900
    233      4.8300     -2.8550     27.7410      0.0100     78.3900
    234      6.4740     -2.8960     28.4730      0.0100     78.3900
    235      6.3860     -3.5570     26.4210      1.7700     78.3900
    236      6.2970     -4.6240     26.7210      0.0100     78.3900
    237      5.5640     -3.3840     25.2250      1.5900     78.3900
    238      6.3990     -3.4400     24.0690      1.7700     78.3900
    239      5.9720     -4.2360     23.4140      0.0100     78.3900
    240      6.4110     -2.1440     23.3310      1.6800     78.3900
    241      6.0330     -0.9750     23.9430      1.7700     78.3900
    242      5.7340     -1.0680     24.9850      0.0100     78.3900
    243      6.8100     -2.1490     22.0130      1.7700     78.3900
    244      7.1810     -3.1610     21.4410      1.5900     78.3900
    245      6.7660     -0.9260     21.3890      1.6800     78.3900
    246      7.0560     -0.9150     20.4170      0.0100     78.3900
    247      6.3950      0.2790     21.9360      1.7700     78.3900
    248      6.4250      1.3010     21.2530      1.5900     78.3900
    249      5.9950      0.2010     23.3050      1.7700     78.3900
    250      5.6610      1.0980     23.8030      0.0100     78.3900
    251      7.7880     -3.8640     24.5280      1.7700     78.3900
    252      8.5890     -3.4130     23.9000      0.0100     78.3900
    253      7.8960     -5.2800     24.4990      1.5900     78.3900
    254      8.7060     -5.5390     24.9670      0.0100     78.3900
    255      7.8220     -3.3030     25.9460      1.7700     78.3900
    256      7.9900     -2.2040     25.9190      0.0100     78.3900
    257      8.7600     -3.9430     26.8300      1.5900     78.3900
    258      9.6720     -3.8110     26.5110      0.0100     78.3900
    259      8.5040      0.8290     10.7520      0.0100     78.3900
    260      8.2330     -0.0560     10.4230      1.5900     78.3900
    261      9.3950     -0.8830     10.4590      1.7700     78.3900
    262     10.3260     -0.2780     10.5330      0.0100     78.3900
    263      9.3940     -1.4050      9.4770      0.0100     78.3900
    264      9.3490     -1.9420     11.5660      1.7700     78.3900
    265      9.8800     -2.8600     11.2300      0.0100     78.3900
    266     10.0140     -1.4860     12.7780      1.5900     78.3900
    267      9.3680     -2.0820     13.9040      1.7700     78.3900
    268     10.1290     -2.6860     14.4500      0.0100     78.3900
    269      8.8150     -1.0580     14.7930      1.6800     78.3900
    270      8.0090      0.0320     16.5220      1.7700     78.3900
    271      8.0780      0.9410     15.4830      1.6800     78.3900
    272      8.5710      0.2590     14.4880      1.7700     78.3900
    273      8.8040      0.6670     13.5010      0.0100     78.3900
    274      7.6390     -0.9570     18.6370      1.6800     78.3900
    275      7.9940     -2.1130     18.0660      1.7700     78.3900
    276      7.9750     -2.9870     18.7290      0.0100     78.3900
    277      8.4460     -2.3460     16.8280      1.6800     78.3900
    278      8.4320     -1.2160     16.1020      1.7700     78.3900
    279      7.6450      0.1690     17.8770      1.7700     78.3900
    280      7.3260      1.3530     18.4320      1.6800     78.3900
    281      7.1540      2.1640     17.8430      0.0100     78.3900
    282      6.9860      1.3860     19.3740      0.0100     78.3900
    283      8.2890     -3.0010     13.3740      1.7700     78.3900
    284      7.3980     -3.0430     14.0350      0.0100     78.3900
    285      8.7930     -4.3060     13.1740      1.5900     78.3900
    286      8.0810     -4.8070     12.7520      0.0100     78.3900
    287      7.9550     -2.3270     12.0550      1.7700     78.3900
    288      7.3870     -1.3830     12.2500      0.0100     78.3900
    289      7.3410     -3.1800     11.0740      1.5900     78.3900
    290      5.7750     -3.1560     10.9880      2.1000     78.3900
    291      5.2730     -1.7650     11.0420      1.5900     78.3900
    292      5.3690     -4.0020      9.8500      1.5900     78.3900
    293      5.3280     -3.8780     12.3080      1.5900     78.3900
    294      5.6120     -5.2870     12.4750      1.7700     78.3900
    295      6.6860     -5.5170     12.2740      0.0100     78.3900
    296      5.0010     -5.8960     11.7680      0.0100     78.3900
    297      5.2820     -5.7470     13.8950      1.7700     78.3900
    298      5.6140     -6.7930     14.0520      0.0100     78.3900
    299      5.9700     -4.9200     14.8790      1.5900     78.3900
    300      5.1080     -4.7050     15.9870      1.7700     78.3900
    301      5.6730     -5.1020     16.8630      0.0100     78.3900
    302      4.7980     -3.2690     16.2370      1.6800     78.3900
    303      4.9480     -2.3470     15.2270      1.7700     78.3900
    304      5.3040     -2.7430     14.2770      0.0100     78.3900
    305      4.7080     -1.0440     15.4240      1.7700     78.3900
    306      4.8670     -0.3020     14.6430      0.0100     78.3900
    307      4.3600     -2.8530     17.4940      1.7700     78.3900
    308      4.2320     -3.6880     18.4030      1.5900     78.3900
    309      4.0930     -1.5430     17.7060      1.6800     78.3900
    310      4.2620     -0.6410     16.7200      1.7700     78.3900
    311      4.0060      0.6470     16.9620      1.6800     78.3900
    312      3.8640      0.9100     17.9200      0.0100     78.3900
    313      4.2400      1.3550     16.3060      0.0100     78.3900
    314      3.8670     -5.5610     15.7780      1.7700     78.3900
    315      2.9430     -5.1020     16.1930      0.0100     78.3900
    316      4.0780     -6.8360     16.3510      1.5900     78.3900
    317      3.3510     -7.3810     16.0310      0.0100     78.3900
    318      3.7910     -5.6650     14.2530      1.7700     78.3900
    319      3.4070     -4.7150     13.8200      0.0100     78.3900
    320      3.1040     -6.8350     13.7370      1.5900     78.3900
    321      1.5710     -6.7970     13.3850      2.1000     78.3900
    322      1.2570     -5.6490     12.5030      1.5900     78.3900
    323      1.2020     -8.1410     12.8860      1.5900     78.3900
    324      0.8990     -6.5910     14.7910      1.5900     78.3900
    325      0.9000     -7.6620     15.7650      1.7700     78.3900
    326      1.9270     -8.0200     15.9900      0.0100     78.3900
    327      0.3370     -8.5330     15.3700      0.0100     78.3900
    328      0.2260     -7.2690     17.0930      1.7700     78.3900
    329      0.1810     -8.1640     17.7460      0.0100     78.3900
    330      1.0060     -6.2990     17.8310      1.5900     78.3900
    331      0.1330     -5.5390     18.6540      1.7700     78.3900
    332      0.4210     -5.7940     19.6990      0.0100     78.3900
    333      0.2960     -4.0950     18.4590      1.6800     78.3900
    334      0.4390     -3.3900     17.2870      1.7700     78.3900
    335      0.8440     -3.3000     13.8750      1.6800     78.3900
    336      1.1420     -2.6670     13.1740      0.0100     78.3900
    337      0.5990     -4.2340     13.6060      0.0100     78.3900
    338      0.4520     -3.8900     16.0440      1.6800     78.3900
    339      0.7200     -2.9860     15.1280      1.7700     78.3900
    340      0.8710     -1.6640     15.3970      1.6800     78.3900
    341      0.9900     -1.0150     14.6400      0.0100     78.3900
    342      0.7710     -1.1090     16.6490      1.7700     78.3900
    343      0.8980      0.1030     16.7620      1.5900     78.3900
    344      0.5630     -2.0750     17.6630      1.7700     78.3900
    345      0.4830     -1.9420     19.0370      1.6800     78.3900
    346      0.3180     -3.1670     19.4700      1.7700     78.3900
    347      0.2060     -3.4470     20.5210      0.0100     78.3900
    348     -1.2990     -5.9930     18.3940      1.7700     78.3900
    349     -2.0120     -5.1420     18.3210      0.0100     78.3900
    350     -1.7170     -6.8740     19.4210      1.5900     78.3900
    351     -2.5690     -7.2490     19.1480      0.0100     78.3900
    352     -1.1830     -6.6990     17.0340      1.7700     78.3900
    353     -1.1810     -5.9570     16.2060      0.0100     78.3900
    354     -2.1110     -7.7800     16.8110      1.5900     78.3900
    355     -3.5840     -7.5090     16.3620      2.1000     78.3900
    356     -4.2650     -8.8160     16.2070      1.5900     78.3900
    357     -4.1930     -6.5180     17.2720      1.5900     78.3900
    358     -3.3910     -6.8560     14.9400      1.5900     78.3900
    359     -4.4470     -6.9510     13.9570      1.7700     78.3900
    360     -5.4470     -6.7420     14.4110      0.0100     78.3900
    361     -4.4800     -7.9790     13.5330      0.0100     78.3900
    362     -4.2700     -5.9680     12.7820      1.7700     78.3900
    363     -5.0660     -6.1660     12.0330      0.0100     78.3900
    364     -4.4250     -4.6110     13.2450      1.5900     78.3900
    365     -3.1850     -3.9250     13.1710      1.7700     78.3900
    366     -3.2700     -3.2190     12.3130      0.0100     78.3900
    367     -2.9510     -3.1950     14.4230      1.6800     78.3900
    368     -2.6260     -1.5900     15.8920      1.7700     78.3900
    369     -2.8370     -2.7480     16.6270      1.6800     78.3900
    370     -3.0360     -3.6670     15.7120      1.7700     78.3900
    371     -3.2680     -4.7100     15.9250      0.0100     78.3900
    372     -2.2730      0.6630     15.2810      1.6800     78.3900
    373     -2.3770      0.2530     14.0160      1.7700     78.3900
    374     -2.2600      1.0290     13.2530      0.0100     78.3900
    375     -2.5500     -0.9810     13.5360      1.6800     78.3900
    376     -2.6970     -1.8570     14.5360      1.7700     78.3900
    377     -2.3970     -0.2490     16.2740      1.7700     78.3900
    378     -2.2870      0.1360     17.5590      1.6800     78.3900
    379     -2.4740     -0.4910     18.3110      0.0100     78.3900
    380     -2.1090      1.1110     17.7900      0.0100     78.3900
    381     -2.1070     -4.9380     12.8540      1.7700     78.3900
    382     -1.7000     -5.3930     13.7870      0.0100     78.3900
    383     -1.0640     -4.3840     12.0740      1.5900     78.3900
    384     -0.3090     -5.0070     12.0680      0.0100     78.3900
    385     -2.9020     -5.9860     12.0750      1.7700     78.3900
    386     -2.4410     -6.9750     12.2900      0.0100     78.3900
    387     -3.0320     -5.7040     10.6520      1.5900     78.3900
    388     -2.9080     -6.8970      9.6290      2.1000     78.3900
    389     -2.0410     -7.9660     10.1810      1.5900     78.3900
    390     -4.2710     -7.3020      9.2240      1.5900     78.3900
    391     -2.2140     -6.2650      8.3740      1.5900     78.3900
    392     -0.8240     -5.8950      8.3500      1.7700     78.3900
    393     -0.1820     -6.7590      8.6350      0.0100     78.3900
    394     -0.6310     -5.0720      9.0810      0.0100     78.3900
    395     -0.4350     -5.4640      6.9200      1.7700     78.3900
    396     -0.5680     -6.3070      6.2130      0.0100     78.3900
    397     -1.2530     -4.3320      6.4890      1.5900     78.3900
    398     -0.5050     -3.1320      6.6050      1.7700     78.3900
    399     -0.3100     -2.7860      5.5620      0.0100     78.3900
    400     -1.2800     -2.0860      7.3360      1.6800     78.3900
    401     -1.0290     -1.4180      8.5170      1.7700     78.3900
    402      1.0960     -0.7970     11.1260      1.6800     78.3900
    403      1.2020     -0.1620     11.8920      0.0100     78.3900
    404      1.9010     -1.2380     10.7430      0.0100     78.3900
    405      0.0380     -1.5720      9.3010      1.6800     78.3900
    406      0.0480     -0.7930     10.3410      1.7700     78.3900
    407     -0.9760      0.0530     10.6460      1.6800     78.3900
    408     -0.7740      0.7580     11.3300      0.0100     78.3900
    409     -2.0740      0.3090      9.8380      1.7700     78.3900
    410     -2.9150      1.1590     10.1490      1.5900     78.3900
    411     -2.0880     -0.5490      8.7000      1.7700     78.3900
    412     -3.0130     -0.6740      7.6710      1.6800     78.3900
    413     -2.4900     -1.5950      6.8900      1.7700     78.3900
    414     -2.9510     -1.9690      5.9730      0.0100     78.3900
    415      0.8290     -3.5090      7.2380      1.7700     78.3900
    416      0.7970     -3.5080      8.3430      0.0100     78.3900
    417      1.8810     -2.7120      6.7630      1.5900     78.3900
    418      1.9000     -2.8180      5.8090      0.0100     78.3900
    419      1.0110     -4.9510      6.8350      1.7700     78.3900
    420      1.5940     -5.4690      7.6480      0.0100     78.3900
    421      1.6030     -5.1230      5.5200      1.5900     78.3900
    422      3.0730     -5.6890      5.4620      2.1000     78.3900
    423      3.8320     -5.3090      6.6670      1.5900     78.3900
    424      3.0020     -7.1350      5.1680      1.5900     78.3900
    425      3.7350     -4.9810      4.2340      1.5900     78.3900
    426      3.9570     -3.5690      4.0890      1.7700     78.3900
    427      5.0450     -3.3560      4.2060      0.0100     78.3900
    428      3.4380     -2.9750      4.8690      0.0100     78.3900
    429      3.4870     -3.0520      2.7160      1.7700     78.3900
    430      3.5410     -1.9410      2.7070      0.0100     78.3900
    431      4.3470     -3.5480      1.6490      1.5900     78.3900
    432      3.6270     -4.4430      0.8160      1.7700     78.3900
    433      3.3680     -3.8500     -0.0950      0.0100     78.3900
    434      4.4610     -5.6340      0.5090      1.6800     78.3900
    435      5.0370     -6.3440      1.5370      1.7700     78.3900
    436      4.8830     -5.9350      2.5340      0.0100     78.3900
    437      4.6560     -6.0030     -0.8010      1.7700     78.3900
    438      4.1520     -5.4000     -1.7400      1.5900     78.3900
    439      5.4690     -7.0980     -0.9780      1.6800     78.3900
    440      5.6250     -7.3790     -1.9360      0.0100     78.3900
    441      6.1090     -7.8340     -0.0030      1.7700     78.3900
    442      6.8650     -8.7550     -0.3160      1.5900     78.3900
    443      5.8310     -7.4060      1.3330      1.7700     78.3900
    444      6.3340     -7.9110      2.1570      0.0100     78.3900
    445      2.3370     -4.7970      1.5380      1.7700     78.3900
    446      2.5050     -5.6340      2.2500      0.0100     78.3900
    447      1.2810     -5.1340      0.6570      1.5900     78.3900
    448      1.0220     -4.3250      0.1890      0.0100     78.3900
    449      2.0670     -3.5100      2.3220      1.7700     78.3900
    450      1.5380     -3.7580      3.2710      0.0100     78.3900
    451      1.3810     -2.4880      1.5740      1.5900     78.3900
    452     -0.1460     -2.1760      1.7770      2.1000     78.3900
    453     -0.8270     -2.4650      0.4970      1.5900     78.3900
    454     -0.6880     -2.8370      2.9810      1.5900     78.3900
    455     -0.1640     -0.6170      2.0260      1.5900     78.3900
    456     -1.3240      0.1210      1.5580      1.7700     78.3900
    457     -2.2730     -0.4580      1.6780      0.0100     78.3900
    458     -1.2040      0.3440      0.4750      0.0100     78.3900
    459     -1.5140      1.4460      2.3050      1.7700     78.3900
    460     -2.3760      2.0110      1.8900      0.0100     78.3900
    461     -1.8190      1.1690      3.7030      1.5900     78.3900
    462     -1.1950      2.1510      4.5230      1.7700     78.3900
    463     -1.9880      2.6020      5.1590      0.0100     78.3900
    464     -0.1640      1.5630      5.3800      1.6800     78.3900
    465      0.4680      2.1620      6.4430      1.7700     78.3900
    466      1.0280      4.9230      8.4700      1.6800     78.3900
    467      0.4710      5.6330      8.0430      0.0100     78.3900
    468      1.6460      5.1730      9.2230      0.0100     78.3900
    469      0.2460      3.4090      6.9060      1.6800     78.3900
    470      1.0390      3.7150      7.9320      1.7700     78.3900
    471      1.9170      2.8270      8.4880      1.6800     78.3900
    472      2.4140      3.0910      9.3260      0.0100     78.3900
    473      2.1340      1.5280      8.0620      1.7700     78.3900
    474      2.9580      0.8210      8.6430      1.5900     78.3900
    475      1.3710      1.2270      6.9020      1.7700     78.3900
    476      1.3470      0.0910      6.1090      1.6800     78.3900
    477      0.3980      0.3170      5.2420      1.7700     78.3900
    478      0.0630     -0.3830      4.4730      0.0100     78.3900
    479     -0.6060      3.2020      3.6050      1.7700     78.3900
    480      0.3170      3.6600      4.0160      0.0100     78.3900
    481     -1.5610      4.2130      3.3550      1.5900     78.3900
    482     -1.1750      4.8010      2.6930      0.0100     78.3900
    483     -0.3000      2.3870      2.3530      1.7700     78.3900
    484      0.5880      1.7360      2.5300      0.0100     78.3900
    485     -0.2130      3.1620      1.1310      1.5900     78.3900
    486      1.1940      3.4970      0.5080      2.1000     78.3900
    487      2.1030      2.3450      0.6660      1.5900     78.3900
    488      0.9970      3.9950     -0.8720      1.5900     78.3900
    489      1.7230      4.6600      1.4290      1.5900     78.3900
    490      1.0180      5.9200      1.4830      1.7700     78.3900
    491     -0.0630      5.7830      1.7150      0.0100     78.3900
    492      1.0920      6.4350      0.5000      0.0100     78.3900
    493      1.6300      6.8560      2.5340      1.7700     78.3900
    494      1.1680      7.8640      2.4870      0.0100     78.3900
    495      1.3870      6.3310      3.8730      1.5900     78.3900
    496      2.5370      6.5550      4.6810      1.7700     78.3900
    497      2.1800      7.1360      5.5630      0.0100     78.3900
    498      3.1610      5.2770      5.1360      1.6800     78.3900
    499      2.9230      4.0870      4.4860      1.7700     78.3900
    500      2.2530      4.1530      3.6290      0.0100     78.3900
    501      4.0180      5.3310      6.2140      1.7700     78.3900
    502      4.2940      6.3720      6.7860      1.5900     78.3900
    503      4.5510      4.1250      6.5880      1.6800     78.3900
    504      5.1700      4.1580      7.3920      0.0100     78.3900
    505      4.3770      2.9040      5.9810      1.7700     78.3900
    506      4.9880      1.9250      6.4020      1.5900     78.3900
    507      3.4680      2.9220      4.8700      1.7700     78.3900
    508      3.2520      1.9930      4.3470      0.0100     78.3900
    509      3.4980      7.4220      3.8770      1.7700     78.3900
    510      4.5620      7.1850      4.1060      0.0100     78.3900
    511      3.2400      8.7990      4.1180      1.5900     78.3900
    512      3.7440      9.3330      3.4780      0.0100     78.3900
    513      3.1550      7.0120      2.4540      1.7700     78.3900
    514      3.6020      6.0200      2.2280      0.0100     78.3900
    515      3.5280      7.9800      1.4550      1.5900     78.3900
    516      4.4970      8.0580      1.4140      0.0100     78.3900

     ----------------------------
     INPUT FOR TESSERA DEFINITION
     ----------------------------
     NTSALL  =        60     MTHALL  =         4
     MTHAUT  =         0     AUTFRE  =    2.0000
     NTSFRZ  =        60     KEEPSM  =         0
     AREAKP  =   10.0000     BONDRY  =    1.0000
     AREATL  =    0.0100

     SPHERE     INITS       METHOD
          1        60       FIXPVA
          2        60       FIXPVA
          3        60       FIXPVA
          4        60       FIXPVA
          5        60       FIXPVA
          6        60       FIXPVA
          7        60       FIXPVA
          8        60       FIXPVA
          9        60       FIXPVA
         10        60       FIXPVA
         11        60       FIXPVA
         12        60       FIXPVA
         13        60       FIXPVA
         14        60       FIXPVA
         15        60       FIXPVA
         16        60       FIXPVA
         17        60       FIXPVA
         18        60       FIXPVA
         19        60       FIXPVA
         20        60       FIXPVA
         21        60       FIXPVA
         22        60       FIXPVA
         23        60       FIXPVA
         24        60       FIXPVA
         25        60       FIXPVA
         26        60       FIXPVA
         27        60       FIXPVA
         28        60       FIXPVA
         29        60       FIXPVA
         30        60       FIXPVA
         31        60       FIXPVA
         32        60       FIXPVA
         33        60       FIXPVA
         34        60       FIXPVA
         35        60       FIXPVA
         36        60       FIXPVA
         37        60       FIXPVA
         38        60       FIXPVA
         39        60       FIXPVA
         40        60       FIXPVA
         41        60       FIXPVA
         42        60       FIXPVA
         43        60       FIXPVA
         44        60       FIXPVA
         45        60       FIXPVA
         46        60       FIXPVA
         47        60       FIXPVA
         48        60       FIXPVA
         49        60       FIXPVA
         50        60       FIXPVA
         51        60       FIXPVA
         52        60       FIXPVA
         53        60       FIXPVA
         54        60       FIXPVA
         55        60       FIXPVA
         56        60       FIXPVA
         57        60       FIXPVA
         58        60       FIXPVA
         59        60       FIXPVA
         60        60       FIXPVA
         61        60       FIXPVA
         62        60       FIXPVA
         63        60       FIXPVA
         64        60       FIXPVA
         65        60       FIXPVA
         66        60       FIXPVA
         67        60       FIXPVA
         68        60       FIXPVA
         69        60       FIXPVA
         70        60       FIXPVA
         71        60       FIXPVA
         72        60       FIXPVA
         73        60       FIXPVA
         74        60       FIXPVA
         75        60       FIXPVA
         76        60       FIXPVA
         77        60       FIXPVA
         78        60       FIXPVA
         79        60       FIXPVA
         80        60       FIXPVA
         81        60       FIXPVA
         82        60       FIXPVA
         83        60       FIXPVA
         84        60       FIXPVA
         85        60       FIXPVA
         86        60       FIXPVA
         87        60       FIXPVA
         88        60       FIXPVA
         89        60       FIXPVA
         90        60       FIXPVA
         91        60       FIXPVA
         92        60       FIXPVA
         93        60       FIXPVA
         94        60       FIXPVA
         95        60       FIXPVA
         96        60       FIXPVA
         97        60       FIXPVA
         98        60       FIXPVA
         99        60       FIXPVA
        100        60       FIXPVA
        101        60       FIXPVA
        102        60       FIXPVA
        103        60       FIXPVA
        104        60       FIXPVA
        105        60       FIXPVA
        106        60       FIXPVA
        107        60       FIXPVA
        108        60       FIXPVA
        109        60       FIXPVA
        110        60       FIXPVA
        111        60       FIXPVA
        112        60       FIXPVA
        113        60       FIXPVA
        114        60       FIXPVA
        115        60       FIXPVA
        116        60       FIXPVA
        117        60       FIXPVA
        118        60       FIXPVA
        119        60       FIXPVA
        120        60       FIXPVA
        121        60       FIXPVA
        122        60       FIXPVA
        123        60       FIXPVA
        124        60       FIXPVA
        125        60       FIXPVA
        126        60       FIXPVA
        127        60       FIXPVA
        128        60       FIXPVA
        129        60       FIXPVA
        130        60       FIXPVA
        131        60       FIXPVA
        132        60       FIXPVA
        133        60       FIXPVA
        134        60       FIXPVA
        135        60       FIXPVA
        136        60       FIXPVA
        137        60       FIXPVA
        138        60       FIXPVA
        139        60       FIXPVA
        140        60       FIXPVA
        141        60       FIXPVA
        142        60       FIXPVA
        143        60       FIXPVA
        144        60       FIXPVA
        145        60       FIXPVA
        146        60       FIXPVA
        147        60       FIXPVA
        148        60       FIXPVA
        149        60       FIXPVA
        150        60       FIXPVA
        151        60       FIXPVA
        152        60       FIXPVA
        153        60       FIXPVA
        154        60       FIXPVA
        155        60       FIXPVA
        156        60       FIXPVA
        157        60       FIXPVA
        158        60       FIXPVA
        159        60       FIXPVA
        160        60       FIXPVA
        161        60       FIXPVA
        162        60       FIXPVA
        163        60       FIXPVA
        164        60       FIXPVA
        165        60       FIXPVA
        166        60       FIXPVA
        167        60       FIXPVA
        168        60       FIXPVA
        169        60       FIXPVA
        170        60       FIXPVA
        171        60       FIXPVA
        172        60       FIXPVA
        173        60       FIXPVA
        174        60       FIXPVA
        175        60       FIXPVA
        176        60       FIXPVA
        177        60       FIXPVA
        178        60       FIXPVA
        179        60       FIXPVA
        180        60       FIXPVA
        181        60       FIXPVA
        182        60       FIXPVA
        183        60       FIXPVA
        184        60       FIXPVA
        185        60       FIXPVA
        186        60       FIXPVA
        187        60       FIXPVA
        188        60       FIXPVA
        189        60       FIXPVA
        190        60       FIXPVA
        191        60       FIXPVA
        192        60       FIXPVA
        193        60       FIXPVA
        194        60       FIXPVA
        195        60       FIXPVA
        196        60       FIXPVA
        197        60       FIXPVA
        198        60       FIXPVA
        199        60       FIXPVA
        200        60       FIXPVA
        201        60       FIXPVA
        202        60       FIXPVA
        203        60       FIXPVA
        204        60       FIXPVA
        205        60       FIXPVA
        206        60       FIXPVA
        207        60       FIXPVA
        208        60       FIXPVA
        209        60       FIXPVA
        210        60       FIXPVA
        211        60       FIXPVA
        212        60       FIXPVA
        213        60       FIXPVA
        214        60       FIXPVA
        215        60       FIXPVA
        216        60       FIXPVA
        217        60       FIXPVA
        218        60       FIXPVA
        219        60       FIXPVA
        220        60       FIXPVA
        221        60       FIXPVA
        222        60       FIXPVA
        223        60       FIXPVA
        224        60       FIXPVA
        225        60       FIXPVA
        226        60       FIXPVA
        227        60       FIXPVA
        228        60       FIXPVA
        229        60       FIXPVA
        230        60       FIXPVA
        231        60       FIXPVA
        232        60       FIXPVA
        233        60       FIXPVA
        234        60       FIXPVA
        235        60       FIXPVA
        236        60       FIXPVA
        237        60       FIXPVA
        238        60       FIXPVA
        239        60       FIXPVA
        240        60       FIXPVA
        241        60       FIXPVA
        242        60       FIXPVA
        243        60       FIXPVA
        244        60       FIXPVA
        245        60       FIXPVA
        246        60       FIXPVA
        247        60       FIXPVA
        248        60       FIXPVA
        249        60       FIXPVA
        250        60       FIXPVA
        251        60       FIXPVA
        252        60       FIXPVA
        253        60       FIXPVA
        254        60       FIXPVA
        255        60       FIXPVA
        256        60       FIXPVA
        257        60       FIXPVA
        258        60       FIXPVA
        259        60       FIXPVA
        260        60       FIXPVA
        261        60       FIXPVA
        262        60       FIXPVA
        263        60       FIXPVA
        264        60       FIXPVA
        265        60       FIXPVA
        266        60       FIXPVA
        267        60       FIXPVA
        268        60       FIXPVA
        269        60       FIXPVA
        270        60       FIXPVA
        271        60       FIXPVA
        272        60       FIXPVA
        273        60       FIXPVA
        274        60       FIXPVA
        275        60       FIXPVA
        276        60       FIXPVA
        277        60       FIXPVA
        278        60       FIXPVA
        279        60       FIXPVA
        280        60       FIXPVA
        281        60       FIXPVA
        282        60       FIXPVA
        283        60       FIXPVA
        284        60       FIXPVA
        285        60       FIXPVA
        286        60       FIXPVA
        287        60       FIXPVA
        288        60       FIXPVA
        289        60       FIXPVA
        290        60       FIXPVA
        291        60       FIXPVA
        292        60       FIXPVA
        293        60       FIXPVA
        294        60       FIXPVA
        295        60       FIXPVA
        296        60       FIXPVA
        297        60       FIXPVA
        298        60       FIXPVA
        299        60       FIXPVA
        300        60       FIXPVA
        301        60       FIXPVA
        302        60       FIXPVA
        303        60       FIXPVA
        304        60       FIXPVA
        305        60       FIXPVA
        306        60       FIXPVA
        307        60       FIXPVA
        308        60       FIXPVA
        309        60       FIXPVA
        310        60       FIXPVA
        311        60       FIXPVA
        312        60       FIXPVA
        313        60       FIXPVA
        314        60       FIXPVA
        315        60       FIXPVA
        316        60       FIXPVA
        317        60       FIXPVA
        318        60       FIXPVA
        319        60       FIXPVA
        320        60       FIXPVA
        321        60       FIXPVA
        322        60       FIXPVA
        323        60       FIXPVA
        324        60       FIXPVA
        325        60       FIXPVA
        326        60       FIXPVA
        327        60       FIXPVA
        328        60       FIXPVA
        329        60       FIXPVA
        330        60       FIXPVA
        331        60       FIXPVA
        332        60       FIXPVA
        333        60       FIXPVA
        334        60       FIXPVA
        335        60       FIXPVA
        336        60       FIXPVA
        337        60       FIXPVA
        338        60       FIXPVA
        339        60       FIXPVA
        340        60       FIXPVA
        341        60       FIXPVA
        342        60       FIXPVA
        343        60       FIXPVA
        344        60       FIXPVA
        345        60       FIXPVA
        346        60       FIXPVA
        347        60       FIXPVA
        348        60       FIXPVA
        349        60       FIXPVA
        350        60       FIXPVA
        351        60       FIXPVA
        352        60       FIXPVA
        353        60       FIXPVA
        354        60       FIXPVA
        355        60       FIXPVA
        356        60       FIXPVA
        357        60       FIXPVA
        358        60       FIXPVA
        359        60       FIXPVA
        360        60       FIXPVA
        361        60       FIXPVA
        362        60       FIXPVA
        363        60       FIXPVA
        364        60       FIXPVA
        365        60       FIXPVA
        366        60       FIXPVA
        367        60       FIXPVA
        368        60       FIXPVA
        369        60       FIXPVA
        370        60       FIXPVA
        371        60       FIXPVA
        372        60       FIXPVA
        373        60       FIXPVA
        374        60       FIXPVA
        375        60       FIXPVA
        376        60       FIXPVA
        377        60       FIXPVA
        378        60       FIXPVA
        379        60       FIXPVA
        380        60       FIXPVA
        381        60       FIXPVA
        382        60       FIXPVA
        383        60       FIXPVA
        384        60       FIXPVA
        385        60       FIXPVA
        386        60       FIXPVA
        387        60       FIXPVA
        388        60       FIXPVA
        389        60       FIXPVA
        390        60       FIXPVA
        391        60       FIXPVA
        392        60       FIXPVA
        393        60       FIXPVA
        394        60       FIXPVA
        395        60       FIXPVA
        396        60       FIXPVA
        397        60       FIXPVA
        398        60       FIXPVA
        399        60       FIXPVA
        400        60       FIXPVA
        401        60       FIXPVA
        402        60       FIXPVA
        403        60       FIXPVA
        404        60       FIXPVA
        405        60       FIXPVA
        406        60       FIXPVA
        407        60       FIXPVA
        408        60       FIXPVA
        409        60       FIXPVA
        410        60       FIXPVA
        411        60       FIXPVA
        412        60       FIXPVA
        413        60       FIXPVA
        414        60       FIXPVA
        415        60       FIXPVA
        416        60       FIXPVA
        417        60       FIXPVA
        418        60       FIXPVA
        419        60       FIXPVA
        420        60       FIXPVA
        421        60       FIXPVA
        422        60       FIXPVA
        423        60       FIXPVA
        424        60       FIXPVA
        425        60       FIXPVA
        426        60       FIXPVA
        427        60       FIXPVA
        428        60       FIXPVA
        429        60       FIXPVA
        430        60       FIXPVA
        431        60       FIXPVA
        432        60       FIXPVA
        433        60       FIXPVA
        434        60       FIXPVA
        435        60       FIXPVA
        436        60       FIXPVA
        437        60       FIXPVA
        438        60       FIXPVA
        439        60       FIXPVA
        440        60       FIXPVA
        441        60       FIXPVA
        442        60       FIXPVA
        443        60       FIXPVA
        444        60       FIXPVA
        445        60       FIXPVA
        446        60       FIXPVA
        447        60       FIXPVA
        448        60       FIXPVA
        449        60       FIXPVA
        450        60       FIXPVA
        451        60       FIXPVA
        452        60       FIXPVA
        453        60       FIXPVA
        454        60       FIXPVA
        455        60       FIXPVA
        456        60       FIXPVA
        457        60       FIXPVA
        458        60       FIXPVA
        459        60       FIXPVA
        460        60       FIXPVA
        461        60       FIXPVA
        462        60       FIXPVA
        463        60       FIXPVA
        464        60       FIXPVA
        465        60       FIXPVA
        466        60       FIXPVA
        467        60       FIXPVA
        468        60       FIXPVA
        469        60       FIXPVA
        470        60       FIXPVA
        471        60       FIXPVA
        472        60       FIXPVA
        473        60       FIXPVA
        474        60       FIXPVA
        475        60       FIXPVA
        476        60       FIXPVA
        477        60       FIXPVA
        478        60       FIXPVA
        479        60       FIXPVA
        480        60       FIXPVA
        481        60       FIXPVA
        482        60       FIXPVA
        483        60       FIXPVA
        484        60       FIXPVA
        485        60       FIXPVA
        486        60       FIXPVA
        487        60       FIXPVA
        488        60       FIXPVA
        489        60       FIXPVA
        490        60       FIXPVA
        491        60       FIXPVA
        492        60       FIXPVA
        493        60       FIXPVA
        494        60       FIXPVA
        495        60       FIXPVA
        496        60       FIXPVA
        497        60       FIXPVA
        498        60       FIXPVA
        499        60       FIXPVA
        500        60       FIXPVA
        501        60       FIXPVA
        502        60       FIXPVA
        503        60       FIXPVA
        504        60       FIXPVA
        505        60       FIXPVA
        506        60       FIXPVA
        507        60       FIXPVA
        508        60       FIXPVA
        509        60       FIXPVA
        510        60       FIXPVA
        511        60       FIXPVA
        512        60       FIXPVA
        513        60       FIXPVA
        514        60       FIXPVA
        515        60       FIXPVA
        516        60       FIXPVA

     ------------------------------
      FIXPVA TESSELLATION FOR PCM
         PEIFENG SU AND HUI LI
     UNIVERSITY OF NEBRASKA-LINCOLN
     ------------------------------


 PCM DIMENSIONS: MXSP=   516, MXTS=     20640, MEMORY=        212079

     INPUT FOR CAVITY DEFINITION 
     ---------------------------
   ATOM               COORDINATES                RADIUS       EPS
      1     10.8920      2.0600     15.8330      0.0100     78.3900
      2     10.5380      2.7220     15.2090      1.5900     78.3900
      3     10.8960      4.0030     15.7370      1.7700     78.3900
      4     11.9930      4.1470     15.6010      0.0100     78.3900
      5     10.6820      4.0270     16.8270      0.0100     78.3900
      6     10.1490      5.1600     15.0680      1.7700     78.3900
      7     10.5010      6.1290     15.4800      0.0100     78.3900
      8     10.4140      5.1780     13.6350      1.5900     78.3900
      9      9.2400      5.5940     12.9520      1.7700     78.3900
     10      9.5230      6.4840     12.3410      0.0100     78.3900
     11      8.7510      4.5470     12.0680      1.6800     78.3900
     12      7.7780      3.4060     10.4640      1.7700     78.3900
     13      8.5460      2.5040     11.1880      1.6800     78.3900
     14      9.0980      3.2250     12.1240      1.7700     78.3900
     15      9.7860      2.8530     12.8880      0.0100     78.3900
     16      6.2970      4.3560      8.8830      1.6800     78.3900
     17      6.4840      5.5150      9.5250      1.7700     78.3900
     18      5.9330      6.3690      9.1120      0.0100     78.3900
     19      7.2620      5.7840     10.5800      1.6800     78.3900
     20      7.8890      4.6740     11.0030      1.7700     78.3900
     21      6.9460      3.2530      9.3330      1.7700     78.3900
     22      6.7630      2.0800      8.6960      1.6800     78.3900
     23      7.1070      1.2240      9.0900      0.0100     78.3900
     24      6.0880      2.0120      7.9560      0.0100     78.3900
     25      8.2230      5.9860     13.9900      1.7700     78.3900
     26      7.1770      5.7920     13.6720      0.0100     78.3900
     27      8.3970      7.3550     14.2890      1.5900     78.3900
     28      7.8180      7.5380     15.0370      0.0100     78.3900
     29      8.6150      5.1110     15.1750      1.7700     78.3900
     30      8.3110      4.0500     15.0090      0.0100     78.3900
     31      8.1930      5.6190     16.4610      1.5900     78.3900
     32      6.8110      5.1740     17.0670      2.1000     78.3900
     33      6.7190      3.7000     17.0340      1.5900     78.3900
     34      6.6770      5.8120     18.3910      1.5900     78.3900
     35      5.7410      5.7870     16.0760      1.5900     78.3900
     36      5.5230      7.2210     16.0140      1.7700     78.3900
     37      6.4770      7.7760     15.8820      0.0100     78.3900
     38      5.0730      7.5860     16.9570      0.0100     78.3900
     39      4.5680      7.6300     14.8740      1.7700     78.3900
     40      4.5150      8.7360     14.7800      0.0100     78.3900
     41      5.0430      7.1040     13.6050      1.5900     78.3900
     42      3.9410      6.6910     12.8170      1.7700     78.3900
     43      4.0110      7.3220     11.9070      0.0100     78.3900
     44      4.0120      5.2540     12.4120      1.6800     78.3900
     45      4.7740      4.3570     13.1340      1.7700     78.3900
     46      5.3030      4.7750     13.9930      0.0100     78.3900
     47      4.9010      3.0760     12.7470      1.7700     78.3900
     48      5.5480      2.3660     13.2620      0.0100     78.3900
     49      3.3150      4.8180     11.2860      1.7700     78.3900
     50      2.6490      5.6400     10.6290      1.5900     78.3900
     51      3.4100      3.5260     10.8990      1.6800     78.3900
     52      4.1900      2.6640     11.5780      1.7700     78.3900
     53      4.3050      1.4010     11.1530      1.6800     78.3900
     54      3.8060      1.1010     10.3360      0.0100     78.3900
     55      4.8550      0.7050     11.6040      0.0100     78.3900
     56      2.6640      7.0500     13.5620      1.7700     78.3900
     57      1.8600      6.2890     13.4350      0.0100     78.3900
     58      2.1900      8.3210     13.1570      1.5900     78.3900
     59      1.4260      8.4800     13.7300      0.0100     78.3900
     60      3.1380      7.0960     15.0140      1.7700     78.3900
     61      3.2390      6.0610     15.4110      0.0100     78.3900
     62      2.3720      7.9690     15.8930      1.5900     78.3900
     63      0.9810      7.4120     16.4120      2.1000     78.3900
     64      1.1600      5.9680     16.5530      1.5900     78.3900
     65      0.5820      8.1640     17.6210      1.5900     78.3900
     66     -0.0160      7.7670     15.2250      1.5900     78.3900
     67     -1.3120      7.1150     15.1570      1.7700     78.3900
     68     -2.0580      7.7050     15.7350      0.0100     78.3900
     69     -1.2840      6.0900     15.6000      0.0100     78.3900
     70     -1.8520      6.9710     13.7160      1.7700     78.3900
     71     -2.2460      7.9420     13.3550      0.0100     78.3900
     72     -0.7860      6.6130     12.7890      1.5900     78.3900
     73     -1.2600      5.6470     11.8730      1.7700     78.3900
     74     -1.0190      6.0580     10.8660      0.0100     78.3900
     75     -0.5880      4.3440     12.0370      1.6800     78.3900
     76     -0.1290      3.7070     13.1720      1.7700     78.3900
[...]
   464   15   7.0   0.00    0.0    0.000000   -0.799923   -0.807780
   465   15   6.0   0.00    0.0    0.000025    0.692667    0.695337
   466   15   7.0  10.54   20.6   -0.112203   -0.975738   -1.050217
   467   15   1.0   0.00    0.0    0.000000    0.440368    0.439534
   468   15   1.0   0.00    0.0    0.000000    0.480964    0.527713
   469   15   7.0   5.89   11.5    0.093405   -0.757448   -0.756433
   470   15   6.0   0.00    0.0    0.000000    0.929196    0.935385
   471   15   7.0   0.00    0.0    0.000000   -0.913590   -0.995984
   472   15   1.0   0.00    0.0    0.000000    0.494205    0.551175
   473   15   6.0   0.00    0.0    0.000000    0.876341    0.883518
   474   15   8.0   3.63    7.9    0.119015   -0.735856   -0.746293
   475   15   6.0   0.00    0.0    0.000000   -0.051646   -0.041774
   476   15   7.0   2.91    5.7    0.075432   -0.554788   -0.574761
   477   15   6.0   1.98    3.5    0.009455    0.249404    0.246029
   478   15   1.0   0.00    0.0    0.000000    0.290704    0.301935
   479   15   6.0   0.02    0.0    0.001644    0.134527    0.102560
   480   15   1.0   0.00    0.0    0.000000    0.187661    0.218948
   481   15   8.0  17.62   38.5    0.095186   -0.824175   -0.842321
   482   15   1.0   0.00    0.0    0.000000    0.491960    0.520567
   483   15   6.0   0.11    0.2   -0.001711    0.145244    0.115508
   484   15   1.0   0.00    0.0    0.000000    0.246105    0.245713
   485   15   8.0   4.37    9.6    0.056796   -0.801232   -0.806533
   486   15  15.0   9.25   11.6    0.123027    1.602146    1.654876
   487   15   8.0  14.01   30.6    0.316672   -0.891791   -0.890349
   488   15   8.0  17.76   38.8    0.367192   -0.892405   -0.887081
   489   15   8.0   0.85    1.9    0.016410   -0.970938   -0.784450
   490   16   6.0  12.41   21.9   -0.090210    0.205251   -0.021943
   491   16   1.0   0.00    0.0    0.000000    0.156519    0.172880
   492   16   1.0   0.00    0.0    0.000000    0.239181    0.224214
   493   16   6.0   6.61   11.7   -0.046122    0.087787    0.146777
   494   16   1.0   0.00    0.0    0.000000    0.254617    0.227043
   495   16   8.0   5.28   11.5    0.054191   -0.730243   -0.735905
   496   16   6.0   4.96    8.8   -0.039832    0.419960    0.420399
   497   16   1.0   0.00    0.0    0.000000    0.256380    0.251582
   498   16   7.0   0.01    0.0   -0.000821   -0.832204   -0.838499
   499   16   6.0   1.81    3.2   -0.001004    0.193786    0.184038
   500   16   1.0   0.00    0.0    0.000000    0.300818    0.325864
   501   16   6.0   0.98    1.7   -0.008059    1.111409    1.116709
   502   16   8.0  12.59   27.5    0.169839   -0.679180   -0.688822
   503   16   7.0   1.70    3.3    0.002557   -0.928860   -1.011666
   504   16   1.0   0.00    0.0    0.000000    0.485961    0.537267
   505   16   6.0   2.66    4.7   -0.006443    0.872510    0.887732
   506   16   8.0  10.53   23.0    0.152322   -0.719833   -0.726933
   507   16   6.0   8.11   14.3   -0.026778   -0.442724   -0.444897
   508   16   1.0   0.00    0.0    0.000000    0.270706    0.274152
   509   16   6.0   6.48   11.4   -0.063144    0.117926    0.118623
   510   16   1.0   0.00    0.0    0.000000    0.227026    0.223728
   511   16   8.0  20.87   45.6    0.026201   -0.841891   -0.844837
   512   16   1.0   0.00    0.0    0.000000    0.508201    0.508769
   513   16   6.0   4.24    7.5   -0.042762    0.167440    0.150888
   514   16   1.0   0.00    0.0    0.000000    0.221848    0.223622
   515   16   8.0  22.11   48.3   -0.018772   -0.850021   -0.852466
   516   16   1.0   0.00    0.0    0.000000    0.508680    0.507976

 Done with FMO properties.
 CPU     0: STEP CPU TIME=     0.01 TOTAL CPU TIME=      44500.4 (    741.7 MIN)
 TOTAL WALL CLOCK TIME=      99194.8 SECONDS, CPU UTILIZATION IS    44.86%
 CPU     0: STEP CPU TIME=     0.00 TOTAL CPU TIME=      44500.4 (    741.7 MIN)
 TOTAL WALL CLOCK TIME=      99194.9 SECONDS, CPU UTILIZATION IS    44.86%

 Total timing statistics in pairs (CPU,wall) for each rank, sec

    Rank   total     SCF    corr     DFT    CPHF     EFP    solv     ESP    geom
 -------------------------------------------------------------------------------
       1   44500.4  10065.6  16575.6      0.0    0.0   0.0  350.4 16758.0    0.0
       1   99195.0  21673.3  41745.2      0.0    0.0   0.0  923.9 33157.7    0.0
       2   44327.3   9972.1  16807.9      0.0    0.0   0.0  352.8 16468.2    0.0
       2   99195.0  21646.1  41748.9      0.0    0.0   0.0  924.2 33156.7    0.0
       3   44522.4  10061.9  16872.4      0.0    0.0   0.0  353.0 16494.4    0.0
       3   99195.0  21646.3  41748.8      0.0    0.0   0.0  924.2 33156.7    0.0
       4   45038.8  10092.1  17540.0      0.0    0.0   0.0  352.0 16294.4    0.0
       4   99195.0  21647.0  41748.7      0.0    0.0   0.0  922.9 33156.6    0.0
       5   43039.0   9971.3  15551.1      0.0    0.0   0.0  353.2 16405.8    0.0
       5   99195.0  21646.4  41748.8      0.0    0.0   0.0  924.4 33156.8    0.0
       6   44209.7  10104.6  16366.6      0.0    0.0   0.0  349.5 16660.7    0.0
       6   99195.0  21647.2  41748.7      0.0    0.0   0.0  922.8 33156.6    0.0
       7   42867.0  10015.9  15263.8      0.0    0.0   0.0  350.8 16494.4    0.0
       7   99195.0  21647.4  41748.7      0.0    0.0   0.0  922.8 33156.6    0.0
       8   41776.8   9953.9  14618.7      0.0    0.0   0.0  351.2 16121.2    0.0
       8   99195.0  21648.3  41748.9      0.0    0.0   0.0  921.5 33156.4    0.0
       9   45002.1  10135.2  16985.3      0.0    0.0   0.0  344.3 16823.4    0.0
       9   99195.0  21648.3  41748.7      0.0    0.0   0.0  922.3 33156.8    0.0
      10   44528.0  10017.8  16644.2      0.0    0.0   0.0  347.7 16778.9    0.0
      10   99195.0  21647.5  41748.7      0.0    0.0   0.0  922.2 33156.8    0.0
      11   42926.0  10020.9  15696.5      0.0    0.0   0.0  344.0 16122.4    0.0
      11   99195.0  21648.7  41748.7      0.0    0.0   0.0  921.2 33156.7    0.0
      12   44776.1  10043.5  17083.8      0.0    0.0   0.0  344.4 16570.8    0.0
      12   99195.0  21648.5  41748.7      0.0    0.0   0.0  920.1 33156.6    0.0
      13   42901.5  10019.5  15897.2      0.0    0.0   0.0  343.2 15918.2    0.0
      13   99195.0  21650.3  41748.6      0.0    0.0   0.0  920.6 33156.5    0.0
      14   42303.0   9945.9  15237.1      0.0    0.0   0.0  345.9 16065.5    0.0
      14   99195.0  21649.6  41748.6      0.0    0.0   0.0  920.0 33156.4    0.0
      15   41259.4   9935.1  14664.2      0.0    0.0   0.0  343.7 15611.8    0.0
      15   99195.0  21649.9  41748.6      0.0    0.0   0.0  920.0 33156.3    0.0
      16   43434.3   9946.4  16428.5      0.0    0.0   0.0  345.5 15998.4    0.0
      16   99195.0  21650.1  41748.6      0.0    0.0   0.0  918.7 33156.4    0.0
averaged   43588.2  10018.9  16139.6      0.0    0.0   0.0  348.2 16349.2    0.0
averaged   99195.0  21649.7  41748.5      0.0    0.0   0.0  922.0 33156.7    0.0

  FMO  timing statistics in pairs (CPU,wall) for each rank, sec

    Rank  FMOini FMOscf1  FMOdm1 FMOsyn1 FMOscf2  FMOes2 FMOsyn2 FMOscf3 FMOsyn3
 -------------------------------------------------------------------------------
       1    3.5   14714.7    0.5    0.0   29239.5     542.1    0.0    0.0    0.0
       1    9.1   30562.2    4.1    0.0   67516.9    1102.2    0.0    0.0    0.0
       2    2.6   14636.4    0.2    0.0   29160.4     527.8    0.0    0.0    0.0
       2    9.1   30562.2    4.1    0.0   67527.7    1091.4    0.0    0.0    0.0
       3    2.9   14662.2    0.2    0.0   29317.9     539.3    0.0    0.0    0.0
       3    9.1   30562.2    4.1    0.0   67524.9    1094.1    0.0    0.0    0.0
       4    2.6   14452.8    0.1    0.0   30020.4     562.9    0.0    0.0    0.0
       4    9.1   30562.2    4.1    0.0   67529.3    1089.8    0.0    0.0    0.0
       5    3.1   14648.9    0.3    0.0   27833.1     553.5    0.0    0.0    0.0
       5    9.1   30562.2    4.1    0.0   67524.4    1094.7    0.0    0.0    0.0
       6    2.7   14652.0    0.1    0.0   29022.0     532.8    0.0    0.0    0.0
       6    9.1   30562.2    4.1    0.0   67527.0    1092.1    0.0    0.0    0.0
       7    2.9   14669.8    0.2    0.0   27653.5     540.6    0.0    0.0    0.0
       7    9.1   30562.2    4.1    0.0   67525.3    1093.8    0.0    0.0    0.0
       8    2.5   14465.5    0.1    0.0   26772.1     536.5    0.0    0.0    0.0
       8    9.1   30562.2    4.1    0.0   67526.7    1092.3    0.0    0.0    0.0
       9    3.0   14599.6    0.5    0.0   29882.1     516.8    0.0    0.0    0.0
       9    9.1   30562.2    4.1    0.0   67525.8    1093.3    0.0    0.0    0.0
      10    2.5   14560.0    0.1    0.0   29421.4     543.9    0.0    0.0    0.0
      10    9.1   30562.2    4.1    0.0   67526.9    1092.2    0.0    0.0    0.0
      11    2.6   14427.1    0.2    0.0   27946.8     549.3    0.0    0.0    0.0
      11    9.1   30562.2    4.1    0.0   67525.7    1093.3    0.0    0.0    0.0
      12    2.3   14536.6    0.1    0.0   29695.6     541.4    0.0    0.0    0.0
      12    9.1   30562.2    4.1    0.0   67529.4    1089.6    0.0    0.0    0.0
      13    2.8   14458.8    0.3    0.0   27910.4     529.1    0.0    0.0    0.0
      13    9.1   30562.2    4.1    0.0   67529.2    1089.8    0.0    0.0    0.0
      14    2.3   14481.0    0.1    0.0   27303.3     516.2    0.0    0.0    0.0
      14    9.1   30562.2    4.1    0.0   67527.2    1091.8    0.0    0.0    0.0
      15    2.6   14341.8    0.2    0.0   26402.3     512.5    0.0    0.0    0.0
      15    9.1   30562.2    4.1    0.0   67528.4    1090.7    0.0    0.0    0.0
      16    2.4   14576.4    0.1    0.0   28331.6     523.9    0.0    0.0    0.0
      16    9.1   30562.2    4.1    0.0   67529.3    1089.7    0.0    0.0    0.0
averaged    2.7   14555.2    0.2    0.0   28494.5     535.5    0.0    0.0    0.0
averaged    9.1   30562.2    4.1    0.0   67526.5    1092.5    0.0    0.0    0.0
             62830315  WORDS OF DYNAMIC MEMORY USED
 EXECUTION OF GAMESS TERMINATED NORMALLY Mon Dec  9 02:07:09 2019
 DDI: 263640 bytes (0.3 MB / 0 MWords) used by master data server.

 ----------------------------------------
 CPU timing information for all processes
 ========================================
 0: 43509.284 + 991.135 = 44500.419
 1: 43404.165 + 923.203 = 44327.369
 2: 43574.326 + 948.124 = 44522.450
 3: 44085.453 + 953.357 = 45038.810
 4: 42126.71 + 912.918 = 43038.990
 5: 43301.330 + 908.395 = 44209.726
 6: 41995.596 + 871.480 = 42867.77
 7: 40993.270 + 783.536 = 41776.806
 8: 44012.902 + 989.204 = 45002.106
 9: 43635.774 + 892.289 = 44528.64
 10: 42046.17 + 880.34 = 42926.51
 11: 43860.67 + 916.58 = 44776.126
 12: 41995.667 + 905.846 = 42901.513
 13: 41485.335 + 817.762 = 42303.98
 14: 40427.238 + 832.194 = 41259.432
 15: 42551.995 + 882.375 = 43434.371
 ----------------------------------------
 ddikick.x: exited gracefully.
unset echo
----- accounting info -----
Files used on the master node gollum072.lsa.umich.edu were:
-rw-r--r-- 1 hazwong frank    24722 Dec  7 22:33 /scratch/hazwong/826698/2LX1_3/usrc/2LX1_3_fmo_input.F05
-rw-r--r-- 1 hazwong frank      634 Dec  9 02:07 /scratch/hazwong/826698/2LX1_3/usrc/2LX1_3_fmo_input.F06.001
-rw-r--r-- 1 hazwong frank      634 Dec  9 02:07 /scratch/hazwong/826698/2LX1_3/usrc/2LX1_3_fmo_input.F06.002
-rw-r--r-- 1 hazwong frank      634 Dec  9 02:07 /scratch/hazwong/826698/2LX1_3/usrc/2LX1_3_fmo_input.F06.003
-rw-r--r-- 1 hazwong frank      634 Dec  9 02:07 /scratch/hazwong/826698/2LX1_3/usrc/2LX1_3_fmo_input.F06.004
-rw-r--r-- 1 hazwong frank      634 Dec  9 02:07 /scratch/hazwong/826698/2LX1_3/usrc/2LX1_3_fmo_input.F06.005
-rw-r--r-- 1 hazwong frank      634 Dec  9 02:07 /scratch/hazwong/826698/2LX1_3/usrc/2LX1_3_fmo_input.F06.006
-rw-r--r-- 1 hazwong frank      634 Dec  9 02:07 /scratch/hazwong/826698/2LX1_3/usrc/2LX1_3_fmo_input.F06.007
-rw-r--r-- 1 hazwong frank      634 Dec  9 02:07 /scratch/hazwong/826698/2LX1_3/usrc/2LX1_3_fmo_input.F06.008
-rw-r--r-- 1 hazwong frank      634 Dec  9 02:07 /scratch/hazwong/826698/2LX1_3/usrc/2LX1_3_fmo_input.F06.009
-rw-r--r-- 1 hazwong frank      634 Dec  9 02:07 /scratch/hazwong/826698/2LX1_3/usrc/2LX1_3_fmo_input.F06.010
-rw-r--r-- 1 hazwong frank      634 Dec  9 02:07 /scratch/hazwong/826698/2LX1_3/usrc/2LX1_3_fmo_input.F06.011
-rw-r--r-- 1 hazwong frank      634 Dec  9 02:07 /scratch/hazwong/826698/2LX1_3/usrc/2LX1_3_fmo_input.F06.012
-rw-r--r-- 1 hazwong frank      634 Dec  9 02:07 /scratch/hazwong/826698/2LX1_3/usrc/2LX1_3_fmo_input.F06.013
-rw-r--r-- 1 hazwong frank      634 Dec  9 02:07 /scratch/hazwong/826698/2LX1_3/usrc/2LX1_3_fmo_input.F06.014
-rw-r--r-- 1 hazwong frank      634 Dec  9 02:07 /scratch/hazwong/826698/2LX1_3/usrc/2LX1_3_fmo_input.F06.015
-rw-r--r-- 1 hazwong frank    21906 Dec  9 02:07 /scratch/hazwong/826698/2LX1_3/usrc/2LX1_3_fmo_input.F07
-rw-r--r-- 1 hazwong frank        0 Dec  7 22:33 /scratch/hazwong/826698/2LX1_3/usrc/2LX1_3_fmo_input.F07.001
-rw-r--r-- 1 hazwong frank        0 Dec  7 22:33 /scratch/hazwong/826698/2LX1_3/usrc/2LX1_3_fmo_input.F07.002
-rw-r--r-- 1 hazwong frank        0 Dec  7 22:33 /scratch/hazwong/826698/2LX1_3/usrc/2LX1_3_fmo_input.F07.003
-rw-r--r-- 1 hazwong frank        0 Dec  7 22:33 /scratch/hazwong/826698/2LX1_3/usrc/2LX1_3_fmo_input.F07.004
-rw-r--r-- 1 hazwong frank        0 Dec  7 22:33 /scratch/hazwong/826698/2LX1_3/usrc/2LX1_3_fmo_input.F07.005
-rw-r--r-- 1 hazwong frank        0 Dec  7 22:33 /scratch/hazwong/826698/2LX1_3/usrc/2LX1_3_fmo_input.F07.006
-rw-r--r-- 1 hazwong frank        0 Dec  7 22:33 /scratch/hazwong/826698/2LX1_3/usrc/2LX1_3_fmo_input.F07.007
-rw-r--r-- 1 hazwong frank        0 Dec  7 22:33 /scratch/hazwong/826698/2LX1_3/usrc/2LX1_3_fmo_input.F07.008
-rw-r--r-- 1 hazwong frank        0 Dec  7 22:33 /scratch/hazwong/826698/2LX1_3/usrc/2LX1_3_fmo_input.F07.009
-rw-r--r-- 1 hazwong frank        0 Dec  7 22:33 /scratch/hazwong/826698/2LX1_3/usrc/2LX1_3_fmo_input.F07.010
-rw-r--r-- 1 hazwong frank        0 Dec  7 22:33 /scratch/hazwong/826698/2LX1_3/usrc/2LX1_3_fmo_input.F07.011
-rw-r--r-- 1 hazwong frank        0 Dec  7 22:33 /scratch/hazwong/826698/2LX1_3/usrc/2LX1_3_fmo_input.F07.012
-rw-r--r-- 1 hazwong frank        0 Dec  7 22:33 /scratch/hazwong/826698/2LX1_3/usrc/2LX1_3_fmo_input.F07.013
-rw-r--r-- 1 hazwong frank        0 Dec  7 22:33 /scratch/hazwong/826698/2LX1_3/usrc/2LX1_3_fmo_input.F07.014
-rw-r--r-- 1 hazwong frank        0 Dec  7 22:33 /scratch/hazwong/826698/2LX1_3/usrc/2LX1_3_fmo_input.F07.015
-rw-r--r-- 1 hazwong frank    65440 Dec  9 02:07 /scratch/hazwong/826698/2LX1_3/usrc/2LX1_3_fmo_input.F10.000
-rw-r--r-- 1 hazwong frank        0 Dec  7 22:33 /scratch/hazwong/826698/2LX1_3/usrc/2LX1_3_fmo_input.F26.000
-rw-r--r-- 1 hazwong frank        0 Dec  7 22:33 /scratch/hazwong/826698/2LX1_3/usrc/2LX1_3_fmo_input.F26.001
-rw-r--r-- 1 hazwong frank        0 Dec  7 22:33 /scratch/hazwong/826698/2LX1_3/usrc/2LX1_3_fmo_input.F26.002
-rw-r--r-- 1 hazwong frank        0 Dec  7 22:33 /scratch/hazwong/826698/2LX1_3/usrc/2LX1_3_fmo_input.F26.003
-rw-r--r-- 1 hazwong frank        0 Dec  7 22:33 /scratch/hazwong/826698/2LX1_3/usrc/2LX1_3_fmo_input.F26.004
-rw-r--r-- 1 hazwong frank        0 Dec  7 22:33 /scratch/hazwong/826698/2LX1_3/usrc/2LX1_3_fmo_input.F26.005
-rw-r--r-- 1 hazwong frank        0 Dec  7 22:33 /scratch/hazwong/826698/2LX1_3/usrc/2LX1_3_fmo_input.F26.006
-rw-r--r-- 1 hazwong frank        0 Dec  7 22:33 /scratch/hazwong/826698/2LX1_3/usrc/2LX1_3_fmo_input.F26.007
-rw-r--r-- 1 hazwong frank        0 Dec  7 22:33 /scratch/hazwong/826698/2LX1_3/usrc/2LX1_3_fmo_input.F26.008
-rw-r--r-- 1 hazwong frank        0 Dec  7 22:33 /scratch/hazwong/826698/2LX1_3/usrc/2LX1_3_fmo_input.F26.009
-rw-r--r-- 1 hazwong frank        0 Dec  7 22:33 /scratch/hazwong/826698/2LX1_3/usrc/2LX1_3_fmo_input.F26.010
-rw-r--r-- 1 hazwong frank        0 Dec  7 22:33 /scratch/hazwong/826698/2LX1_3/usrc/2LX1_3_fmo_input.F26.011
-rw-r--r-- 1 hazwong frank        0 Dec  7 22:33 /scratch/hazwong/826698/2LX1_3/usrc/2LX1_3_fmo_input.F26.012
-rw-r--r-- 1 hazwong frank        0 Dec  7 22:33 /scratch/hazwong/826698/2LX1_3/usrc/2LX1_3_fmo_input.F26.013
-rw-r--r-- 1 hazwong frank        0 Dec  7 22:33 /scratch/hazwong/826698/2LX1_3/usrc/2LX1_3_fmo_input.F26.014
-rw-r--r-- 1 hazwong frank        0 Dec  7 22:33 /scratch/hazwong/826698/2LX1_3/usrc/2LX1_3_fmo_input.F26.015
-rw-r--r-- 1 hazwong frank        0 Dec  7 22:33 /scratch/hazwong/826698/2LX1_3/usrc/2LX1_3_fmo_input.F27.000
-rw-r--r-- 1 hazwong frank        0 Dec  7 22:33 /scratch/hazwong/826698/2LX1_3/usrc/2LX1_3_fmo_input.F27.001
-rw-r--r-- 1 hazwong frank        0 Dec  7 22:33 /scratch/hazwong/826698/2LX1_3/usrc/2LX1_3_fmo_input.F27.002
-rw-r--r-- 1 hazwong frank        0 Dec  7 22:33 /scratch/hazwong/826698/2LX1_3/usrc/2LX1_3_fmo_input.F27.003
-rw-r--r-- 1 hazwong frank        0 Dec  7 22:33 /scratch/hazwong/826698/2LX1_3/usrc/2LX1_3_fmo_input.F27.004
-rw-r--r-- 1 hazwong frank        0 Dec  7 22:33 /scratch/hazwong/826698/2LX1_3/usrc/2LX1_3_fmo_input.F27.005
-rw-r--r-- 1 hazwong frank        0 Dec  7 22:33 /scratch/hazwong/826698/2LX1_3/usrc/2LX1_3_fmo_input.F27.006
-rw-r--r-- 1 hazwong frank        0 Dec  7 22:33 /scratch/hazwong/826698/2LX1_3/usrc/2LX1_3_fmo_input.F27.007
-rw-r--r-- 1 hazwong frank        0 Dec  7 22:33 /scratch/hazwong/826698/2LX1_3/usrc/2LX1_3_fmo_input.F27.008
-rw-r--r-- 1 hazwong frank        0 Dec  7 22:33 /scratch/hazwong/826698/2LX1_3/usrc/2LX1_3_fmo_input.F27.009
-rw-r--r-- 1 hazwong frank        0 Dec  7 22:33 /scratch/hazwong/826698/2LX1_3/usrc/2LX1_3_fmo_input.F27.010
-rw-r--r-- 1 hazwong frank        0 Dec  7 22:33 /scratch/hazwong/826698/2LX1_3/usrc/2LX1_3_fmo_input.F27.011
-rw-r--r-- 1 hazwong frank        0 Dec  7 22:33 /scratch/hazwong/826698/2LX1_3/usrc/2LX1_3_fmo_input.F27.012
-rw-r--r-- 1 hazwong frank        0 Dec  7 22:33 /scratch/hazwong/826698/2LX1_3/usrc/2LX1_3_fmo_input.F27.013
-rw-r--r-- 1 hazwong frank        0 Dec  7 22:33 /scratch/hazwong/826698/2LX1_3/usrc/2LX1_3_fmo_input.F27.014
-rw-r--r-- 1 hazwong frank        0 Dec  7 22:33 /scratch/hazwong/826698/2LX1_3/usrc/2LX1_3_fmo_input.F27.015
-rw-r--r-- 1 hazwong frank 33472512 Dec  8 07:03 /scratch/hazwong/826698/2LX1_3/usrc/2LX1_3_fmo_input.F40.000
-rw-r--r-- 1 hazwong frank 33472512 Dec  8 07:03 /scratch/hazwong/826698/2LX1_3/usrc/2LX1_3_fmo_input.F40.001
-rw-r--r-- 1 hazwong frank 33472512 Dec  8 07:03 /scratch/hazwong/826698/2LX1_3/usrc/2LX1_3_fmo_input.F40.002
-rw-r--r-- 1 hazwong frank 33472512 Dec  8 07:03 /scratch/hazwong/826698/2LX1_3/usrc/2LX1_3_fmo_input.F40.003
-rw-r--r-- 1 hazwong frank 33472512 Dec  8 07:03 /scratch/hazwong/826698/2LX1_3/usrc/2LX1_3_fmo_input.F40.004
-rw-r--r-- 1 hazwong frank 33472512 Dec  8 07:03 /scratch/hazwong/826698/2LX1_3/usrc/2LX1_3_fmo_input.F40.005
-rw-r--r-- 1 hazwong frank 33472512 Dec  8 07:03 /scratch/hazwong/826698/2LX1_3/usrc/2LX1_3_fmo_input.F40.006
-rw-r--r-- 1 hazwong frank 33472512 Dec  8 07:03 /scratch/hazwong/826698/2LX1_3/usrc/2LX1_3_fmo_input.F40.007
-rw-r--r-- 1 hazwong frank 33472512 Dec  8 07:03 /scratch/hazwong/826698/2LX1_3/usrc/2LX1_3_fmo_input.F40.008
-rw-r--r-- 1 hazwong frank 33472512 Dec  8 07:03 /scratch/hazwong/826698/2LX1_3/usrc/2LX1_3_fmo_input.F40.009
-rw-r--r-- 1 hazwong frank 33472512 Dec  8 07:03 /scratch/hazwong/826698/2LX1_3/usrc/2LX1_3_fmo_input.F40.010
-rw-r--r-- 1 hazwong frank 33472512 Dec  8 07:03 /scratch/hazwong/826698/2LX1_3/usrc/2LX1_3_fmo_input.F40.011
-rw-r--r-- 1 hazwong frank 33472512 Dec  8 07:03 /scratch/hazwong/826698/2LX1_3/usrc/2LX1_3_fmo_input.F40.012
-rw-r--r-- 1 hazwong frank 33472512 Dec  8 07:03 /scratch/hazwong/826698/2LX1_3/usrc/2LX1_3_fmo_input.F40.013
-rw-r--r-- 1 hazwong frank 33472512 Dec  8 07:03 /scratch/hazwong/826698/2LX1_3/usrc/2LX1_3_fmo_input.F40.014
-rw-r--r-- 1 hazwong frank 33472512 Dec  8 07:03 /scratch/hazwong/826698/2LX1_3/usrc/2LX1_3_fmo_input.F40.015
ls: No match.
ls: No match.
ls: No match.
Mon Dec  9 02:07:13 EST 2019
0.187u 0.105s 27:33:18.63 0.0%	0+0k 1544+184io 26pf+0w
