‘2LX1_1_fmo_input.inp’ -> ‘/scratch/hazwong/826540/./2LX1_1_fmo_input.inp’
‘rungms’ -> ‘/scratch/hazwong/826540/./rungms’
‘gms-files.csh’ -> ‘/scratch/hazwong/826540/./gms-files.csh’
----- GAMESS execution script 'rungms' -----
This job is running on host gollum051.lsa.umich.edu
under operating system Linux at Sat Dec 7 21:21:39 EST 2019
Available scratch disk space (Kbyte units) at beginning of the job is
Filesystem     1K-blocks     Used Available Use% Mounted on
/dev/sda4      426933580 24243536 402690044   6% /scratch
GAMESS temporary binary files will be written to /scratch/hazwong/826540/2LX1_1/usrc
GAMESS supplementary output files will be written to /scratch/hazwong/826540/2LX1_1/src
Copying input file 2LX1_1_fmo_input.inp to your run's scratch directory...
cp 2LX1_1_fmo_input.inp /scratch/hazwong/826540/2LX1_1/usrc/2LX1_1_fmo_input.F05
unset echo
This is a GDDI run, keeping various output files on local disks
setenv OUTPUT /scratch/hazwong/826540/2LX1_1/usrc/2LX1_1_fmo_input.F06
setenv PUNCH /scratch/hazwong/826540/2LX1_1/usrc/2LX1_1_fmo_input.F07
unset echo
 
Assuming a single but multicore node.
 
/export/apps/CentOS7/gamess/src/build//ddikick.x /export/apps/CentOS7/gamess/src/build//gamess.R3.x 2LX1_1_fmo_input -ddi 1 16 gollum051.lsa.umich.edu:cpus=16 -scr /scratch/hazwong/826540/2LX1_1/usrc

 Distributed Data Interface kickoff program.
 Initiating 16 compute processes on 1 nodes to run the following command:
 /export/apps/CentOS7/gamess/src/build//gamess.R3.x 2LX1_1_fmo_input 

          ******************************************************
          *         GAMESS VERSION = 30 SEP 2018 (R3)         *
          *             FROM IOWA STATE UNIVERSITY             *
          * M.W.SCHMIDT, K.K.BALDRIDGE, J.A.BOATZ, S.T.ELBERT, *
          *   M.S.GORDON, J.H.JENSEN, S.KOSEKI, N.MATSUNAGA,   *
          *          K.A.NGUYEN, S.J.SU, T.L.WINDUS,           *
          *       TOGETHER WITH M.DUPUIS, J.A.MONTGOMERY       *
          *         J.COMPUT.CHEM.  14, 1347-1363(1993)        *
          **************** 64 BIT LINUX VERSION ****************

  SINCE 1993, STUDENTS AND POSTDOCS WORKING AT IOWA STATE UNIVERSITY
  AND ALSO IN THEIR VARIOUS JOBS AFTER LEAVING ISU HAVE MADE IMPORTANT
  CONTRIBUTIONS TO THE CODE:
     IVANA ADAMOVIC, CHRISTINE AIKENS, YURI ALEXEEV, POOJA ARORA,
     ANDREY ASADCHEV, ROB BELL, PRADIPTA BANDYOPADHYAY, JONATHAN BENTZ,
     BRETT BODE, KURT BRORSEN, CALEB CARLIN, GALINA CHABAN, WEI CHEN,
     CHEOL HO CHOI, PAUL DAY, ALBERT DEFUSCO, NUWAN DESILVA, TIM DUDLEY,
     DMITRI FEDOROV, ALEX FINDLATER, GRAHAM FLETCHER, MARK FREITAG,
     KURT GLAESEMANN, ANASTASIA GUNINA,
     DAN KEMP, GRANT MERRILL, NORIYUKI MINEZAWA, JONATHAN MULLIN,
     TAKESHI NAGATA, SEAN NEDD, HEATHER NETZLOFF, BOSILJKA NJEGIC, RYAN OLSON,
     MIKE PAK, BUU PHAM,
     SPENCER PRUITT, LUKE ROSKOP, JIM SHOEMAKER, LYUDMILA SLIPCHENKO,
     TONY SMITH, SAROM SOK LEANG, JIE SONG, TETSUYA TAKETSUGU, SIMON WEBB,
     PENG XU, SOOHAENG YOO, FEDERICO ZAHARIEV

  ADDITIONAL CODE HAS BEEN PROVIDED BY COLLABORATORS IN OTHER GROUPS:
     IOWA STATE UNIVERSITY:
          JOE IVANIC, AARON WEST, LAIMUTIS BYTAUTAS, KLAUS RUEDENBERG
     UNIVERSITY OF TOKYO: KIMIHIKO HIRAO, TAKAHITO NAKAJIMA,
          TAKAO TSUNEDA, MUNEAKI KAMIYA, SUSUMU YANAGISAWA,
          KIYOSHI YAGI, MAHITO CHIBA, SEIKEN TOKURA, NAOAKI KAWAKAMI
     UNIVERSITY OF AARHUS: FRANK JENSEN
     UNIVERSITY OF IOWA: VISVALDAS KAIRYS, HUI LI
     NATIONAL INST. OF STANDARDS AND TECHNOLOGY: WALT STEVENS, DAVID GARMER
     UNIVERSITY OF PISA: BENEDETTA MENNUCCI, JACOPO TOMASI
     UNIVERSITY OF MEMPHIS: HENRY KURTZ, PRAKASHAN KORAMBATH
     UNIVERSITY OF ALBERTA: TOBY ZENG, MARIUSZ KLOBUKOWSKI
     UNIVERSITY OF NEW ENGLAND: MARK SPACKMAN
     MIE UNIVERSITY: HIROAKI UMEDA
     NAT. INST. OF ADVANCED INDUSTRIAL SCIENCE AND TECHNOLOGY: KAZUO KITAURA
     MICHIGAN STATE UNIVERSITY:
          KAROL KOWALSKI, MARTA WLOCH, JEFFREY GOUR, JESSE LUTZ,
          WEI LI, JUN SHEN, J. EMILIANO DEUSTUA, PIOTR PIECUCH
     UNIVERSITY OF MINNESOTA:
          YINAN SHU
     UNIVERSITY OF SILESIA: MONIKA MUSIAL, STANISLAW KUCHARSKI
     FACULTES UNIVERSITAIRES NOTRE-DAME DE LA PAIX:
          OLIVIER QUINET, BENOIT CHAMPAGNE
     UNIVERSITY OF CALIFORNIA - SANTA BARBARA: BERNARD KIRTMAN
     INSTITUTE FOR MOLECULAR SCIENCE:
          KAZUYA ISHIMURA, MICHIO KATOUDA, AND SHIGERU NAGASE
     UNIVERSITY OF NOTRE DAME: ANNA POMOGAEVA, DAN CHIPMAN
     KYUSHU UNIVERSITY:
          HARUYUKI NAKANO,
          FENG LONG GU, JACEK KORCHOWIEC, MARCIN MAKOWSKI, AND YURIKO AOKI,
          HIROTOSHI MORI AND EISAKU MIYOSHI
     PENNSYLVANIA STATE UNIVERSITY:
          TZVETELIN IORDANOV, CHET SWALINA, JONATHAN SKONE,
          SHARON HAMMES-SCHIFFER
     WASEDA UNIVERSITY:
          MASATO KOBAYASHI, TOMOKO AKAMA, TSUGUKI TOUMA,
          TAKESHI YOSHIKAWA, YASUHIRO IKABATA, JUNJI SEINO,
          YUYA NAKAJIMA, HIROMI NAKAI
     NANJING UNIVERSITY: SHUHUA LI
     UNIVERSITY OF NEBRASKA:
          PEIFENG SU, DEJUN SI, NANDUN THELLAMUREGE, YALI WANG, HUI LI
     UNIVERSITY OF ZURICH: ROBERTO PEVERATI, KIM BALDRIDGE
     N. COPERNICUS UNIVERSITY AND JACKSON STATE UNIVERSITY:
          MARIA BARYSZ
     UNIVERSITY OF COPENHAGEN: Jimmy Kromann, CASPER STEINMANN
     TOKYO INSTITUTE OF TECHNOLOGY: HIROYA NAKATA
     NAGOYA UNIVERSITY: YOSHIO NISHIMOTO, STEPHAN IRLE
     MOSCOW STATE UNIVERSITY: VLADIMIR MIRONOV


 PARALLEL VERSION RUNNING ON       16 PROCESSORS IN        1 NODES.

 EXECUTION OF GAMESS BEGUN Sat Dec  7 21:21:39 2019

            ECHO OF THE FIRST FEW INPUT CARDS -
 INPUT CARD>!*** FMO 5.3 (Gamess) INPUT generated by Facio 22.1.1.32 ***                    
 INPUT CARD> $CONTRL RUNTYP=ENERGY NPRINT=-5 ISPHER=1 MAXIT=200 $END                        
 INPUT CARD> $SYSTEM MWORDS=63 MEMDDI=63 $END                                               
 INPUT CARD> $GDDI NGROUP=1 $END                                                            
 INPUT CARD> $SCF DIRSCF=.TRUE. NPUNCH=0 $END                                               
 INPUT CARD>!*** NumCPU : 2  MemPerNode : 512MB                                             
 INPUT CARD> $PCM SOLVNT=WATER IEF=-10 ICOMP=2 ICAV=1 IDISP=1 IFMO=-1 $END                  
 INPUT CARD> $PCMCAV RADII=SUAHF $END                                                       
 INPUT CARD> $TESCAV NTSALL=60 $END                                                         
 INPUT CARD> $FMOPRP                                                                        
 INPUT CARD>    NAODIR=200                                                                  
 INPUT CARD>    NGRFMO(1)=1, 1, 0, 0, 0,   0, 0, 0, 0, 0                                    
 INPUT CARD>    IPIEDA=1                                                                    
 INPUT CARD>    NPRINT=9                                                                    
 INPUT CARD> $END                                                                           
 INPUT CARD> $FMO                                                                           
 INPUT CARD>      SCFTYP(1)=RHF                                                             
 INPUT CARD>      MODGRD=10                                                                 
 INPUT CARD>      MODMUL=0                                                                  
 INPUT CARD>      MAXCAO=5                                                                  
 INPUT CARD>      MAXBND=18                                                                 
 INPUT CARD>      NLAYER=1                                                                  
 INPUT CARD>      MPLEVL(1)=2                                                               
 INPUT CARD>      NFRAG=16                                                                  
 INPUT CARD>      ICHARG(1)=-1, -1, -1, -1, -1, -1, -1, 0, -1, -1, -1, -1, -1, -1,          
 INPUT CARD>-1, 0                                                                           
 INPUT CARD>      FRGNAM(1)=F1, F2, F3, F4, F5, F6, F7, F8, F9, F10, F11, F12, F13,         
 INPUT CARD>F14, F15, F16                                                                   
 INPUT CARD>      indat(1)=0                                                                
 INPUT CARD>               1   -35   0                                                      
 INPUT CARD>               36   -66   0                                                     
 INPUT CARD>               67   -100   0                                                    
 INPUT CARD>               101   -133   0                                                   
 INPUT CARD>               134   -167   0                                                   
 INPUT CARD>               168   -197   0                                                   
 INPUT CARD>               198   -231   0                                                   
 INPUT CARD>               232   -260   0                                                   
 INPUT CARD>               261   -293   0                                                   
 INPUT CARD>               294   -324   0                                                   
 INPUT CARD>               325   -358   0                                                   
 INPUT CARD>               359   -391   0                                                   
 INPUT CARD>               392   -425   0                                                   
 INPUT CARD>               426   -455   0                                                   
 INPUT CARD>               456   -489   0                                                   
 INPUT CARD>               490   -516   0                                                   
 INPUT CARD> $END                                                                           
 INPUT CARD>                                                                                
 INPUT CARD> $FMOBND                                                                        
 INPUT CARD>   -36   35       6-31G*    MINI                                                
 INPUT CARD>   -67   66       6-31G*    MINI                                                


 -------------------------------------------------------------
 GROUP DDI, PROGRAMMED BY: RYAN M. OLSON AND DMITRI G. FEDOROV
        FEDOROV ET AL., J. COMPUT. CHEM., 25 (2004) 872.
 -------------------------------------------------------------

 -------------------------------------------------------
 GDDI: INITIALIZATION COMPLETED FOR GROUP     1 OF     1
 WITH    16 PROCESSES BALTYP=DLB   global rank=        0
 -------------------------------------------------------

   63000000 WORDS OF MEMORY AVAILABLE


     RUN TITLE
     ---------
  FMO calculation                                                                

 THE POINT GROUP OF THE MOLECULE IS C1      
 THE ORDER OF THE PRINCIPAL AXIS IS     0

 ATOM   ATOMIC CHARGE
 H.1-1       1.0
 O.1-1       8.0
 C.1-1       6.0
 N.1-1       7.0
 P.1-1      15.0

     ATOMIC BASIS SET LIBRARY
     ----------------
 THE CONTRACTED PRIMITIVE FUNCTIONS HAVE BEEN UNNORMALIZED
 THE CONTRACTED BASIS FUNCTIONS ARE NOW NORMALIZED TO UNITY

  SHELL TYPE  PRIMITIVE        EXPONENT          CONTRACTION COEFFICIENT(S)

 H.1-1     

      1   S       1            18.7311370    0.033494604338
      1   S       2             2.8253944    0.234726953484
      1   S       3             0.6401217    0.813757326146

      2   S       4             0.1612778    1.000000000000

 O.1-1     

      3   S       5          5484.6716600    0.001831074430
      3   S       6           825.2349460    0.013950172200
      3   S       7           188.0469580    0.068445078098
      3   S       8            52.9645000    0.232714335992
      3   S       9            16.8975704    0.470192897984
      3   S      10             5.7996353    0.358520852987

      4   L      11            15.5396162   -0.110777549525    0.070874268231
      4   L      12             3.5999336   -0.148026262701    0.339752839147
      4   L      13             1.0137618    1.130767015354    0.727158577316

      5   L      14             0.2700058    1.000000000000    1.000000000000

      6   D      15             0.8000000    1.000000000000

 C.1-1     

      7   S      16          3047.5248800    0.001834737132
      7   S      17           457.3695180    0.014037322813
      7   S      18           103.9486850    0.068842622264
      7   S      19            29.2101553    0.232184443216
      7   S      20             9.2866630    0.467941348435
      7   S      21             3.1639270    0.362311985337

      8   L      22             7.8682723   -0.119332419775    0.068999066591
      8   L      23             1.8812885   -0.160854151696    0.316423960957
      8   L      24             0.5442493    1.143456437840    0.744308290898

      9   L      25             0.1687145    1.000000000000    1.000000000000

     10   D      26             0.8000000    1.000000000000

 N.1-1     

     11   S      27          4173.5114600    0.001834772160
     11   S      28           627.4579110    0.013994627002
     11   S      29           142.9020930    0.068586551812
     11   S      30            40.2343293    0.232240873040
     11   S      31            12.8202129    0.469069948082
     11   S      32             4.3904370    0.360455199063

     12   L      33            11.6263619   -0.114961181702    0.067579743878
     12   L      34             2.7162798   -0.169117478561    0.323907295893
     12   L      35             0.7722184    1.145851947027    0.740895139755

     13   L      36             0.2120315    1.000000000000    1.000000000000

     14   D      37             0.8000000    1.000000000000

 P.1-1     

     15   S      38         19413.3000000    0.001851598923
     15   S      39          2909.4200000    0.014206191735
     15   S      40           661.3640000    0.069999459277
     15   S      41           185.7590000    0.240078860331
     15   S      42            59.1943000    0.484761717984
     15   S      43            20.0310000    0.335199804993

     16   L      44           339.4780000   -0.002782170105    0.004564616191
     16   L      45            81.0101000   -0.036049901354    0.033693571881
     16   L      46            25.8780000   -0.116631004382    0.139754883368
     16   L      47             9.4522100    0.096832803638    0.339361716786
     16   L      48             3.6656600    0.614418023082    0.450920623685
     16   L      49             1.4674600    0.403798015170    0.238585800889

     17   L      50             2.1562300   -0.252924113863   -0.017765312733
     17   L      51             0.7489970    0.032851844678    0.274058196433
     17   L      52             0.2831450    1.081254761783    0.785421562957

     18   L      53             0.0998317    1.000000000000    1.000000000000

     19   D      54             0.5500000    1.000000000000

 TOTAL NUMBER OF BASIS SET SHELLS             =   19
 NUMBER OF CARTESIAN GAUSSIAN BASIS FUNCTIONS =   66

     $CONTRL OPTIONS
     ---------------
 SCFTYP=RHF          RUNTYP=ENERGY       EXETYP=RUN     
 MPLEVL=       0     CITYP =NONE         CCTYP =NONE         VBTYP =NONE    
 DFTTYP=NONE         TDDFT =NONE    
 MULT  =       1     ICHARG=       0     NZVAR =       0     COORD =UNIQUE  
 PP    =NONE         RELWFN=NONE         LOCAL =NONE         NUMGRD=       F
 ISPHER=       1     NOSYM =       0     MAXIT =     200     UNITS =ANGS    
 PLTORB=       F     MOLPLT=       F     AIMPAC=       F     FRIEND=        
 NPRINT=      -5     IREST =       0     GEOM  =INPUT   
 NORMF =       0     NORMP =       0     ITOL  =      24     ICUT  =      12
 INTTYP=BEST         GRDTYP=BEST         QMTTOL= 1.0E-06

     $SYSTEM OPTIONS
     ---------------
  REPLICATED MEMORY=    63000000 WORDS (ON EVERY NODE).
 DISTRIBUTED MEMDDI=          63 MILLION WORDS IN AGGREGATE,
 MEMDDI DISTRIBUTED OVER  16 PROCESSORS IS     3937500 WORDS/PROCESSOR.
 TOTAL MEMORY REQUESTED ON EACH PROCESSOR=    66937500 WORDS.
 TIMLIM=      525600.00 MINUTES, OR     365.0 DAYS.
 PARALL= T  BALTYP=  DLB     KDIAG=    0  COREFL= F
 MXSEQ2=     300 MXSEQ3=     150  mem10=         0

 ** LOOKING UP INTERNALLY STORED DATA FOR SOLVENT=WATER    **
 OPTICAL AND PHYSICAL CONSTANTS:
 EPS= 78.390; EPSINF=  1.776; RSOLV=  1.385 A; VMOL=  18.070 ML/MOL;
 TCE= .25700E-03 1/K; STEN= 71.810 DYN/CM;  DSTEN=  0.6500; CMF=  1.2770


     -----------------------------------
     INPUT FOR PCM SOLVATION CALCULATION 
     -----------------------------------
     IEF   =     -10
     ICOMP =       2     IFIELD=       0     ICAV  =       1
     IDISP =       1     IREP  =       0     IDP   =       0

     SOLVNT=WATER        EPS   = 78.3900     EPSINF=  1.7760
     VMOL  = 18.0700     TCE   =  0.00025700 STEN  = 71.8100
     DSTEN =  0.6500     CMF   =  1.2770     RSOLV =  1.3850

     NESFP =       0
     OMEGA = 40.0000     RET   =100.0000     FRO   =  0.7000

     TABS  =298.0000     IPRINT=       0

     --------------------------------
     INPUT FOR ITERATIVE C-PCM METHOD 
     --------------------------------
     IPCMIT  =         1     MXDIIS  =        50
     MXITR1  =       200     MXITR2  =       200
     THRES   = 0.100E-09     IMUL    =         3
     RCUT(1) =   20.0000     RCUT(2) =   50.0000

     IDIRCT  =         1
     IMGABI  =         0     RABI    =    4.0000
     IMGASC  =         0     RASC    =   20.0000
     THRSLS  = 0.500E-03     DENSLS  =    0.0100
     IEFPOL  =         1     REFPOL  =    0.0000

     INPUT FOR ISOTROPIC DIELECTRICS
     -------------------------------
     EPS=    78.39

          ----------------
          PROPERTIES INPUT
          ----------------

     MOMENTS            FIELD           POTENTIAL          DENSITY
 IEMOM =       1   IEFLD =       0   IEPOT =       0   IEDEN =       0
 WHERE =COMASS     WHERE =NUCLEI     WHERE =NUCLEI     WHERE =NUCLEI  
 OUTPUT=BOTH       OUTPUT=BOTH       OUTPUT=NONE       OUTPUT=BOTH    
 IEMINT=       0   IEFINT=       0                     IEDINT=       0
                                                       MORB  =       0
          EXTRAPOLATION IN EFFECT
          SOSCF IN EFFECT
 ORBITAL PRINTING OPTION: NPREO=     1 32767     2     1

     -------------------------------
     INTEGRAL TRANSFORMATION OPTIONS
     -------------------------------
     NWORD  =            0
     CUTOFF = 1.0E-10     MPTRAN =       0
     DIRTRF =       T     AOINTS =DUP     

          ----------------------
          INTEGRAL INPUT OPTIONS
          ----------------------
 NOPK  =       1 NORDER=       0 SCHWRZ=       T

 ..... DONE SETTING UP THE RUN .....
 CPU     0: STEP CPU TIME=     0.04 TOTAL CPU TIME=          0.0 (      0.0 MIN)
 TOTAL WALL CLOCK TIME=          0.1 SECONDS, CPU UTILIZATION IS    66.67%
 CPU     0: STEP CPU TIME=     0.00 TOTAL CPU TIME=          0.0 (      0.0 MIN)
 TOTAL WALL CLOCK TIME=          0.1 SECONDS, CPU UTILIZATION IS    66.67%

                    ----------------------
                    AO INTEGRAL TECHNOLOGY
                    ----------------------
     S,P,L SHELL ROTATED AXIS INTEGRALS, REPROGRAMMED BY
        KAZUYA ISHIMURA (IMS) AND JOSE SIERRA (SYNSTAR).
     S,P,D,L SHELL ROTATED AXIS INTEGRALS PROGRAMMED BY
        KAZUYA ISHIMURA (INSTITUTE FOR MOLECULAR SCIENCE).
     S,P,D,F,G SHELL TO TOTAL QUARTET ANGULAR MOMENTUM SUM 5,
        ERIC PROGRAM BY GRAHAM FLETCHER (ELORET AND NASA ADVANCED
        SUPERCOMPUTING DIVISION, AMES RESEARCH CENTER).
     S,P,D,F,G,L SHELL GENERAL RYS QUADRATURE PROGRAMMED BY
        MICHEL DUPUIS (PACIFIC NORTHWEST NATIONAL LABORATORY).
 Setting modorb=1 flag...
 Setting modorb=1 flag...

          -----------------------
          MP2 CONTROL INFORMATION
          -----------------------
          NACORE =        8  NBCORE =        8
          LMOMP2 =        F  AOINTS = DUP     
          METHOD =        2  NWORD  =               0
          MP2PRP =        F  OSPT   = NONE    
          CUTOFF = 1.00E-12  CPHFBS = BASISAO 
          CODE   = IMS     

          NUMBER OF CORE -A-  ORBITALS =     8
          NUMBER OF CORE -B-  ORBITALS =     8
          NUMBER OF OCC. -A-  ORBITALS =    18
          NUMBER OF OCC. -B-  ORBITALS =    18
          NUMBER OF MOLECULAR ORBITALS =    66
          NUMBER OF   BASIS  FUNCTIONS =    66

 CPU     0: STEP CPU TIME=     0.03 TOTAL CPU TIME=          0.1 (      0.0 MIN)
 TOTAL WALL CLOCK TIME=          0.1 SECONDS, CPU UTILIZATION IS    70.00%
 CPU     0: STEP CPU TIME=     0.00 TOTAL CPU TIME=          0.1 (      0.0 MIN)
 TOTAL WALL CLOCK TIME=          0.1 SECONDS, CPU UTILIZATION IS    70.00%

     INPUT FOR CAVITY DEFINITION 
     ---------------------------
   ATOM               COORDINATES                RADIUS       EPS
      1      9.0660      8.5610      6.7290      0.0100     78.3900
      2      8.1280      8.8300      6.7620      1.5900     78.3900
      3      8.1130     10.2380      7.0420      1.7700     78.3900
      4      8.6350     10.7810      6.2230      0.0100     78.3900
      5      8.6630     10.4300      7.9890      0.0100     78.3900
      6      6.6950     10.8030      7.1780      1.7700     78.3900
      7      6.7200     11.8880      7.4230      0.0100     78.3900
      8      5.9740     10.6400      5.9170      1.5900     78.3900
      9      4.6220     10.3010      6.1910      1.7700     78.3900
     10      3.9870     11.0550      5.6740      0.0100     78.3900
     11      4.2890      8.9680      5.6780      1.6800     78.3900
     12      3.1960      7.2160      4.9150      1.7700     78.3900
     13      4.5450      6.8890      4.8530      1.6800     78.3900
     14      5.1530      7.9610      5.3090      1.7700     78.3900
     15      6.2350      8.0820      5.3980      0.0100     78.3900
     16      0.8350      7.1260      4.7500      1.6800     78.3900
     17      0.8280      8.3490      5.2910      1.7700     78.3900
     18     -0.1630      8.7900      5.4400      0.0100     78.3900
     19      1.8610      9.1190      5.6510      1.6800     78.3900
     20      3.0260      8.4880      5.4350      1.7700     78.3900
     21      2.0290      6.5140      4.5420      1.7700     78.3900
     22      2.0460      5.2880      3.9870      1.6800     78.3900
     23      2.9080      4.8230      3.7690      0.0100     78.3900
     24      1.1890      4.8080      3.7790      0.0100     78.3900
     25      4.4210     10.4150      7.6840      1.7700     78.3900
     26      3.6610      9.7050      8.0750      0.0100     78.3900
     27      4.0510     11.7420      8.0050      1.5900     78.3900
     28      4.0430     11.7980      8.9670      0.0100     78.3900
     29      5.8130     10.0840      8.2090      1.7700     78.3900
     30      6.0170      8.9920      8.1060      0.0100     78.3900
     31      6.0990     10.5860      9.5310      1.5900     78.3900
     32      5.8300      9.6740     10.7850      2.1000     78.3900
     33      6.4150      8.3410     10.5420      1.5900     78.3900
     34      6.2910     10.3940     11.9910      1.5900     78.3900
     35      4.2660      9.5320     10.8210      1.5900     78.3900
     36      3.4310     10.6680     11.1310      1.7700     78.3900
     37      3.6400     11.5330     10.4670      0.0100     78.3900
     38      3.6100     11.0110     12.1740      0.0100     78.3900
     39      1.9480     10.3040     11.0030      1.7700     78.3900
     40      1.3130     11.1840     11.2380      0.0100     78.3900
     41      1.6260      9.9140      9.6360      1.5900     78.3900
     42      0.6450      8.8830      9.6740      1.7700     78.3900
     43     -0.2150      9.2720      9.0800      0.0100     78.3900
     44      1.1080      7.6100      9.0550      1.6800     78.3900
     45      2.4540      7.3410      8.9690      1.7700     78.3900
     46      3.1170      8.0970      9.3920      0.0100     78.3900
     47      2.9060      6.2330      8.3700      1.7700     78.3900
     48      3.9700      6.0220      8.2630      0.0100     78.3900
     49      0.1840      6.6780      8.5840      1.7700     78.3900
     50     -1.0300      6.9070      8.7090      1.5900     78.3900
     51      0.6250      5.5500      7.9790      1.6800     78.3900
     52      1.9430      5.3290      7.8350      1.7700     78.3900
     53      2.3560      4.2450      7.1840      1.6800     78.3900
     54      1.6740      3.6030      6.8280      0.0100     78.3900
     55      3.3220      3.9960      7.1140      0.0100     78.3900
     56      0.2090      8.7230     11.1170      1.7700     78.3900
     57     -0.0920      7.6830     11.3770      0.0100     78.3900
     58     -0.8460      9.6290     11.3840      1.5900     78.3900
     59     -0.8990      9.6770     12.3470      0.0100     78.3900
     60      1.4650      9.1380     11.8710      1.7700     78.3900
     61      2.2410      8.3420     11.8200      0.0100     78.3900
     62      1.2310      9.6070     13.2120      1.5900     78.3900
     63      1.2340      8.6170     14.4310      2.1000     78.3900
     64      2.4760      7.8170     14.3770      1.5900     78.3900
     65      1.0080      9.4220     15.6480      1.5900     78.3900
     66     -0.0030      7.6830     14.1970      1.5900     78.3900
     67     -1.3660      8.1220     14.3210      1.7700     78.3900
     68     -1.6540      8.7650     13.4710      0.0100     78.3900
     69     -1.5140      8.7070     15.2560      0.0100     78.3900
     70     -2.3480      6.9380     14.3200      1.7700     78.3900
     71     -3.3800      7.3250     14.4450      0.0100     78.3900
     72     -2.3110      6.2110     13.0500      1.5900     78.3900
     73     -2.0840      4.8380     13.3070      1.7700     78.3900
     74     -3.0920      4.3720     13.4130      0.0100     78.3900
     75     -1.3190      4.1930     12.2220      1.6800     78.3900
     76      0.0040      4.3760     11.8880      1.7700     78.3900
     77      3.0960      5.7520     12.6040      1.6800     78.3900
     78      4.0500      5.6120     12.3520      0.0100     78.3900
     79      2.8510      6.4350     13.3060      0.0100     78.3900
     80      0.8810      5.1920     12.4980      1.6800     78.3900
     81      2.1160      5.0570     12.0680      1.7700     78.3900
     82      2.4620      4.1980     11.0640      1.6800     78.3900
     83      3.4300      4.1190     10.8020      0.0100     78.3900
     84      1.5820      3.3590     10.4020      1.7700     78.3900
     85      1.9920      2.6110      9.5210      1.5900     78.3900
     86      0.2440      3.5100     10.8480      1.7700     78.3900
     87     -0.9170      2.8480     10.4710      1.6800     78.3900
     88     -1.8210      3.2850     11.3180      1.7700     78.3900
     89     -2.8710      2.9850     11.3220      0.0100     78.3900
     90     -1.3780      4.7780     14.6420      1.7700     78.3900
     91     -0.3110      5.0710     14.5560      0.0100     78.3900
     92     -1.4820      3.5180     15.2750      1.5900     78.3900
     93     -1.4250      3.6950     16.2290      0.0100     78.3900
     94     -2.0800      5.8850     15.4090      1.7700     78.3900
     95     -1.3520      6.3490     16.1180      0.0100     78.3900
     96     -3.2940      5.4610     16.0590      1.5900     78.3900
     97     -3.3470      5.2680     17.6170      2.1000     78.3900
     98     -3.4240      6.6040     18.2470      1.5900     78.3900
     99     -4.4320      4.3180     17.9310      1.5900     78.3900
    100     -1.9470      4.5990     17.9600      1.5900     78.3900
    101     -1.5530      4.6270     19.3590      1.7700     78.3900
    102     -2.1510      3.8870     19.9390      0.0100     78.3900
    103     -1.6970      5.6410     19.8110      0.0100     78.3900
    104     -0.0680      4.3120     19.5760      1.7700     78.3900
    105      0.1680      4.4960     20.6440      0.0100     78.3900
    106      0.2180      2.9160     19.3320      1.5900     78.3900
    107      1.1940      2.8080     18.3270      1.7700     78.3900
    108      2.1790      2.7520     18.8490      0.0100     78.3900
    109      0.9600      1.6030     17.5380      1.6800     78.3900
    110      1.2510     -0.2630     16.4250      1.7700     78.3900
    111     -0.1220     -0.0890     16.5310      1.6800     78.3900
    112     -0.2460      1.0330     17.1980      1.7700     78.3900
    113     -1.1960      1.5000     17.4790      0.0100     78.3900
    114      3.3890     -1.1220     15.8570      1.6800     78.3900
    115      3.8950     -0.0520     16.4750      1.7700     78.3900
    116      4.9890      0.0030     16.4880      0.0100     78.3900
    117      3.2590      0.9330     17.1230      1.6800     78.3900
    118      1.9260      0.7680     17.0470      1.7700     78.3900
    119      2.0430     -1.2520     15.8060      1.7700     78.3900
    120      1.5360     -2.2940     15.1520      1.6800     78.3900
    121      0.5560     -2.5190     15.2020      0.0100     78.3900
    122      2.1280     -2.9000     14.6130      0.0100     78.3900
    123      1.1530      4.0950     17.5390      1.7700     78.3900
    124      0.2810      4.1080     16.8590      0.0100     78.3900
    125      2.3440      4.3410     16.8090      1.5900     78.3900
    126      2.6060      3.5300     16.3530      0.0100     78.3900
    127      0.9060      5.1010     18.6700      1.7700     78.3900
    128      0.3710      5.9830     18.2440      0.0100     78.3900
    129      2.1090      5.4740     19.3790      1.5900     78.3900
    130      2.1410      6.8140     20.2050      2.1000     78.3900
    131      3.5410      7.1460     20.5450      1.5900     78.3900
    132      1.3620      7.8590     19.5150      1.5900     78.3900
    133      1.3850      6.4760     21.5390      1.5900     78.3900
    134      1.8630      5.5040     22.4850      1.7700     78.3900
    135      2.9350      5.6790     22.7340      0.0100     78.3900
    136      1.7710      4.4870     22.0500      0.0100     78.3900
    137      1.0310      5.5680     23.7820      1.7700     78.3900
    138      1.0790      6.5960     24.2090      0.0100     78.3900
    139     -0.3610      5.2090     23.5160      1.5900     78.3900
    140     -0.6430      3.9300     24.0640      1.7700     78.3900
    141     -1.2620      4.1200     24.9670      0.0100     78.3900
    142     -1.4050      3.0800     23.1130      1.6800     78.3900
    143     -1.0070      2.0240     22.3140      1.7700     78.3900
    144      1.4820     -0.0830     21.2570      1.6800     78.3900
    145      1.6490     -0.8910     20.6900      0.0100     78.3900
    146      2.2150      0.2310     21.8600      0.0100     78.3900
    147      0.2300      1.5060     22.2220      1.6800     78.3900
    148      0.3130      0.4870     21.4170      1.7700     78.3900
    149     -0.7530     -0.0080     20.7210      1.6800     78.3900
    150     -0.6040     -0.8100     20.1280      0.0100     78.3900
    151     -2.0440      0.5030     20.7600      1.7700     78.3900
    152     -2.9550      0.0020     20.0920      1.5900     78.3900
    153     -2.1410      1.6140     21.6430      1.7700     78.3900
    154     -3.2310      2.4020     21.9820      1.6800     78.3900
    155     -2.7470      3.2600     22.8520      1.7700     78.3900
    156     -3.3210      4.0550     23.3350      0.0100     78.3900
    157      0.6790      3.3340     24.5210      1.7700     78.3900
    158      1.2450      2.8370     23.7170      0.0100     78.3900
    159      0.5580      2.4680     25.6310      1.5900     78.3900
    160      0.2170      3.0150     26.3510      0.0100     78.3900
    161      1.5050      4.5530     24.8380      1.7700     78.3900
    162      2.5610      4.3110     24.5660      0.0100     78.3900
    163      1.3430      5.0110     26.2030      1.5900     78.3900
    164      2.6290      5.1410     27.1040      2.1000     78.3900
    165      3.7320      4.3400     26.5240      1.5900     78.3900
    166      2.8870      6.5780     27.3320      1.5900     78.3900
    167      2.2010      4.4850     28.4670      1.5900     78.3900
    168      2.1060      3.0600     28.6670      1.7700     78.3900
    169      2.9810      2.7090     29.2570      0.0100     78.3900
    170      2.1160      2.5060     27.7040      0.0100     78.3900
    171      0.8150      2.6440     29.4030      1.7700     78.3900
    172      0.7040      1.5370     29.3460      0.0100     78.3900
    173      0.8730      3.0160     30.8120      1.5900     78.3900
    174     -0.0850      4.0270     31.0890      1.7700     78.3900
    175     -0.9350      3.4980     31.5800      0.0100     78.3900
    176      0.5060      5.0780     31.9450      1.6800     78.3900
    177      1.7340      5.6080     31.6210      1.7700     78.3900
    178      2.2100      5.1790     30.7370      0.0100     78.3900
    179     -0.2030      5.5370     33.0300      1.7700     78.3900
    180     -1.3240      5.1260     33.3140      1.5900     78.3900
    181      0.4440      6.4860     33.7790      1.6800     78.3900
    182     -0.0440      6.8000     34.6040      0.0100     78.3900
    183      1.6980      7.0190     33.5550      1.7700     78.3900
    184      2.1660      7.8520     34.3310      1.5900     78.3900
    185      2.3510      6.5210     32.3820      1.7700     78.3900
    186      3.3420      6.8930     32.1380      0.0100     78.3900
    187     -0.5540      4.5760     29.7660      1.7700     78.3900
    188      0.1650      5.3360     29.3890      0.0100     78.3900
    189     -1.8340      5.1780     29.8410      1.5900     78.3900
    190     -2.5170      4.4800     29.8190      0.0100     78.3900
    191     -0.4640      3.3220     28.8770      1.7700     78.3900
    192     -0.2480      3.6340     27.8330      0.0100     78.3900
    193     -1.5820      2.4060     28.9290      1.5900     78.3900
    194     -2.8850      2.7990     28.1410      2.1000     78.3900
    195     -3.7950      3.4110     29.1380      1.5900     78.3900
    196     -2.4950      3.6120     26.9740      1.5900     78.3900
    197     -3.4560      1.4150     27.6510      1.5900     78.3900
    198     -4.8770      1.3760     27.3410      1.7700     78.3900
    199     -5.2270      2.3050     26.8260      0.0100     78.3900
    200     -5.4660      1.2500     28.2780      0.0100     78.3900
    201     -5.2300      0.2270     26.4000      1.7700     78.3900
    202     -6.3250      0.1950     26.1870      0.0100     78.3900
    203     -4.5470      0.4260     25.1310      1.5900     78.3900
    204     -4.1100     -0.8270     24.6300      1.7700     78.3900
    205     -4.5420     -0.9330     23.6090      0.0100     78.3900
    206     -2.6450     -0.8900     24.5410      1.6800     78.3900
    207     -1.9060     -1.8230     23.8580      1.7700     78.3900
    208     -1.6890     -4.6360     21.8520      1.6800     78.3900
    209     -2.6420     -4.9070     21.7300      0.0100     78.3900
    210     -0.9610     -5.2320     21.4990      0.0100     78.3900
    211     -2.3940     -2.8540     23.1410      1.6800     78.3900
    212     -1.4180     -3.5730     22.5790      1.7700     78.3900
    213     -0.0900     -3.2820     22.7170      1.6800     78.3900
    214      0.5790     -3.8900     22.2670      0.0100     78.3900
    215      0.4410     -2.2380     23.4510      1.7700     78.3900
    216      1.6630     -2.0760     23.5130      1.5900     78.3900
    217     -0.5860     -1.4720     24.0650      1.7700     78.3900
    218     -0.5020     -0.3530     24.8650      1.6800     78.3900
    219     -1.7430     -0.0240     25.1130      1.7700     78.3900
    220     -2.0630      0.8420     25.6990      0.0100     78.3900
    221     -4.6740     -1.9010     25.5440      1.7700     78.3900
    222     -4.0060     -2.7820     25.6280      0.0100     78.3900
    223     -5.9440     -2.3130     25.0820      1.5900     78.3900
    224     -6.3340     -2.8560     25.7790      0.0100     78.3900
    225     -4.7780     -1.1570     26.8670      1.7700     78.3900
    226     -3.7590     -1.0170     27.2930      0.0100     78.3900
    227     -5.7380     -1.7020     27.8060      1.5900     78.3900
    228     -5.1920     -2.4990     29.0580      2.1000     78.3900
    229     -3.9630     -1.8640     29.5800      1.5900     78.3900
    230     -6.2780     -2.7090     30.0400      1.5900     78.3900
    231     -4.8000     -3.8980     28.4430      1.5900     78.3900
    232     -5.8570     -4.7500     27.9300      1.7700     78.3900
    233     -6.4710     -4.2240     27.1640      0.0100     78.3900
    234     -6.5390     -5.0640     28.7570      0.0100     78.3900
    235     -5.2810     -6.0200     27.2870      1.7700     78.3900
    236     -6.0950     -6.7100     26.9760      0.0100     78.3900
    237     -4.5320     -5.6710     26.0870      1.5900     78.3900
    238     -3.3750     -6.4910     25.9980      1.7700     78.3900
    239     -3.4300     -6.9930     25.0040      0.0100     78.3900
    240     -2.1260     -5.6790     26.0860      1.6800     78.3900
    241     -2.1330     -4.4090     26.6220      1.7700     78.3900
    242     -3.1030     -4.0470     26.9540      0.0100     78.3900
    243     -0.9570     -6.2320     25.6180      1.7700     78.3900
    244     -0.8980     -7.3710     25.1710      1.5900     78.3900
    245      0.1430     -5.4180     25.6960      1.6800     78.3900
    246      1.0080     -5.8230     25.3550      0.0100     78.3900
    247      0.2090     -4.1470     26.2210      1.7700     78.3900
    248      1.2830     -3.5520     26.2480      1.5900     78.3900
    249     -1.0410     -3.6360     26.6900      1.7700     78.3900
    250     -1.0810     -2.6230     27.0840      0.0100     78.3900
    251     -3.4790     -7.5470     27.0960      1.7700     78.3900
    252     -2.4790     -7.8300     27.4920      0.0100     78.3900
    253     -4.1530     -8.6980     26.6060      1.5900     78.3900
    254     -4.3340     -9.3030     27.3460      0.0100     78.3900
    255     -4.2870     -6.8010     28.1530      1.7700     78.3900
    256     -3.6390     -6.0730     28.6870      0.0100     78.3900
    257     -4.9890     -7.6430     29.0850      1.5900     78.3900
    258     -4.3560     -8.1490     29.6280      0.0100     78.3900
    259     10.5550     -7.5970     21.6970      0.0100     78.3900
    260      9.6370     -7.9210     21.7730      1.5900     78.3900
    261      9.6710     -9.3380     21.5430      1.7700     78.3900
    262     10.3260     -9.8220     22.3040      0.0100     78.3900
    263     10.1170     -9.5300     20.5440      0.0100     78.3900
    264      8.2850     -9.9910     21.5940      1.7700     78.3900
    265      8.3480    -11.0740     21.3470      0.0100     78.3900
    266      7.7300     -9.8790     22.9410      1.5900     78.3900
    267      6.3350     -9.6280     22.8500      1.7700     78.3900
    268      5.8310    -10.4230     23.4500      0.0100     78.3900
    269      5.9890     -8.3110     23.3950      1.6800     78.3900
    270      4.9000     -6.6140     24.2780      1.7700     78.3900
    271      6.2200     -6.2010     24.1470      1.6800     78.3900
    272      6.8240     -7.2390     23.6140      1.7700     78.3900
    273      7.8900     -7.2940     23.3740      0.0100     78.3900
    274      2.5830     -6.6690     24.7620      1.6800     78.3900
    275      2.5820     -7.9020     24.2440      1.7700     78.3900
    276      1.6120     -8.4110     24.2420      0.0100     78.3900
    277      3.6040     -8.6140     23.7560      1.6800     78.3900
    278      4.7450     -7.9080     23.8080      1.7700     78.3900
    279      3.7500     -5.9770     24.7930      1.7700     78.3900
    280      3.7600     -4.7370     25.3190      1.6800     78.3900
    281      4.5930     -4.1700     25.3240      0.0100     78.3900
    282      2.9050     -4.3150     25.6310      0.0100     78.3900
    283      5.9410     -9.7670     21.3980      1.7700     78.3900
    284      5.0980     -9.1030     21.1130      0.0100     78.3900
    285      5.6060    -11.1130     21.1260      1.5900     78.3900
    286      5.4660    -11.1760     20.1720      0.0100     78.3900
    287      7.2240     -9.3520     20.6880      1.7700     78.3900
    288      7.3670     -8.2490     20.7580      0.0100     78.3900
    289      7.3640     -9.8540     19.3410      1.5900     78.3900
    290      6.8840     -8.9740     18.1270      2.1000     78.3900
    291      7.4370     -7.6140     18.2890      1.5900     78.3900
    292      7.1870     -9.6800     16.8630      1.5900     78.3900
    293      5.3270     -8.9080     18.3290      1.5900     78.3900
    294      4.4920    -10.0640     18.0850      1.7700     78.3900
    295      4.8190    -10.9390     18.6880      0.0100     78.3900
    296      4.5520    -10.3600     17.0160      0.0100     78.3900
    297      3.0120     -9.8090     18.4250      1.7700     78.3900
    298      2.4200    -10.7390     18.2670      0.0100     78.3900
    299      2.8610     -9.4540     19.8330      1.5900     78.3900
    300      1.8440     -8.4590     19.9490      1.7700     78.3900
    301      1.1040     -8.8880     20.6630      0.0100     78.3900
    302      2.3240     -7.1670     20.4950      1.6800     78.3900
    303      3.6520     -6.8290     20.4020      1.7700     78.3900
    304      4.2930     -7.5580     19.9040      0.0100     78.3900
    305      4.1160     -5.6850     20.9210      1.7700     78.3900
    306      5.1700     -5.4160     20.8880      0.0100     78.3900
    307      1.4180     -6.2690     21.0580      1.7700     78.3900
    308      0.2100     -6.5520     21.0790      1.5900     78.3900
    309      1.8700     -5.1110     21.5870      1.6800     78.3900
    310      3.1800     -4.8180     21.5570      1.7700     78.3900
    311      3.6040     -3.6920     22.1220      1.6800     78.3900
    312      2.9320     -3.0760     22.5400      0.0100     78.3900
    313      4.5370     -3.3580     21.9900      0.0100     78.3900
    314      1.1810     -8.3170     18.5990      1.7700     78.3900
    315      0.8040     -7.2900     18.3900      0.0100     78.3900
    316      0.1230     -9.2570     18.4990      1.5900     78.3900
    317     -0.0970     -9.3030     17.5600      0.0100     78.3900
    318      2.3240     -8.6700     17.6620      1.7700     78.3900
    319      3.0630     -7.8390     17.5990      0.0100     78.3900
    320      1.8910     -9.1390     16.3780      1.5900     78.3900
    321      1.7610     -8.1740     15.1490      2.1000     78.3900
    322      2.9880     -7.3480     15.0820      1.5900     78.3900
    323      1.4490     -9.0240     13.9810      1.5900     78.3900
    324      0.5190     -7.2720     15.4750      1.5900     78.3900
    325     -0.8310     -7.7550     15.5690      1.7700     78.3900
    326     -0.9520     -8.3810     16.4750      0.0100     78.3900
    327     -1.0790     -8.3810     14.6800      0.0100     78.3900
    328     -1.8760     -6.6270     15.6700      1.7700     78.3900
    329     -2.8950     -7.0760     15.6430      0.0100     78.3900
    330     -1.7510     -5.9040     16.9370      1.5900     78.3900
    331     -1.5810     -4.5280     16.6610      1.7700     78.3900
    332     -2.6060     -4.0800     16.6250      0.0100     78.3900
    333     -0.7310     -3.8450     17.6510      1.6800     78.3900
    334      0.6220     -3.9880     17.8680      1.7700     78.3900
    335      3.6690     -5.2510     16.8610      1.6800     78.3900
    336      4.6360     -5.0180     16.9430      0.0100     78.3900
    337      3.3660     -5.9240     16.1760      0.0100     78.3900
    338      1.4580     -4.8090     17.2150      1.6800     78.3900
    339      2.7260     -4.5630     17.4590      1.7700     78.3900
    340      3.1460     -3.6280     18.3600      1.6800     78.3900
    341      4.1320     -3.4740     18.4730      0.0100     78.3900
    342      2.3100     -2.7950     19.0800      1.7700     78.3900
    343      2.7760     -1.9700     19.8610      1.5900     78.3900
    344      0.9390     -3.0520     18.8240      1.7700     78.3900
    345     -0.1960     -2.3970     19.2730      1.6800     78.3900
    346     -1.1640     -2.8920     18.5410      1.7700     78.3900
    347     -2.2160     -2.6000     18.6090      0.0100     78.3900
    348     -0.9950     -4.4530     15.2790      1.7700     78.3900
    349      0.0750     -4.7550     15.2680      0.0100     78.3900
    350     -1.1300     -3.1590     14.7250      1.5900     78.3900
    351     -1.1690     -3.2580     13.7590      0.0100     78.3900
    352     -1.7740     -5.5560     14.5630      1.7700     78.3900
    353     -1.1380     -6.0000     13.7610      0.0100     78.3900
    354     -3.0740     -5.1850     14.0610      1.5900     78.3900
    355     -3.2450     -4.3580     12.7330      2.1000     78.3900
    356     -4.0880     -5.1720     11.8400      1.5900     78.3900
    357     -3.7530     -3.0160     13.0890      1.5900     78.3900
    358     -1.7800     -4.1970     12.1430      1.5900     78.3900
    359     -1.5900     -4.2110     10.7110      1.7700     78.3900
    360     -2.2600     -3.4730     10.2130      0.0100     78.3900
    361     -1.8240     -5.2300     10.3030      0.0100     78.3900
    362     -0.1450     -3.8980     10.2720      1.7700     78.3900
    363     -0.0670     -4.1450      9.1950      0.0100     78.3900
    364      0.1820     -2.4890     10.3820      1.5900     78.3900
    365      1.1780     -2.3030     11.3720      1.7700     78.3900
    366      2.1420     -2.1760     10.8270      0.0100     78.3900
    367      0.8960     -1.1100     12.1590      1.6800     78.3900
    368      1.0740      0.7750     13.2560      1.7700     78.3900
    369     -0.2790      0.4830     13.2070      1.6800     78.3900
    370     -0.3370     -0.6470     12.5530      1.7700     78.3900
    371     -1.2520     -1.1940     12.3090      0.0100     78.3900
    372      3.1380      1.8420     13.7310      1.6800     78.3900
    373      3.7100      0.8400     13.0530      1.7700     78.3900
    374      4.8020      0.8850     12.9940      0.0100     78.3900
    375      3.1440     -0.1910     12.4110      1.6800     78.3900
    376      1.8110     -0.1860     12.5990      1.7700     78.3900
    377      1.7910      1.8300     13.8480      1.7700     78.3900
    378      1.2030      2.8240     14.5100      1.6800     78.3900
    379      0.1950      2.8780     14.5430      0.0100     78.3900
    380      1.6860      3.6930     14.5760      0.0100     78.3900
    381      1.2560     -3.5810     12.1700      1.7700     78.3900
    382      0.4620     -3.6180     12.9380      0.0100     78.3900
    383      2.5150     -3.7760     12.7820      1.5900     78.3900
    384      3.1680     -3.9340     12.0770      0.0100     78.3900
    385      0.9630     -4.6090     11.0790      1.7700     78.3900
    386      0.5410     -5.5210     11.5670      0.0100     78.3900
    387      2.1180     -4.9070     10.2570      1.5900     78.3900
    388      2.1180     -6.2460      9.4140      2.1000     78.3900
    389      3.4920     -6.4920      8.9270      1.5900     78.3900
    390      1.4770     -7.3340     10.1850      1.5900     78.3900
    391      1.2010     -5.9550      8.1770      1.5900     78.3900
    392      1.5100     -4.9590      7.1860      1.7700     78.3900
    393      2.5740     -5.0460      6.8560      0.0100     78.3900
    394      1.3810     -3.9470      7.6230      0.0100     78.3900
    395      0.5330     -5.1090      5.9960      1.7700     78.3900
    396      0.6120     -6.1380      5.5790      0.0100     78.3900
    397     -0.8380     -4.8710      6.4490      1.5900     78.3900
    398     -1.3300     -3.6550      5.9100      1.7700     78.3900
    399     -2.0250     -3.9530      5.0940      0.0100     78.3900
    400     -2.0740     -2.8620      6.9320      1.6800     78.3900
    401     -1.7170     -1.7430      7.6630      1.7700     78.3900
    402      0.5510      0.7240      8.3100      1.6800     78.3900
    403      0.7210      1.5230      8.8880      0.0100     78.3900
    404      1.2500      0.4560      7.6500      0.0100     78.3900
    405     -0.5540     -1.0810      7.5950      1.6800     78.3900
    406     -0.5140     -0.0270      8.3550      1.7700     78.3900
    407     -1.5170      0.3390      9.2030      1.6800     78.3900
    408     -1.3810      1.1750      9.7490      0.0100     78.3900
    409     -2.7200     -0.3340      9.3520      1.7700     78.3900
    410     -3.5680      0.0600     10.1600      1.5900     78.3900
    411     -2.8010     -1.4540      8.4720      1.7700     78.3900
    412     -3.8270     -2.3620      8.2610      1.6800     78.3900
    413     -3.3530     -3.1760      7.3420      1.7700     78.3900
    414     -3.8880     -4.0390      6.9360      0.0100     78.3900
    415     -0.1440     -2.9340      5.2900      1.7700     78.3900
    416      0.4540     -2.3700      6.0240      0.0100     78.3900
    417     -0.5250     -2.1070      4.2120      1.5900     78.3900
    418     -0.9800     -2.6700      3.5760      0.0100     78.3900
    419      0.7560     -4.0780      4.8680      1.7700     78.3900
    420      1.8110     -3.7280      4.9770      0.0100     78.3900
    421      0.4600     -4.5890      3.5480      1.5900     78.3900
    422      1.5850     -4.6390      2.4460      2.1000     78.3900
    423      2.7480     -3.7990      2.8300      1.5900     78.3900
    424      1.8860     -6.0530      2.1330      1.5900     78.3900
    425      0.8840     -4.0070      1.1860      1.5900     78.3900
    426      0.6160     -2.5970      1.0250      1.7700     78.3900
    427      1.3620     -2.1570      0.3260      0.0100     78.3900
    428      0.7270     -2.0500      1.9830      0.0100     78.3900
    429     -0.7950     -2.2870      0.4690      1.7700     78.3900
    430     -0.9880     -1.1940      0.5660      0.0100     78.3900
    431     -0.8810     -2.6170     -0.9550      1.5900     78.3900
    432     -1.7900     -3.6940     -1.1360      1.7700     78.3900
    433     -2.7420     -3.2230     -1.4780      0.0100     78.3900
    434     -1.2510     -4.6750     -2.1080      1.6800     78.3900
    435      0.0040     -5.2010     -1.9130      1.7700     78.3900
    436      0.5300     -4.8390     -1.0270      0.0100     78.3900
    437     -2.0160     -5.0490     -3.1870      1.7700     78.3900
    438     -3.1410     -4.6010     -3.3880      1.5900     78.3900
    439     -1.4270     -5.9630     -4.0250      1.6800     78.3900
    440     -1.9640     -6.2260     -4.8360      0.0100     78.3900
    441     -0.1610     -6.5020     -3.9180      1.7700     78.3900
    442      0.2550     -7.2880     -4.7700      1.5900     78.3900
    443      0.5630     -6.0790     -2.7590      1.7700     78.3900
    444      1.5620     -6.4750     -2.5860      0.0100     78.3900
    445     -2.0190     -4.3080      0.2280      1.7700     78.3900
    446     -1.1820     -4.9870      0.4900      0.0100     78.3900
    447     -3.2270     -5.0360      0.3240      1.5900     78.3900
    448     -3.9610     -4.4200      0.5110      0.0100     78.3900
    449     -1.9460     -3.0680      1.1270      1.7700     78.3900
    450     -1.5890     -3.3650      2.1370      0.0100     78.3900
    451     -3.1420     -2.2520      1.2040      1.5900     78.3900
    452     -4.2790     -2.6610      2.2070      2.1000     78.3900
    453     -5.1950     -3.5760      1.4850      1.5900     78.3900
    454     -3.6570     -3.1990      3.4340      1.5900     78.3900
    455     -5.0280     -1.3170      2.5540      1.5900     78.3900
    456     -6.3730     -1.3990      3.1050      1.7700     78.3900
    457     -6.5700     -2.3610      3.6410      0.0100     78.3900
    458     -7.1200     -1.3070      2.2840      0.0100     78.3900
    459     -6.6520     -0.2770      4.1100      1.7700     78.3900
    460     -7.7060     -0.3130      4.4630      0.0100     78.3900
    461     -5.8090     -0.4460      5.2810      1.5900     78.3900
    462     -5.3980      0.8290      5.7550      1.7700     78.3900
    463     -5.6880      0.8900      6.8280      0.0100     78.3900
    464     -3.9450      0.9990      5.6290      1.6800     78.3900
    465     -3.1950      2.0160      6.1660      1.7700     78.3900
    466     -2.9390      4.9020      8.0690      1.6800     78.3900
    467     -3.8870      5.1140      8.2990      0.0100     78.3900
    468     -2.2180      5.5530      8.3190      0.0100     78.3900
    469     -3.6580      3.0300      6.9210      1.6800     78.3900
    470     -2.6810      3.8420      7.3280      1.7700     78.3900
    471     -1.3660      3.6580      6.9940      1.6800     78.3900
    472     -0.6850      4.3070      7.3590      0.0100     78.3900
    473     -0.8630      2.6330      6.2080      1.7700     78.3900
    474      0.3460      2.5510      5.9700      1.5900     78.3900
    475     -1.8980      1.7670      5.7680      1.7700     78.3900
    476     -1.8350      0.6290      4.9860      1.6800     78.3900
    477     -3.0670      0.1880      4.9410      1.7700     78.3900
    478     -3.3970     -0.7350      4.4510      0.0100     78.3900
    479     -6.1480      1.8750      4.9500      1.7700     78.3900
    480     -5.5610      2.8050      4.8000      0.0100     78.3900
    481     -7.3780      2.1910      5.5710      1.5900     78.3900
    482     -7.8700      2.7450      4.9510      0.0100     78.3900
    483     -6.3550      1.1450      3.6310      1.7700     78.3900
    484     -5.3880      1.0910      3.0770      0.0100     78.3900
    485     -7.4580      1.6360      2.8380      1.5900     78.3900
    486     -7.1730      2.4420      1.5180      2.1000     78.3900
    487     -5.9580      1.9190      0.8570      1.5900     78.3900
    488     -8.4070      2.4640      0.6990      1.5900     78.3900
    489     -6.8490      3.8890      2.0590      1.5900     78.3900
    490     -7.8320      4.6590      2.7880      1.7700     78.3900
    491     -8.2620      4.0810      3.6380      0.0100     78.3900
    492     -8.6730      4.9340      2.1150      0.0100     78.3900
    493     -7.2440      5.9680      3.3370      1.7700     78.3900
    494     -8.0440      6.6160      3.7520      0.0100     78.3900
    495     -6.3160      5.6790      4.4260      1.5900     78.3900
    496     -5.2030      6.5630      4.3360      1.7700     78.3900
    497     -5.1390      7.0730      5.3280      0.0100     78.3900
    498     -3.9360      5.8260      4.0540      1.6800     78.3900
    499     -3.9380      4.5780      3.4670      1.7700     78.3900
    500     -4.9240      4.1450      3.3010      0.0100     78.3900
    501     -2.7520      6.4480      4.3730      1.7700     78.3900
    502     -2.7080      7.5730      4.8570      1.5900     78.3900
    503     -1.6230      5.7220      4.1050      1.6800     78.3900
    504     -0.7480      6.1830      4.3290      0.0100     78.3900
    505     -1.5460      4.4790      3.5200      1.7700     78.3900
    506     -0.4470      3.9660      3.3200      1.5900     78.3900
    507     -2.8150      3.8920      3.2080      1.7700     78.3900
    508     -2.8420      2.8850      2.7950      0.0100     78.3900
    509     -5.5240      7.6030      3.2680      1.7700     78.3900
    510     -4.6090      7.9380      2.7340      0.0100     78.3900
    511     -6.1800      8.7210      3.8530      1.5900     78.3900
    512     -6.5410      9.2960      3.1520      0.0100     78.3900
    513     -6.4280      6.8020      2.3380      1.7700     78.3900
    514     -5.8210      6.1070      1.7220      0.0100     78.3900
    515     -7.2910      7.5990      1.5050      1.5900     78.3900
    516     -6.7590      8.1350      0.8860      0.0100     78.3900

     ----------------------------
     INPUT FOR TESSERA DEFINITION
     ----------------------------
     NTSALL  =        60     MTHALL  =         4
     MTHAUT  =         0     AUTFRE  =    2.0000
     NTSFRZ  =        60     KEEPSM  =         0
     AREAKP  =   10.0000     BONDRY  =    1.0000
     AREATL  =    0.0100

     SPHERE     INITS       METHOD
          1        60       FIXPVA
          2        60       FIXPVA
          3        60       FIXPVA
          4        60       FIXPVA
          5        60       FIXPVA
          6        60       FIXPVA
          7        60       FIXPVA
          8        60       FIXPVA
          9        60       FIXPVA
         10        60       FIXPVA
         11        60       FIXPVA
         12        60       FIXPVA
         13        60       FIXPVA
         14        60       FIXPVA
         15        60       FIXPVA
         16        60       FIXPVA
         17        60       FIXPVA
         18        60       FIXPVA
         19        60       FIXPVA
         20        60       FIXPVA
         21        60       FIXPVA
         22        60       FIXPVA
         23        60       FIXPVA
         24        60       FIXPVA
         25        60       FIXPVA
         26        60       FIXPVA
         27        60       FIXPVA
         28        60       FIXPVA
         29        60       FIXPVA
         30        60       FIXPVA
         31        60       FIXPVA
         32        60       FIXPVA
         33        60       FIXPVA
         34        60       FIXPVA
         35        60       FIXPVA
         36        60       FIXPVA
         37        60       FIXPVA
         38        60       FIXPVA
         39        60       FIXPVA
         40        60       FIXPVA
         41        60       FIXPVA
         42        60       FIXPVA
         43        60       FIXPVA
         44        60       FIXPVA
         45        60       FIXPVA
         46        60       FIXPVA
         47        60       FIXPVA
         48        60       FIXPVA
         49        60       FIXPVA
         50        60       FIXPVA
         51        60       FIXPVA
         52        60       FIXPVA
         53        60       FIXPVA
         54        60       FIXPVA
         55        60       FIXPVA
         56        60       FIXPVA
         57        60       FIXPVA
         58        60       FIXPVA
         59        60       FIXPVA
         60        60       FIXPVA
         61        60       FIXPVA
         62        60       FIXPVA
         63        60       FIXPVA
         64        60       FIXPVA
         65        60       FIXPVA
         66        60       FIXPVA
         67        60       FIXPVA
         68        60       FIXPVA
         69        60       FIXPVA
         70        60       FIXPVA
         71        60       FIXPVA
         72        60       FIXPVA
         73        60       FIXPVA
         74        60       FIXPVA
         75        60       FIXPVA
         76        60       FIXPVA
         77        60       FIXPVA
         78        60       FIXPVA
         79        60       FIXPVA
         80        60       FIXPVA
         81        60       FIXPVA
         82        60       FIXPVA
         83        60       FIXPVA
         84        60       FIXPVA
         85        60       FIXPVA
         86        60       FIXPVA
         87        60       FIXPVA
         88        60       FIXPVA
         89        60       FIXPVA
         90        60       FIXPVA
         91        60       FIXPVA
         92        60       FIXPVA
         93        60       FIXPVA
         94        60       FIXPVA
         95        60       FIXPVA
         96        60       FIXPVA
         97        60       FIXPVA
         98        60       FIXPVA
         99        60       FIXPVA
        100        60       FIXPVA
        101        60       FIXPVA
        102        60       FIXPVA
        103        60       FIXPVA
        104        60       FIXPVA
        105        60       FIXPVA
        106        60       FIXPVA
        107        60       FIXPVA
        108        60       FIXPVA
        109        60       FIXPVA
        110        60       FIXPVA
        111        60       FIXPVA
        112        60       FIXPVA
        113        60       FIXPVA
        114        60       FIXPVA
        115        60       FIXPVA
        116        60       FIXPVA
        117        60       FIXPVA
        118        60       FIXPVA
        119        60       FIXPVA
        120        60       FIXPVA
        121        60       FIXPVA
        122        60       FIXPVA
        123        60       FIXPVA
        124        60       FIXPVA
        125        60       FIXPVA
        126        60       FIXPVA
        127        60       FIXPVA
        128        60       FIXPVA
        129        60       FIXPVA
        130        60       FIXPVA
        131        60       FIXPVA
        132        60       FIXPVA
        133        60       FIXPVA
        134        60       FIXPVA
        135        60       FIXPVA
        136        60       FIXPVA
        137        60       FIXPVA
        138        60       FIXPVA
        139        60       FIXPVA
        140        60       FIXPVA
        141        60       FIXPVA
        142        60       FIXPVA
        143        60       FIXPVA
        144        60       FIXPVA
        145        60       FIXPVA
        146        60       FIXPVA
        147        60       FIXPVA
        148        60       FIXPVA
        149        60       FIXPVA
        150        60       FIXPVA
        151        60       FIXPVA
        152        60       FIXPVA
        153        60       FIXPVA
        154        60       FIXPVA
        155        60       FIXPVA
        156        60       FIXPVA
        157        60       FIXPVA
        158        60       FIXPVA
        159        60       FIXPVA
        160        60       FIXPVA
        161        60       FIXPVA
        162        60       FIXPVA
        163        60       FIXPVA
        164        60       FIXPVA
        165        60       FIXPVA
        166        60       FIXPVA
        167        60       FIXPVA
        168        60       FIXPVA
        169        60       FIXPVA
        170        60       FIXPVA
        171        60       FIXPVA
        172        60       FIXPVA
        173        60       FIXPVA
        174        60       FIXPVA
        175        60       FIXPVA
        176        60       FIXPVA
        177        60       FIXPVA
        178        60       FIXPVA
        179        60       FIXPVA
        180        60       FIXPVA
        181        60       FIXPVA
        182        60       FIXPVA
        183        60       FIXPVA
        184        60       FIXPVA
        185        60       FIXPVA
        186        60       FIXPVA
        187        60       FIXPVA
        188        60       FIXPVA
        189        60       FIXPVA
        190        60       FIXPVA
        191        60       FIXPVA
        192        60       FIXPVA
        193        60       FIXPVA
        194        60       FIXPVA
        195        60       FIXPVA
        196        60       FIXPVA
        197        60       FIXPVA
        198        60       FIXPVA
        199        60       FIXPVA
        200        60       FIXPVA
        201        60       FIXPVA
        202        60       FIXPVA
        203        60       FIXPVA
        204        60       FIXPVA
        205        60       FIXPVA
        206        60       FIXPVA
        207        60       FIXPVA
        208        60       FIXPVA
        209        60       FIXPVA
        210        60       FIXPVA
        211        60       FIXPVA
        212        60       FIXPVA
        213        60       FIXPVA
        214        60       FIXPVA
        215        60       FIXPVA
        216        60       FIXPVA
        217        60       FIXPVA
        218        60       FIXPVA
        219        60       FIXPVA
        220        60       FIXPVA
        221        60       FIXPVA
        222        60       FIXPVA
        223        60       FIXPVA
        224        60       FIXPVA
        225        60       FIXPVA
        226        60       FIXPVA
        227        60       FIXPVA
        228        60       FIXPVA
        229        60       FIXPVA
        230        60       FIXPVA
        231        60       FIXPVA
        232        60       FIXPVA
        233        60       FIXPVA
        234        60       FIXPVA
        235        60       FIXPVA
        236        60       FIXPVA
        237        60       FIXPVA
        238        60       FIXPVA
        239        60       FIXPVA
        240        60       FIXPVA
        241        60       FIXPVA
        242        60       FIXPVA
        243        60       FIXPVA
        244        60       FIXPVA
        245        60       FIXPVA
        246        60       FIXPVA
        247        60       FIXPVA
        248        60       FIXPVA
        249        60       FIXPVA
        250        60       FIXPVA
        251        60       FIXPVA
        252        60       FIXPVA
        253        60       FIXPVA
        254        60       FIXPVA
        255        60       FIXPVA
        256        60       FIXPVA
        257        60       FIXPVA
        258        60       FIXPVA
        259        60       FIXPVA
        260        60       FIXPVA
        261        60       FIXPVA
        262        60       FIXPVA
        263        60       FIXPVA
        264        60       FIXPVA
        265        60       FIXPVA
        266        60       FIXPVA
        267        60       FIXPVA
        268        60       FIXPVA
        269        60       FIXPVA
        270        60       FIXPVA
        271        60       FIXPVA
        272        60       FIXPVA
        273        60       FIXPVA
        274        60       FIXPVA
        275        60       FIXPVA
        276        60       FIXPVA
        277        60       FIXPVA
        278        60       FIXPVA
        279        60       FIXPVA
        280        60       FIXPVA
        281        60       FIXPVA
        282        60       FIXPVA
        283        60       FIXPVA
        284        60       FIXPVA
        285        60       FIXPVA
        286        60       FIXPVA
        287        60       FIXPVA
        288        60       FIXPVA
        289        60       FIXPVA
        290        60       FIXPVA
        291        60       FIXPVA
        292        60       FIXPVA
        293        60       FIXPVA
        294        60       FIXPVA
        295        60       FIXPVA
        296        60       FIXPVA
        297        60       FIXPVA
        298        60       FIXPVA
        299        60       FIXPVA
        300        60       FIXPVA
        301        60       FIXPVA
        302        60       FIXPVA
        303        60       FIXPVA
        304        60       FIXPVA
        305        60       FIXPVA
        306        60       FIXPVA
        307        60       FIXPVA
        308        60       FIXPVA
        309        60       FIXPVA
        310        60       FIXPVA
        311        60       FIXPVA
        312        60       FIXPVA
        313        60       FIXPVA
        314        60       FIXPVA
        315        60       FIXPVA
        316        60       FIXPVA
        317        60       FIXPVA
        318        60       FIXPVA
        319        60       FIXPVA
        320        60       FIXPVA
        321        60       FIXPVA
        322        60       FIXPVA
        323        60       FIXPVA
        324        60       FIXPVA
        325        60       FIXPVA
        326        60       FIXPVA
        327        60       FIXPVA
        328        60       FIXPVA
        329        60       FIXPVA
        330        60       FIXPVA
        331        60       FIXPVA
        332        60       FIXPVA
        333        60       FIXPVA
        334        60       FIXPVA
        335        60       FIXPVA
        336        60       FIXPVA
        337        60       FIXPVA
        338        60       FIXPVA
        339        60       FIXPVA
        340        60       FIXPVA
        341        60       FIXPVA
        342        60       FIXPVA
        343        60       FIXPVA
        344        60       FIXPVA
        345        60       FIXPVA
        346        60       FIXPVA
        347        60       FIXPVA
        348        60       FIXPVA
        349        60       FIXPVA
        350        60       FIXPVA
        351        60       FIXPVA
        352        60       FIXPVA
        353        60       FIXPVA
        354        60       FIXPVA
        355        60       FIXPVA
        356        60       FIXPVA
        357        60       FIXPVA
        358        60       FIXPVA
        359        60       FIXPVA
        360        60       FIXPVA
        361        60       FIXPVA
        362        60       FIXPVA
        363        60       FIXPVA
        364        60       FIXPVA
        365        60       FIXPVA
        366        60       FIXPVA
        367        60       FIXPVA
        368        60       FIXPVA
        369        60       FIXPVA
        370        60       FIXPVA
        371        60       FIXPVA
        372        60       FIXPVA
        373        60       FIXPVA
        374        60       FIXPVA
        375        60       FIXPVA
        376        60       FIXPVA
        377        60       FIXPVA
        378        60       FIXPVA
        379        60       FIXPVA
        380        60       FIXPVA
        381        60       FIXPVA
        382        60       FIXPVA
        383        60       FIXPVA
        384        60       FIXPVA
        385        60       FIXPVA
        386        60       FIXPVA
        387        60       FIXPVA
        388        60       FIXPVA
        389        60       FIXPVA
        390        60       FIXPVA
        391        60       FIXPVA
        392        60       FIXPVA
        393        60       FIXPVA
        394        60       FIXPVA
        395        60       FIXPVA
        396        60       FIXPVA
        397        60       FIXPVA
        398        60       FIXPVA
        399        60       FIXPVA
        400        60       FIXPVA
        401        60       FIXPVA
        402        60       FIXPVA
        403        60       FIXPVA
        404        60       FIXPVA
        405        60       FIXPVA
        406        60       FIXPVA
        407        60       FIXPVA
        408        60       FIXPVA
        409        60       FIXPVA
        410        60       FIXPVA
        411        60       FIXPVA
        412        60       FIXPVA
        413        60       FIXPVA
        414        60       FIXPVA
        415        60       FIXPVA
        416        60       FIXPVA
        417        60       FIXPVA
        418        60       FIXPVA
        419        60       FIXPVA
        420        60       FIXPVA
        421        60       FIXPVA
        422        60       FIXPVA
        423        60       FIXPVA
        424        60       FIXPVA
        425        60       FIXPVA
        426        60       FIXPVA
        427        60       FIXPVA
        428        60       FIXPVA
        429        60       FIXPVA
        430        60       FIXPVA
        431        60       FIXPVA
        432        60       FIXPVA
        433        60       FIXPVA
        434        60       FIXPVA
        435        60       FIXPVA
        436        60       FIXPVA
        437        60       FIXPVA
        438        60       FIXPVA
        439        60       FIXPVA
        440        60       FIXPVA
        441        60       FIXPVA
        442        60       FIXPVA
        443        60       FIXPVA
        444        60       FIXPVA
        445        60       FIXPVA
        446        60       FIXPVA
        447        60       FIXPVA
        448        60       FIXPVA
        449        60       FIXPVA
        450        60       FIXPVA
        451        60       FIXPVA
        452        60       FIXPVA
        453        60       FIXPVA
        454        60       FIXPVA
        455        60       FIXPVA
        456        60       FIXPVA
        457        60       FIXPVA
        458        60       FIXPVA
        459        60       FIXPVA
        460        60       FIXPVA
        461        60       FIXPVA
        462        60       FIXPVA
        463        60       FIXPVA
        464        60       FIXPVA
        465        60       FIXPVA
        466        60       FIXPVA
        467        60       FIXPVA
        468        60       FIXPVA
        469        60       FIXPVA
        470        60       FIXPVA
        471        60       FIXPVA
        472        60       FIXPVA
        473        60       FIXPVA
        474        60       FIXPVA
        475        60       FIXPVA
        476        60       FIXPVA
        477        60       FIXPVA
        478        60       FIXPVA
        479        60       FIXPVA
        480        60       FIXPVA
        481        60       FIXPVA
        482        60       FIXPVA
        483        60       FIXPVA
        484        60       FIXPVA
        485        60       FIXPVA
        486        60       FIXPVA
        487        60       FIXPVA
        488        60       FIXPVA
        489        60       FIXPVA
        490        60       FIXPVA
        491        60       FIXPVA
        492        60       FIXPVA
        493        60       FIXPVA
        494        60       FIXPVA
        495        60       FIXPVA
        496        60       FIXPVA
        497        60       FIXPVA
        498        60       FIXPVA
        499        60       FIXPVA
        500        60       FIXPVA
        501        60       FIXPVA
        502        60       FIXPVA
        503        60       FIXPVA
        504        60       FIXPVA
        505        60       FIXPVA
        506        60       FIXPVA
        507        60       FIXPVA
        508        60       FIXPVA
        509        60       FIXPVA
        510        60       FIXPVA
        511        60       FIXPVA
        512        60       FIXPVA
        513        60       FIXPVA
        514        60       FIXPVA
        515        60       FIXPVA
        516        60       FIXPVA

     ------------------------------
      FIXPVA TESSELLATION FOR PCM
         PEIFENG SU AND HUI LI
     UNIVERSITY OF NEBRASKA-LINCOLN
     ------------------------------


 PCM DIMENSIONS: MXSP=   516, MXTS=     20640, MEMORY=        212079

     INPUT FOR CAVITY DEFINITION 
     ---------------------------
   ATOM               COORDINATES                RADIUS       EPS
      1      9.0660      8.5610      6.7290      0.0100     78.3900
      2      8.1280      8.8300      6.7620      1.5900     78.3900
      3      8.1130     10.2380      7.0420      1.7700     78.3900
      4      8.6350     10.7810      6.2230      0.0100     78.3900
      5      8.6630     10.4300      7.9890      0.0100     78.3900
      6      6.6950     10.8030      7.1780      1.7700     78.3900
      7      6.7200     11.8880      7.4230      0.0100     78.3900
      8      5.9740     10.6400      5.9170      1.5900     78.3900
      9      4.6220     10.3010      6.1910      1.7700     78.3900
     10      3.9870     11.0550      5.6740      0.0100     78.3900
     11      4.2890      8.9680      5.6780      1.6800     78.3900
     12      3.1960      7.2160      4.9150      1.7700     78.3900
     13      4.5450      6.8890      4.8530      1.6800     78.3900
     14      5.1530      7.9610      5.3090      1.7700     78.3900
     15      6.2350      8.0820      5.3980      0.0100     78.3900
     16      0.8350      7.1260      4.7500      1.6800     78.3900
     17      0.8280      8.3490      5.2910      1.7700     78.3900
     18     -0.1630      8.7900      5.4400      0.0100     78.3900
     19      1.8610      9.1190      5.6510      1.6800     78.3900
     20      3.0260      8.4880      5.4350      1.7700     78.3900
     21      2.0290      6.5140      4.5420      1.7700     78.3900
     22      2.0460      5.2880      3.9870      1.6800     78.3900
     23      2.9080      4.8230      3.7690      0.0100     78.3900
     24      1.1890      4.8080      3.7790      0.0100     78.3900
     25      4.4210     10.4150      7.6840      1.7700     78.3900
     26      3.6610      9.7050      8.0750      0.0100     78.3900
     27      4.0510     11.7420      8.0050      1.5900     78.3900
     28      4.0430     11.7980      8.9670      0.0100     78.3900
     29      5.8130     10.0840      8.2090      1.7700     78.3900
     30      6.0170      8.9920      8.1060      0.0100     78.3900
     31      6.0990     10.5860      9.5310      1.5900     78.3900
     32      5.8300      9.6740     10.7850      2.1000     78.3900
     33      6.4150      8.3410     10.5420      1.5900     78.3900
     34      6.2910     10.3940     11.9910      1.5900     78.3900
     35      4.2660      9.5320     10.8210      1.5900     78.3900
     36      3.4310     10.6680     11.1310      1.7700     78.3900
     37      3.6400     11.5330     10.4670      0.0100     78.3900
     38      3.6100     11.0110     12.1740      0.0100     78.3900
     39      1.9480     10.3040     11.0030      1.7700     78.3900
     40      1.3130     11.1840     11.2380      0.0100     78.3900
     41      1.6260      9.9140      9.6360      1.5900     78.3900
     42      0.6450      8.8830      9.6740      1.7700     78.3900
     43     -0.2150      9.2720      9.0800      0.0100     78.3900
     44      1.1080      7.6100      9.0550      1.6800     78.3900
     45      2.4540      7.3410      8.9690      1.7700     78.3900
     46      3.1170      8.0970      9.3920      0.0100     78.3900
     47      2.9060      6.2330      8.3700      1.7700     78.3900
     48      3.9700      6.0220      8.2630      0.0100     78.3900
     49      0.1840      6.6780      8.5840      1.7700     78.3900
     50     -1.0300      6.9070      8.7090      1.5900     78.3900
     51      0.6250      5.5500      7.9790      1.6800     78.3900
     52      1.9430      5.3290      7.8350      1.7700     78.3900
     53      2.3560      4.2450      7.1840      1.6800     78.3900
     54      1.6740      3.6030      6.8280      0.0100     78.3900
     55      3.3220      3.9960      7.1140      0.0100     78.3900
     56      0.2090      8.7230     11.1170      1.7700     78.3900
     57     -0.0920      7.6830     11.3770      0.0100     78.3900
     58     -0.8460      9.6290     11.3840      1.5900     78.3900
     59     -0.8990      9.6770     12.3470      0.0100     78.3900
     60      1.4650      9.1380     11.8710      1.7700     78.3900
     61      2.2410      8.3420     11.8200      0.0100     78.3900
     62      1.2310      9.6070     13.2120      1.5900     78.3900
     63      1.2340      8.6170     14.4310      2.1000     78.3900
     64      2.4760      7.8170     14.3770      1.5900     78.3900
     65      1.0080      9.4220     15.6480      1.5900     78.3900
     66     -0.0030      7.6830     14.1970      1.5900     78.3900
     67     -1.3660      8.1220     14.3210      1.7700     78.3900
     68     -1.6540      8.7650     13.4710      0.0100     78.3900
     69     -1.5140      8.7070     15.2560      0.0100     78.3900
     70     -2.3480      6.9380     14.3200      1.7700     78.3900
     71     -3.3800      7.3250     14.4450      0.0100     78.3900
     72     -2.3110      6.2110     13.0500      1.5900     78.3900
     73     -2.0840      4.8380     13.3070      1.7700     78.3900
     74     -3.0920      4.3720     13.4130      0.0100     78.3900
     75     -1.3190      4.1930     12.2220      1.6800     78.3900
     76      0.0040      4.3760     11.8880      1.7700     78.3900
[...]
   464   15   7.0   0.00    0.0   -0.000133   -0.804108   -0.811601
   465   15   6.0   0.00    0.0    0.000189    0.699011    0.704026
   466   15   7.0  10.39   20.3   -0.082223   -0.976797   -1.051959
   467   15   1.0   0.00    0.0    0.000000    0.438609    0.434701
   468   15   1.0   0.00    0.0    0.000000    0.477653    0.518114
   469   15   7.0   5.17   10.1    0.088712   -0.762523   -0.761651
   470   15   6.0   0.00    0.0    0.000000    0.979744    0.977804
   471   15   7.0   0.00    0.0    0.000017   -0.928711   -1.018984
   472   15   1.0   0.00    0.0    0.000000    0.486693    0.546828
   473   15   6.0   0.00    0.0    0.000000    0.884661    0.896981
   474   15   8.0   7.22   15.8    0.147107   -0.756515   -0.758654
   475   15   6.0   0.00    0.0    0.000001   -0.058645   -0.047536
   476   15   7.0   5.25   10.3    0.132785   -0.574105   -0.588315
   477   15   6.0   1.33    2.4    0.011483    0.257236    0.248606
   478   15   1.0   0.00    0.0    0.000000    0.298504    0.315542
   479   15   6.0   0.00    0.0    0.000994    0.134125    0.107348
   480   15   1.0   0.00    0.0    0.000000    0.192453    0.216579
   481   15   8.0  16.48   36.0    0.089875   -0.826338   -0.843340
   482   15   1.0   0.00    0.0    0.000000    0.493503    0.516862
   483   15   6.0   1.15    2.0   -0.016359    0.140632    0.107686
   484   15   1.0   0.00    0.0    0.000000    0.250461    0.253392
   485   15   8.0   3.76    8.2    0.056193   -0.798703   -0.805627
   486   15  15.0   7.38    9.2    0.117953    1.606617    1.659156
   487   15   8.0  13.78   30.1    0.311578   -0.895334   -0.893317
   488   15   8.0  18.23   39.8    0.364309   -0.891651   -0.888745
   489   15   8.0   1.61    3.5    0.029151   -0.974239   -0.788925
   490   16   6.0  12.36   21.8   -0.096236    0.188154   -0.026660
   491   16   1.0   0.00    0.0    0.000000    0.181790    0.186803
   492   16   1.0   0.00    0.0    0.000000    0.235159    0.219773
   493   16   6.0   5.78   10.2   -0.050924    0.090730    0.145641
   494   16   1.0   0.00    0.0    0.000000    0.251146    0.226169
   495   16   8.0   4.88   10.7    0.056337   -0.727939   -0.735235
   496   16   6.0   3.95    7.0   -0.044801    0.407859    0.406698
   497   16   1.0   0.00    0.0    0.000000    0.264675    0.261507
   498   16   7.0   0.01    0.0   -0.000757   -0.828107   -0.834247
   499   16   6.0   1.96    3.5   -0.003797    0.193382    0.182380
   500   16   1.0   0.00    0.0    0.000000    0.302838    0.322464
   501   16   6.0   2.18    3.9   -0.011064    1.115454    1.114974
   502   16   8.0  11.01   24.1    0.169676   -0.686201   -0.689847
   503   16   7.0   2.56    5.0    0.005178   -0.930135   -1.011526
   504   16   1.0   0.00    0.0    0.000000    0.485670    0.545117
   505   16   6.0   2.78    4.9   -0.006912    0.874817    0.884206
   506   16   8.0  10.24   22.4    0.142660   -0.723741   -0.713381
   507   16   6.0   8.66   15.3   -0.018441   -0.443734   -0.446579
   508   16   1.0   0.00    0.0    0.000000    0.272675    0.266202
   509   16   6.0   5.83   10.3   -0.060120    0.122222    0.122791
   510   16   1.0   0.00    0.0    0.000000    0.229688    0.228632
   511   16   8.0  20.56   44.9    0.035409   -0.842957   -0.843719
   512   16   1.0   0.00    0.0    0.000000    0.506670    0.507509
   513   16   6.0   4.26    7.5   -0.042307    0.167679    0.151337
   514   16   1.0   0.00    0.0    0.000000    0.217434    0.217515
   515   16   8.0  21.51   47.0   -0.017862   -0.851404   -0.853725
   516   16   1.0   0.00    0.0    0.000000    0.509171    0.508804

 Done with FMO properties.
 CPU     0: STEP CPU TIME=     0.01 TOTAL CPU TIME=      31835.7 (    530.6 MIN)
 TOTAL WALL CLOCK TIME=      72466.3 SECONDS, CPU UTILIZATION IS    43.93%
 CPU     0: STEP CPU TIME=     0.00 TOTAL CPU TIME=      31835.7 (    530.6 MIN)
 TOTAL WALL CLOCK TIME=      72466.3 SECONDS, CPU UTILIZATION IS    43.93%

 Total timing statistics in pairs (CPU,wall) for each rank, sec

    Rank   total     SCF    corr     DFT    CPHF     EFP    solv     ESP    geom
 -------------------------------------------------------------------------------
       1   31835.7   8354.0  12232.6      0.0    0.0   0.0  345.0 10166.8    0.0
       1   72466.3  17660.0  31714.2      0.0    0.0   0.0  815.4 20636.8    0.0
       2   31681.6   8285.2  12183.1      0.0    0.0   0.0  346.6 10136.7    0.0
       2   72466.3  17617.0  31709.7      0.0    0.0   0.0  815.1 20635.4    0.0
       3   31665.8   8316.2  12117.3      0.0    0.0   0.0  348.8 10150.6    0.0
       3   72466.3  17616.5  31709.7      0.0    0.0   0.0  815.9 20635.6    0.0
       4   31632.7   8281.6  12151.0      0.0    0.0   0.0  344.6 10129.5    0.0
       4   72466.3  17617.4  31709.6      0.0    0.0   0.0  814.0 20635.3    0.0
       5   31650.4   8315.8  12079.4      0.0    0.0   0.0  346.6 10172.4    0.0
       5   72466.3  17617.0  31709.6      0.0    0.0   0.0  815.5 20636.2    0.0
       6   31685.1   8292.9  12172.1      0.0    0.0   0.0  343.3 10150.1    0.0
       6   72466.3  17617.9  31709.6      0.0    0.0   0.0  813.5 20636.0    0.0
       7   31659.1   8307.7  12143.5      0.0    0.0   0.0  343.1 10137.4    0.0
       7   72466.3  17618.2  31709.6      0.0    0.0   0.0  814.1 20636.1    0.0
       8   31716.9   8279.7  12235.4      0.0    0.0   0.0  341.8 10134.7    0.0
       8   72466.3  17617.5  31709.6      0.0    0.0   0.0  812.4 20636.0    0.0
       9   31719.7   8303.4  12163.5      0.0    0.0   0.0  340.3 10184.4    0.0
       9   72466.3  17617.0  31709.6      0.0    0.0   0.0  814.6 20636.7    0.0
      10   31616.7   8272.0  12127.6      0.0    0.0   0.0  343.3 10144.8    0.0
      10   72466.3  17617.6  31709.6      0.0    0.0   0.0  813.0 20636.7    0.0
      11   31550.2   8277.3  12073.2      0.0    0.0   0.0  341.7 10130.4    0.0
      11   72466.3  17617.8  31709.5      0.0    0.0   0.0  813.4 20636.7    0.0
      12   31547.9   8262.2  12093.2      0.0    0.0   0.0  341.3 10128.2    0.0
      12   72466.3  17617.4  31709.6      0.0    0.0   0.0  812.0 20636.6    0.0
      13   31631.7   8285.8  12163.3      0.0    0.0   0.0  339.7 10119.0    0.0
      13   72466.3  17618.8  31709.5      0.0    0.0   0.0  812.7 20636.6    0.0
      14   31459.1   8253.5  12029.6      0.0    0.0   0.0  340.3 10112.7    0.0
      14   72466.3  17618.1  31709.5      0.0    0.0   0.0  811.9 20636.6    0.0
      15   31673.1   8273.8  12220.2      0.0    0.0   0.0  338.0 10115.9    0.0
      15   72466.3  17617.5  31709.5      0.0    0.0   0.0  811.9 20636.6    0.0
      16   31669.9   8260.0  12245.9      0.0    0.0   0.0  339.1 10107.1    0.0
      16   72466.3  17617.7  31709.5      0.0    0.0   0.0  810.5 20636.5    0.0
averaged   31649.7   8288.8  12151.9      0.0    0.0   0.0  342.7 10138.8    0.0
averaged   72466.3  17620.2  31709.9      0.0    0.0   0.0  813.5 20636.3    0.0

  FMO  timing statistics in pairs (CPU,wall) for each rank, sec

    Rank  FMOini FMOscf1  FMOdm1 FMOsyn1 FMOscf2  FMOes2 FMOsyn2 FMOscf3 FMOsyn3
 -------------------------------------------------------------------------------
       1    3.3   11408.2    0.5    0.0   19889.0     534.6    0.0    0.0    0.0
       1    8.2   23757.1    5.1    0.0   47609.6    1086.1    0.0    0.0    0.0
       2    2.5   11344.4    0.1    0.0   19803.8     530.7    0.0    0.0    0.0
       2    8.2   23757.1    5.1    0.0   47611.0    1084.6    0.0    0.0    0.0
       3    2.8   11370.7    0.3    0.0   19762.4     529.7    0.0    0.0    0.0
       3    8.2   23757.1    5.1    0.0   47611.4    1084.3    0.0    0.0    0.0
       4    2.5   11330.9    0.2    0.0   19770.2     528.8    0.0    0.0    0.0
       4    8.2   23757.1    5.1    0.0   47612.0    1083.6    0.0    0.0    0.0
       5    3.0   11387.2    0.3    0.0   19726.7     533.2    0.0    0.0    0.0
       5    8.2   23757.1    5.1    0.0   47608.5    1087.2    0.0    0.0    0.0
       6    2.6   11348.6    0.1    0.0   19803.0     530.7    0.0    0.0    0.0
       6    8.2   23757.1    5.1    0.0   47610.4    1085.3    0.0    0.0    0.0
       7    2.8   11355.8    0.2    0.0   19771.2     529.1    0.0    0.0    0.0
       7    8.2   23757.1    5.1    0.0   47611.3    1084.3    0.0    0.0    0.0
       8    2.4   11328.6    0.1    0.0   19856.5     529.2    0.0    0.0    0.0
       8    8.2   23757.1    5.1    0.0   47608.9    1086.8    0.0    0.0    0.0
       9    2.9   11365.1    0.4    0.0   19821.4     529.9    0.0    0.0    0.0
       9    8.2   23757.1    5.1    0.0   47611.3    1084.3    0.0    0.0    0.0
      10    2.4   11329.4    0.1    0.0   19751.9     532.8    0.0    0.0    0.0
      10    8.2   23757.1    5.1    0.0   47609.7    1086.0    0.0    0.0    0.0
      11    2.5   11333.7    0.2    0.0   19683.4     530.3    0.0    0.0    0.0
      11    8.2   23757.1    5.1    0.0   47611.0    1084.6    0.0    0.0    0.0
      12    2.2   11328.2    0.1    0.0   19687.8     529.6    0.0    0.0    0.0
      12    8.2   23757.1    5.1    0.0   47613.1    1082.5    0.0    0.0    0.0
      13    2.7   11325.1    0.3    0.0   19776.5     527.0    0.0    0.0    0.0
      13    8.2   23757.1    5.1    0.0   47609.9    1085.7    0.0    0.0    0.0
      14    2.2   11307.5    0.1    0.0   19621.0     528.2    0.0    0.0    0.0
      14    8.2   23757.1    5.1    0.0   47609.6    1086.1    0.0    0.0    0.0
      15    2.5   11311.4    0.2    0.0   19828.7     530.3    0.0    0.0    0.0
      15    8.2   23757.1    5.1    0.0   47609.5    1086.2    0.0    0.0    0.0
      16    2.3   11309.6    0.1    0.0   19833.0     524.8    0.0    0.0    0.0
      16    8.2   23757.1    5.1    0.0   47612.6    1083.1    0.0    0.0    0.0
averaged    2.6   11342.8    0.2    0.0   19774.2     529.9    0.0    0.0    0.0
averaged    8.2   23757.1    5.1    0.0   47610.6    1085.0    0.0    0.0    0.0
             62806712  WORDS OF DYNAMIC MEMORY USED
 EXECUTION OF GAMESS TERMINATED NORMALLY Sun Dec  8 17:29:25 2019
 DDI: 263640 bytes (0.3 MB / 0 MWords) used by master data server.

 ----------------------------------------
 CPU timing information for all processes
 ========================================
 0: 31134.287 + 701.415 = 31835.702
 1: 31012.317 + 669.271 = 31681.589
 2: 30975.665 + 690.193 = 31665.858
 3: 30979.569 + 653.197 = 31632.766
 4: 30954.48 + 696.429 = 31650.477
 5: 31025.820 + 659.261 = 31685.82
 6: 30964.295 + 694.811 = 31659.107
 7: 31043.650 + 673.250 = 31716.900
 8: 31036.338 + 683.394 = 31719.732
 9: 30970.468 + 646.221 = 31616.690
 10: 30883.523 + 666.732 = 31550.255
 11: 30897.297 + 650.657 = 31547.954
 12: 30932.43 + 699.652 = 31631.696
 13: 30825.515 + 633.635 = 31459.151
 14: 30994.464 + 678.633 = 31673.98
 15: 31017.755 + 652.138 = 31669.893
 ----------------------------------------
 ddikick.x: exited gracefully.
unset echo
----- accounting info -----
Files used on the master node gollum051.lsa.umich.edu were:
-rw-r--r-- 1 hazwong frank    24811 Dec  7 21:21 /scratch/hazwong/826540/2LX1_1/usrc/2LX1_1_fmo_input.F05
-rw-r--r-- 1 hazwong frank      634 Dec  8 17:29 /scratch/hazwong/826540/2LX1_1/usrc/2LX1_1_fmo_input.F06.001
-rw-r--r-- 1 hazwong frank      634 Dec  8 17:29 /scratch/hazwong/826540/2LX1_1/usrc/2LX1_1_fmo_input.F06.002
-rw-r--r-- 1 hazwong frank      634 Dec  8 17:29 /scratch/hazwong/826540/2LX1_1/usrc/2LX1_1_fmo_input.F06.003
-rw-r--r-- 1 hazwong frank      634 Dec  8 17:29 /scratch/hazwong/826540/2LX1_1/usrc/2LX1_1_fmo_input.F06.004
-rw-r--r-- 1 hazwong frank      634 Dec  8 17:29 /scratch/hazwong/826540/2LX1_1/usrc/2LX1_1_fmo_input.F06.005
-rw-r--r-- 1 hazwong frank      634 Dec  8 17:29 /scratch/hazwong/826540/2LX1_1/usrc/2LX1_1_fmo_input.F06.006
-rw-r--r-- 1 hazwong frank      634 Dec  8 17:29 /scratch/hazwong/826540/2LX1_1/usrc/2LX1_1_fmo_input.F06.007
-rw-r--r-- 1 hazwong frank      634 Dec  8 17:29 /scratch/hazwong/826540/2LX1_1/usrc/2LX1_1_fmo_input.F06.008
-rw-r--r-- 1 hazwong frank      634 Dec  8 17:29 /scratch/hazwong/826540/2LX1_1/usrc/2LX1_1_fmo_input.F06.009
-rw-r--r-- 1 hazwong frank      634 Dec  8 17:29 /scratch/hazwong/826540/2LX1_1/usrc/2LX1_1_fmo_input.F06.010
-rw-r--r-- 1 hazwong frank      634 Dec  8 17:29 /scratch/hazwong/826540/2LX1_1/usrc/2LX1_1_fmo_input.F06.011
-rw-r--r-- 1 hazwong frank      634 Dec  8 17:29 /scratch/hazwong/826540/2LX1_1/usrc/2LX1_1_fmo_input.F06.012
-rw-r--r-- 1 hazwong frank      634 Dec  8 17:29 /scratch/hazwong/826540/2LX1_1/usrc/2LX1_1_fmo_input.F06.013
-rw-r--r-- 1 hazwong frank      634 Dec  8 17:29 /scratch/hazwong/826540/2LX1_1/usrc/2LX1_1_fmo_input.F06.014
-rw-r--r-- 1 hazwong frank      634 Dec  8 17:29 /scratch/hazwong/826540/2LX1_1/usrc/2LX1_1_fmo_input.F06.015
-rw-r--r-- 1 hazwong frank    21906 Dec  8 17:29 /scratch/hazwong/826540/2LX1_1/usrc/2LX1_1_fmo_input.F07
-rw-r--r-- 1 hazwong frank        0 Dec  7 21:21 /scratch/hazwong/826540/2LX1_1/usrc/2LX1_1_fmo_input.F07.001
-rw-r--r-- 1 hazwong frank        0 Dec  7 21:21 /scratch/hazwong/826540/2LX1_1/usrc/2LX1_1_fmo_input.F07.002
-rw-r--r-- 1 hazwong frank        0 Dec  7 21:21 /scratch/hazwong/826540/2LX1_1/usrc/2LX1_1_fmo_input.F07.003
-rw-r--r-- 1 hazwong frank        0 Dec  7 21:21 /scratch/hazwong/826540/2LX1_1/usrc/2LX1_1_fmo_input.F07.004
-rw-r--r-- 1 hazwong frank        0 Dec  7 21:21 /scratch/hazwong/826540/2LX1_1/usrc/2LX1_1_fmo_input.F07.005
-rw-r--r-- 1 hazwong frank        0 Dec  7 21:21 /scratch/hazwong/826540/2LX1_1/usrc/2LX1_1_fmo_input.F07.006
-rw-r--r-- 1 hazwong frank        0 Dec  7 21:21 /scratch/hazwong/826540/2LX1_1/usrc/2LX1_1_fmo_input.F07.007
-rw-r--r-- 1 hazwong frank        0 Dec  7 21:21 /scratch/hazwong/826540/2LX1_1/usrc/2LX1_1_fmo_input.F07.008
-rw-r--r-- 1 hazwong frank        0 Dec  7 21:21 /scratch/hazwong/826540/2LX1_1/usrc/2LX1_1_fmo_input.F07.009
-rw-r--r-- 1 hazwong frank        0 Dec  7 21:21 /scratch/hazwong/826540/2LX1_1/usrc/2LX1_1_fmo_input.F07.010
-rw-r--r-- 1 hazwong frank        0 Dec  7 21:21 /scratch/hazwong/826540/2LX1_1/usrc/2LX1_1_fmo_input.F07.011
-rw-r--r-- 1 hazwong frank        0 Dec  7 21:21 /scratch/hazwong/826540/2LX1_1/usrc/2LX1_1_fmo_input.F07.012
-rw-r--r-- 1 hazwong frank        0 Dec  7 21:21 /scratch/hazwong/826540/2LX1_1/usrc/2LX1_1_fmo_input.F07.013
-rw-r--r-- 1 hazwong frank        0 Dec  7 21:21 /scratch/hazwong/826540/2LX1_1/usrc/2LX1_1_fmo_input.F07.014
-rw-r--r-- 1 hazwong frank        0 Dec  7 21:21 /scratch/hazwong/826540/2LX1_1/usrc/2LX1_1_fmo_input.F07.015
-rw-r--r-- 1 hazwong frank    65440 Dec  8 17:29 /scratch/hazwong/826540/2LX1_1/usrc/2LX1_1_fmo_input.F10.000
-rw-r--r-- 1 hazwong frank        0 Dec  7 21:21 /scratch/hazwong/826540/2LX1_1/usrc/2LX1_1_fmo_input.F26.000
-rw-r--r-- 1 hazwong frank        0 Dec  7 21:21 /scratch/hazwong/826540/2LX1_1/usrc/2LX1_1_fmo_input.F26.001
-rw-r--r-- 1 hazwong frank        0 Dec  7 21:21 /scratch/hazwong/826540/2LX1_1/usrc/2LX1_1_fmo_input.F26.002
-rw-r--r-- 1 hazwong frank        0 Dec  7 21:21 /scratch/hazwong/826540/2LX1_1/usrc/2LX1_1_fmo_input.F26.003
-rw-r--r-- 1 hazwong frank        0 Dec  7 21:21 /scratch/hazwong/826540/2LX1_1/usrc/2LX1_1_fmo_input.F26.004
-rw-r--r-- 1 hazwong frank        0 Dec  7 21:21 /scratch/hazwong/826540/2LX1_1/usrc/2LX1_1_fmo_input.F26.005
-rw-r--r-- 1 hazwong frank        0 Dec  7 21:21 /scratch/hazwong/826540/2LX1_1/usrc/2LX1_1_fmo_input.F26.006
-rw-r--r-- 1 hazwong frank        0 Dec  7 21:21 /scratch/hazwong/826540/2LX1_1/usrc/2LX1_1_fmo_input.F26.007
-rw-r--r-- 1 hazwong frank        0 Dec  7 21:21 /scratch/hazwong/826540/2LX1_1/usrc/2LX1_1_fmo_input.F26.008
-rw-r--r-- 1 hazwong frank        0 Dec  7 21:21 /scratch/hazwong/826540/2LX1_1/usrc/2LX1_1_fmo_input.F26.009
-rw-r--r-- 1 hazwong frank        0 Dec  7 21:21 /scratch/hazwong/826540/2LX1_1/usrc/2LX1_1_fmo_input.F26.010
-rw-r--r-- 1 hazwong frank        0 Dec  7 21:21 /scratch/hazwong/826540/2LX1_1/usrc/2LX1_1_fmo_input.F26.011
-rw-r--r-- 1 hazwong frank        0 Dec  7 21:21 /scratch/hazwong/826540/2LX1_1/usrc/2LX1_1_fmo_input.F26.012
-rw-r--r-- 1 hazwong frank        0 Dec  7 21:21 /scratch/hazwong/826540/2LX1_1/usrc/2LX1_1_fmo_input.F26.013
-rw-r--r-- 1 hazwong frank        0 Dec  7 21:21 /scratch/hazwong/826540/2LX1_1/usrc/2LX1_1_fmo_input.F26.014
-rw-r--r-- 1 hazwong frank        0 Dec  7 21:21 /scratch/hazwong/826540/2LX1_1/usrc/2LX1_1_fmo_input.F26.015
-rw-r--r-- 1 hazwong frank        0 Dec  7 21:21 /scratch/hazwong/826540/2LX1_1/usrc/2LX1_1_fmo_input.F27.000
-rw-r--r-- 1 hazwong frank        0 Dec  7 21:21 /scratch/hazwong/826540/2LX1_1/usrc/2LX1_1_fmo_input.F27.001
-rw-r--r-- 1 hazwong frank        0 Dec  7 21:21 /scratch/hazwong/826540/2LX1_1/usrc/2LX1_1_fmo_input.F27.002
-rw-r--r-- 1 hazwong frank        0 Dec  7 21:21 /scratch/hazwong/826540/2LX1_1/usrc/2LX1_1_fmo_input.F27.003
-rw-r--r-- 1 hazwong frank        0 Dec  7 21:21 /scratch/hazwong/826540/2LX1_1/usrc/2LX1_1_fmo_input.F27.004
-rw-r--r-- 1 hazwong frank        0 Dec  7 21:21 /scratch/hazwong/826540/2LX1_1/usrc/2LX1_1_fmo_input.F27.005
-rw-r--r-- 1 hazwong frank        0 Dec  7 21:21 /scratch/hazwong/826540/2LX1_1/usrc/2LX1_1_fmo_input.F27.006
-rw-r--r-- 1 hazwong frank        0 Dec  7 21:21 /scratch/hazwong/826540/2LX1_1/usrc/2LX1_1_fmo_input.F27.007
-rw-r--r-- 1 hazwong frank        0 Dec  7 21:21 /scratch/hazwong/826540/2LX1_1/usrc/2LX1_1_fmo_input.F27.008
-rw-r--r-- 1 hazwong frank        0 Dec  7 21:21 /scratch/hazwong/826540/2LX1_1/usrc/2LX1_1_fmo_input.F27.009
-rw-r--r-- 1 hazwong frank        0 Dec  7 21:21 /scratch/hazwong/826540/2LX1_1/usrc/2LX1_1_fmo_input.F27.010
-rw-r--r-- 1 hazwong frank        0 Dec  7 21:21 /scratch/hazwong/826540/2LX1_1/usrc/2LX1_1_fmo_input.F27.011
-rw-r--r-- 1 hazwong frank        0 Dec  7 21:21 /scratch/hazwong/826540/2LX1_1/usrc/2LX1_1_fmo_input.F27.012
-rw-r--r-- 1 hazwong frank        0 Dec  7 21:21 /scratch/hazwong/826540/2LX1_1/usrc/2LX1_1_fmo_input.F27.013
-rw-r--r-- 1 hazwong frank        0 Dec  7 21:21 /scratch/hazwong/826540/2LX1_1/usrc/2LX1_1_fmo_input.F27.014
-rw-r--r-- 1 hazwong frank        0 Dec  7 21:21 /scratch/hazwong/826540/2LX1_1/usrc/2LX1_1_fmo_input.F27.015
-rw-r--r-- 1 hazwong frank 33472512 Dec  8 03:57 /scratch/hazwong/826540/2LX1_1/usrc/2LX1_1_fmo_input.F40.000
-rw-r--r-- 1 hazwong frank 33472512 Dec  8 03:57 /scratch/hazwong/826540/2LX1_1/usrc/2LX1_1_fmo_input.F40.001
-rw-r--r-- 1 hazwong frank 33472512 Dec  8 03:57 /scratch/hazwong/826540/2LX1_1/usrc/2LX1_1_fmo_input.F40.002
-rw-r--r-- 1 hazwong frank 33472512 Dec  8 03:57 /scratch/hazwong/826540/2LX1_1/usrc/2LX1_1_fmo_input.F40.003
-rw-r--r-- 1 hazwong frank 33472512 Dec  8 03:57 /scratch/hazwong/826540/2LX1_1/usrc/2LX1_1_fmo_input.F40.004
-rw-r--r-- 1 hazwong frank 33472512 Dec  8 03:57 /scratch/hazwong/826540/2LX1_1/usrc/2LX1_1_fmo_input.F40.005
-rw-r--r-- 1 hazwong frank 33472512 Dec  8 03:57 /scratch/hazwong/826540/2LX1_1/usrc/2LX1_1_fmo_input.F40.006
-rw-r--r-- 1 hazwong frank 33472512 Dec  8 03:57 /scratch/hazwong/826540/2LX1_1/usrc/2LX1_1_fmo_input.F40.007
-rw-r--r-- 1 hazwong frank 33472512 Dec  8 03:57 /scratch/hazwong/826540/2LX1_1/usrc/2LX1_1_fmo_input.F40.008
-rw-r--r-- 1 hazwong frank 33472512 Dec  8 03:57 /scratch/hazwong/826540/2LX1_1/usrc/2LX1_1_fmo_input.F40.009
-rw-r--r-- 1 hazwong frank 33472512 Dec  8 03:57 /scratch/hazwong/826540/2LX1_1/usrc/2LX1_1_fmo_input.F40.010
-rw-r--r-- 1 hazwong frank 33472512 Dec  8 03:57 /scratch/hazwong/826540/2LX1_1/usrc/2LX1_1_fmo_input.F40.011
-rw-r--r-- 1 hazwong frank 33472512 Dec  8 03:57 /scratch/hazwong/826540/2LX1_1/usrc/2LX1_1_fmo_input.F40.012
-rw-r--r-- 1 hazwong frank 33472512 Dec  8 03:57 /scratch/hazwong/826540/2LX1_1/usrc/2LX1_1_fmo_input.F40.013
-rw-r--r-- 1 hazwong frank 33472512 Dec  8 03:57 /scratch/hazwong/826540/2LX1_1/usrc/2LX1_1_fmo_input.F40.014
-rw-r--r-- 1 hazwong frank 33472512 Dec  8 03:57 /scratch/hazwong/826540/2LX1_1/usrc/2LX1_1_fmo_input.F40.015
ls: No match.
ls: No match.
ls: No match.
Sun Dec  8 17:29:29 EST 2019
0.193u 0.091s 20:07:53.24 0.0%	0+0k 1752+176io 30pf+0w
