‘1HS2_1_fmo_input.inp’ -> ‘/scratch/hazwong/827038/./1HS2_1_fmo_input.inp’
‘rungms’ -> ‘/scratch/hazwong/827038/./rungms’
‘gms-files.csh’ -> ‘/scratch/hazwong/827038/./gms-files.csh’
----- GAMESS execution script 'rungms' -----
This job is running on host gollum051.lsa.umich.edu
under operating system Linux at Sun Dec 8 07:50:38 EST 2019
Available scratch disk space (Kbyte units) at beginning of the job is
Filesystem     1K-blocks   Used Available Use% Mounted on
/dev/sda4      426933580 590388 426343192   1% /scratch
GAMESS temporary binary files will be written to /scratch/hazwong/827038/1HS2_1/usrc
GAMESS supplementary output files will be written to /scratch/hazwong/827038/1HS2_1/src
Copying input file 1HS2_1_fmo_input.inp to your run's scratch directory...
cp 1HS2_1_fmo_input.inp /scratch/hazwong/827038/1HS2_1/usrc/1HS2_1_fmo_input.F05
unset echo
This is a GDDI run, keeping various output files on local disks
setenv OUTPUT /scratch/hazwong/827038/1HS2_1/usrc/1HS2_1_fmo_input.F06
setenv PUNCH /scratch/hazwong/827038/1HS2_1/usrc/1HS2_1_fmo_input.F07
unset echo
 
Assuming a single but multicore node.
 
/export/apps/CentOS7/gamess/src/build//ddikick.x /export/apps/CentOS7/gamess/src/build//gamess.R3.x 1HS2_1_fmo_input -ddi 1 16 gollum051.lsa.umich.edu:cpus=16 -scr /scratch/hazwong/827038/1HS2_1/usrc

 Distributed Data Interface kickoff program.
 Initiating 16 compute processes on 1 nodes to run the following command:
 /export/apps/CentOS7/gamess/src/build//gamess.R3.x 1HS2_1_fmo_input 

          ******************************************************
          *         GAMESS VERSION = 30 SEP 2018 (R3)         *
          *             FROM IOWA STATE UNIVERSITY             *
          * M.W.SCHMIDT, K.K.BALDRIDGE, J.A.BOATZ, S.T.ELBERT, *
          *   M.S.GORDON, J.H.JENSEN, S.KOSEKI, N.MATSUNAGA,   *
          *          K.A.NGUYEN, S.J.SU, T.L.WINDUS,           *
          *       TOGETHER WITH M.DUPUIS, J.A.MONTGOMERY       *
          *         J.COMPUT.CHEM.  14, 1347-1363(1993)        *
          **************** 64 BIT LINUX VERSION ****************

  SINCE 1993, STUDENTS AND POSTDOCS WORKING AT IOWA STATE UNIVERSITY
  AND ALSO IN THEIR VARIOUS JOBS AFTER LEAVING ISU HAVE MADE IMPORTANT
  CONTRIBUTIONS TO THE CODE:
     IVANA ADAMOVIC, CHRISTINE AIKENS, YURI ALEXEEV, POOJA ARORA,
     ANDREY ASADCHEV, ROB BELL, PRADIPTA BANDYOPADHYAY, JONATHAN BENTZ,
     BRETT BODE, KURT BRORSEN, CALEB CARLIN, GALINA CHABAN, WEI CHEN,
     CHEOL HO CHOI, PAUL DAY, ALBERT DEFUSCO, NUWAN DESILVA, TIM DUDLEY,
     DMITRI FEDOROV, ALEX FINDLATER, GRAHAM FLETCHER, MARK FREITAG,
     KURT GLAESEMANN, ANASTASIA GUNINA,
     DAN KEMP, GRANT MERRILL, NORIYUKI MINEZAWA, JONATHAN MULLIN,
     TAKESHI NAGATA, SEAN NEDD, HEATHER NETZLOFF, BOSILJKA NJEGIC, RYAN OLSON,
     MIKE PAK, BUU PHAM,
     SPENCER PRUITT, LUKE ROSKOP, JIM SHOEMAKER, LYUDMILA SLIPCHENKO,
     TONY SMITH, SAROM SOK LEANG, JIE SONG, TETSUYA TAKETSUGU, SIMON WEBB,
     PENG XU, SOOHAENG YOO, FEDERICO ZAHARIEV

  ADDITIONAL CODE HAS BEEN PROVIDED BY COLLABORATORS IN OTHER GROUPS:
     IOWA STATE UNIVERSITY:
          JOE IVANIC, AARON WEST, LAIMUTIS BYTAUTAS, KLAUS RUEDENBERG
     UNIVERSITY OF TOKYO: KIMIHIKO HIRAO, TAKAHITO NAKAJIMA,
          TAKAO TSUNEDA, MUNEAKI KAMIYA, SUSUMU YANAGISAWA,
          KIYOSHI YAGI, MAHITO CHIBA, SEIKEN TOKURA, NAOAKI KAWAKAMI
     UNIVERSITY OF AARHUS: FRANK JENSEN
     UNIVERSITY OF IOWA: VISVALDAS KAIRYS, HUI LI
     NATIONAL INST. OF STANDARDS AND TECHNOLOGY: WALT STEVENS, DAVID GARMER
     UNIVERSITY OF PISA: BENEDETTA MENNUCCI, JACOPO TOMASI
     UNIVERSITY OF MEMPHIS: HENRY KURTZ, PRAKASHAN KORAMBATH
     UNIVERSITY OF ALBERTA: TOBY ZENG, MARIUSZ KLOBUKOWSKI
     UNIVERSITY OF NEW ENGLAND: MARK SPACKMAN
     MIE UNIVERSITY: HIROAKI UMEDA
     NAT. INST. OF ADVANCED INDUSTRIAL SCIENCE AND TECHNOLOGY: KAZUO KITAURA
     MICHIGAN STATE UNIVERSITY:
          KAROL KOWALSKI, MARTA WLOCH, JEFFREY GOUR, JESSE LUTZ,
          WEI LI, JUN SHEN, J. EMILIANO DEUSTUA, PIOTR PIECUCH
     UNIVERSITY OF MINNESOTA:
          YINAN SHU
     UNIVERSITY OF SILESIA: MONIKA MUSIAL, STANISLAW KUCHARSKI
     FACULTES UNIVERSITAIRES NOTRE-DAME DE LA PAIX:
          OLIVIER QUINET, BENOIT CHAMPAGNE
     UNIVERSITY OF CALIFORNIA - SANTA BARBARA: BERNARD KIRTMAN
     INSTITUTE FOR MOLECULAR SCIENCE:
          KAZUYA ISHIMURA, MICHIO KATOUDA, AND SHIGERU NAGASE
     UNIVERSITY OF NOTRE DAME: ANNA POMOGAEVA, DAN CHIPMAN
     KYUSHU UNIVERSITY:
          HARUYUKI NAKANO,
          FENG LONG GU, JACEK KORCHOWIEC, MARCIN MAKOWSKI, AND YURIKO AOKI,
          HIROTOSHI MORI AND EISAKU MIYOSHI
     PENNSYLVANIA STATE UNIVERSITY:
          TZVETELIN IORDANOV, CHET SWALINA, JONATHAN SKONE,
          SHARON HAMMES-SCHIFFER
     WASEDA UNIVERSITY:
          MASATO KOBAYASHI, TOMOKO AKAMA, TSUGUKI TOUMA,
          TAKESHI YOSHIKAWA, YASUHIRO IKABATA, JUNJI SEINO,
          YUYA NAKAJIMA, HIROMI NAKAI
     NANJING UNIVERSITY: SHUHUA LI
     UNIVERSITY OF NEBRASKA:
          PEIFENG SU, DEJUN SI, NANDUN THELLAMUREGE, YALI WANG, HUI LI
     UNIVERSITY OF ZURICH: ROBERTO PEVERATI, KIM BALDRIDGE
     N. COPERNICUS UNIVERSITY AND JACKSON STATE UNIVERSITY:
          MARIA BARYSZ
     UNIVERSITY OF COPENHAGEN: Jimmy Kromann, CASPER STEINMANN
     TOKYO INSTITUTE OF TECHNOLOGY: HIROYA NAKATA
     NAGOYA UNIVERSITY: YOSHIO NISHIMOTO, STEPHAN IRLE
     MOSCOW STATE UNIVERSITY: VLADIMIR MIRONOV


 PARALLEL VERSION RUNNING ON       16 PROCESSORS IN        1 NODES.

 EXECUTION OF GAMESS BEGUN Sun Dec  8 07:50:38 2019

            ECHO OF THE FIRST FEW INPUT CARDS -
 INPUT CARD>!*** FMO 5.3 (Gamess) INPUT generated by Facio 22.1.1.32 ***                    
 INPUT CARD> $CONTRL RUNTYP=ENERGY NPRINT=-5 ISPHER=1 MAXIT=200 $END                        
 INPUT CARD> $SYSTEM MWORDS=63 MEMDDI=63 $END                                               
 INPUT CARD> $GDDI NGROUP=1 $END                                                            
 INPUT CARD> $SCF DIRSCF=.TRUE. NPUNCH=0 $END                                               
 INPUT CARD>!*** NumCPU : 2  MemPerNode : 512MB                                             
 INPUT CARD> $PCM SOLVNT=WATER IEF=-10 ICOMP=2 ICAV=1 IDISP=1 IFMO=-1 $END                  
 INPUT CARD> $PCMCAV RADII=SUAHF $END                                                       
 INPUT CARD> $TESCAV NTSALL=60 $END                                                         
 INPUT CARD> $FMOPRP                                                                        
 INPUT CARD>    NAODIR=200                                                                  
 INPUT CARD>    NGRFMO(1)=1, 1, 0, 0, 0,   0, 0, 0, 0, 0                                    
 INPUT CARD>    IPIEDA=1                                                                    
 INPUT CARD>    NPRINT=9                                                                    
 INPUT CARD> $END                                                                           
 INPUT CARD> $FMO                                                                           
 INPUT CARD>      SCFTYP(1)=RHF                                                             
 INPUT CARD>      MODGRD=10                                                                 
 INPUT CARD>      MODMUL=0                                                                  
 INPUT CARD>      MAXCAO=5                                                                  
 INPUT CARD>      MAXBND=12                                                                 
 INPUT CARD>      NLAYER=1                                                                  
 INPUT CARD>      MPLEVL(1)=2                                                               
 INPUT CARD>      NFRAG=10                                                                  
 INPUT CARD>      ICHARG(1)=-1, -1, -1, -1, -1, -1, -1, -1, -1, 0                           
 INPUT CARD>      FRGNAM(1)=F1, F2, F3, F4, F5, F6, F7, F8, F9, F10                         
 INPUT CARD>      indat(1)=0                                                                
 INPUT CARD>               1   -33   0                                                      
 INPUT CARD>               34   -67   0                                                     
 INPUT CARD>               68   -97   0                                                     
 INPUT CARD>               98   -127   0                                                    
 INPUT CARD>               128   -160   0                                                   
 INPUT CARD>               161   -193   0                                                   
 INPUT CARD>               194   -227   0                                                   
 INPUT CARD>               228   -257   0                                                   
 INPUT CARD>               258   -288   0                                                   
 INPUT CARD>               289   -319   0                                                   
 INPUT CARD> $END                                                                           
 INPUT CARD>                                                                                
 INPUT CARD> $FMOBND                                                                        
 INPUT CARD>   -34   33       6-31G*    MINI                                                
 INPUT CARD>   -68   67       6-31G*    MINI                                                
 INPUT CARD>   -98   97       6-31G*    MINI                                                
 INPUT CARD>   -128   127       6-31G*    MINI                                              
 INPUT CARD>   -161   160       6-31G*    MINI                                              
 INPUT CARD>   -194   193       6-31G*    MINI                                              
 INPUT CARD>   -228   227       6-31G*    MINI                                              
 INPUT CARD>   -258   257       6-31G*    MINI                                              
 INPUT CARD>   -289   288       6-31G*    MINI                                              
 INPUT CARD> $END                                                                           


 -------------------------------------------------------------
 GROUP DDI, PROGRAMMED BY: RYAN M. OLSON AND DMITRI G. FEDOROV
        FEDOROV ET AL., J. COMPUT. CHEM., 25 (2004) 872.
 -------------------------------------------------------------

 -------------------------------------------------------
 GDDI: INITIALIZATION COMPLETED FOR GROUP     1 OF     1
 WITH    16 PROCESSES BALTYP=DLB   global rank=        0
 -------------------------------------------------------

   63000000 WORDS OF MEMORY AVAILABLE


     RUN TITLE
     ---------
  FMO calculation                                                                

 THE POINT GROUP OF THE MOLECULE IS C1      
 THE ORDER OF THE PRINCIPAL AXIS IS     0

 ATOM   ATOMIC CHARGE
 H.1-1       1.0
 O.1-1       8.0
 C.1-1       6.0
 N.1-1       7.0
 P.1-1      15.0

     ATOMIC BASIS SET LIBRARY
     ----------------
 THE CONTRACTED PRIMITIVE FUNCTIONS HAVE BEEN UNNORMALIZED
 THE CONTRACTED BASIS FUNCTIONS ARE NOW NORMALIZED TO UNITY

  SHELL TYPE  PRIMITIVE        EXPONENT          CONTRACTION COEFFICIENT(S)

 H.1-1     

      1   S       1            18.7311370    0.033494604338
      1   S       2             2.8253944    0.234726953484
      1   S       3             0.6401217    0.813757326146

      2   S       4             0.1612778    1.000000000000

 O.1-1     

      3   S       5          5484.6716600    0.001831074430
      3   S       6           825.2349460    0.013950172200
      3   S       7           188.0469580    0.068445078098
      3   S       8            52.9645000    0.232714335992
      3   S       9            16.8975704    0.470192897984
      3   S      10             5.7996353    0.358520852987

      4   L      11            15.5396162   -0.110777549525    0.070874268231
      4   L      12             3.5999336   -0.148026262701    0.339752839147
      4   L      13             1.0137618    1.130767015354    0.727158577316

      5   L      14             0.2700058    1.000000000000    1.000000000000

      6   D      15             0.8000000    1.000000000000

 C.1-1     

      7   S      16          3047.5248800    0.001834737132
      7   S      17           457.3695180    0.014037322813
      7   S      18           103.9486850    0.068842622264
      7   S      19            29.2101553    0.232184443216
      7   S      20             9.2866630    0.467941348435
      7   S      21             3.1639270    0.362311985337

      8   L      22             7.8682723   -0.119332419775    0.068999066591
      8   L      23             1.8812885   -0.160854151696    0.316423960957
      8   L      24             0.5442493    1.143456437840    0.744308290898

      9   L      25             0.1687145    1.000000000000    1.000000000000

     10   D      26             0.8000000    1.000000000000

 N.1-1     

     11   S      27          4173.5114600    0.001834772160
     11   S      28           627.4579110    0.013994627002
     11   S      29           142.9020930    0.068586551812
     11   S      30            40.2343293    0.232240873040
     11   S      31            12.8202129    0.469069948082
     11   S      32             4.3904370    0.360455199063

     12   L      33            11.6263619   -0.114961181702    0.067579743878
     12   L      34             2.7162798   -0.169117478561    0.323907295893
     12   L      35             0.7722184    1.145851947027    0.740895139755

     13   L      36             0.2120315    1.000000000000    1.000000000000

     14   D      37             0.8000000    1.000000000000

 P.1-1     

     15   S      38         19413.3000000    0.001851598923
     15   S      39          2909.4200000    0.014206191735
     15   S      40           661.3640000    0.069999459277
     15   S      41           185.7590000    0.240078860331
     15   S      42            59.1943000    0.484761717984
     15   S      43            20.0310000    0.335199804993

     16   L      44           339.4780000   -0.002782170105    0.004564616191
     16   L      45            81.0101000   -0.036049901354    0.033693571881
     16   L      46            25.8780000   -0.116631004382    0.139754883368
     16   L      47             9.4522100    0.096832803638    0.339361716786
     16   L      48             3.6656600    0.614418023082    0.450920623685
     16   L      49             1.4674600    0.403798015170    0.238585800889

     17   L      50             2.1562300   -0.252924113863   -0.017765312733
     17   L      51             0.7489970    0.032851844678    0.274058196433
     17   L      52             0.2831450    1.081254761783    0.785421562957

     18   L      53             0.0998317    1.000000000000    1.000000000000

     19   D      54             0.5500000    1.000000000000

 TOTAL NUMBER OF BASIS SET SHELLS             =   19
 NUMBER OF CARTESIAN GAUSSIAN BASIS FUNCTIONS =   66

     $CONTRL OPTIONS
     ---------------
 SCFTYP=RHF          RUNTYP=ENERGY       EXETYP=RUN     
 MPLEVL=       0     CITYP =NONE         CCTYP =NONE         VBTYP =NONE    
 DFTTYP=NONE         TDDFT =NONE    
 MULT  =       1     ICHARG=       0     NZVAR =       0     COORD =UNIQUE  
 PP    =NONE         RELWFN=NONE         LOCAL =NONE         NUMGRD=       F
 ISPHER=       1     NOSYM =       0     MAXIT =     200     UNITS =ANGS    
 PLTORB=       F     MOLPLT=       F     AIMPAC=       F     FRIEND=        
 NPRINT=      -5     IREST =       0     GEOM  =INPUT   
 NORMF =       0     NORMP =       0     ITOL  =      24     ICUT  =      12
 INTTYP=BEST         GRDTYP=BEST         QMTTOL= 1.0E-06

     $SYSTEM OPTIONS
     ---------------
  REPLICATED MEMORY=    63000000 WORDS (ON EVERY NODE).
 DISTRIBUTED MEMDDI=          63 MILLION WORDS IN AGGREGATE,
 MEMDDI DISTRIBUTED OVER  16 PROCESSORS IS     3937500 WORDS/PROCESSOR.
 TOTAL MEMORY REQUESTED ON EACH PROCESSOR=    66937500 WORDS.
 TIMLIM=      525600.00 MINUTES, OR     365.0 DAYS.
 PARALL= T  BALTYP=  DLB     KDIAG=    0  COREFL= F
 MXSEQ2=     300 MXSEQ3=     150  mem10=         0

 ** LOOKING UP INTERNALLY STORED DATA FOR SOLVENT=WATER    **
 OPTICAL AND PHYSICAL CONSTANTS:
 EPS= 78.390; EPSINF=  1.776; RSOLV=  1.385 A; VMOL=  18.070 ML/MOL;
 TCE= .25700E-03 1/K; STEN= 71.810 DYN/CM;  DSTEN=  0.6500; CMF=  1.2770


     -----------------------------------
     INPUT FOR PCM SOLVATION CALCULATION 
     -----------------------------------
     IEF   =     -10
     ICOMP =       2     IFIELD=       0     ICAV  =       1
     IDISP =       1     IREP  =       0     IDP   =       0

     SOLVNT=WATER        EPS   = 78.3900     EPSINF=  1.7760
     VMOL  = 18.0700     TCE   =  0.00025700 STEN  = 71.8100
     DSTEN =  0.6500     CMF   =  1.2770     RSOLV =  1.3850

     NESFP =       0
     OMEGA = 40.0000     RET   =100.0000     FRO   =  0.7000

     TABS  =298.0000     IPRINT=       0

     --------------------------------
     INPUT FOR ITERATIVE C-PCM METHOD 
     --------------------------------
     IPCMIT  =         1     MXDIIS  =        50
     MXITR1  =       200     MXITR2  =       200
     THRES   = 0.100E-09     IMUL    =         3
     RCUT(1) =   20.0000     RCUT(2) =   50.0000

     IDIRCT  =         1
     IMGABI  =         0     RABI    =    4.0000
     IMGASC  =         0     RASC    =   20.0000
     THRSLS  = 0.500E-03     DENSLS  =    0.0100
     IEFPOL  =         1     REFPOL  =    0.0000

     INPUT FOR ISOTROPIC DIELECTRICS
     -------------------------------
     EPS=    78.39

          ----------------
          PROPERTIES INPUT
          ----------------

     MOMENTS            FIELD           POTENTIAL          DENSITY
 IEMOM =       1   IEFLD =       0   IEPOT =       0   IEDEN =       0
 WHERE =COMASS     WHERE =NUCLEI     WHERE =NUCLEI     WHERE =NUCLEI  
 OUTPUT=BOTH       OUTPUT=BOTH       OUTPUT=NONE       OUTPUT=BOTH    
 IEMINT=       0   IEFINT=       0                     IEDINT=       0
                                                       MORB  =       0
          EXTRAPOLATION IN EFFECT
          SOSCF IN EFFECT
 ORBITAL PRINTING OPTION: NPREO=     1 32767     2     1

     -------------------------------
     INTEGRAL TRANSFORMATION OPTIONS
     -------------------------------
     NWORD  =            0
     CUTOFF = 1.0E-10     MPTRAN =       0
     DIRTRF =       T     AOINTS =DUP     

          ----------------------
          INTEGRAL INPUT OPTIONS
          ----------------------
 NOPK  =       1 NORDER=       0 SCHWRZ=       T

 ..... DONE SETTING UP THE RUN .....
 CPU     0: STEP CPU TIME=     0.03 TOTAL CPU TIME=          0.0 (      0.0 MIN)
 TOTAL WALL CLOCK TIME=          0.1 SECONDS, CPU UTILIZATION IS    50.00%
 CPU     0: STEP CPU TIME=     0.00 TOTAL CPU TIME=          0.0 (      0.0 MIN)
 TOTAL WALL CLOCK TIME=          0.1 SECONDS, CPU UTILIZATION IS    50.00%

                    ----------------------
                    AO INTEGRAL TECHNOLOGY
                    ----------------------
     S,P,L SHELL ROTATED AXIS INTEGRALS, REPROGRAMMED BY
        KAZUYA ISHIMURA (IMS) AND JOSE SIERRA (SYNSTAR).
     S,P,D,L SHELL ROTATED AXIS INTEGRALS PROGRAMMED BY
        KAZUYA ISHIMURA (INSTITUTE FOR MOLECULAR SCIENCE).
     S,P,D,F,G SHELL TO TOTAL QUARTET ANGULAR MOMENTUM SUM 5,
        ERIC PROGRAM BY GRAHAM FLETCHER (ELORET AND NASA ADVANCED
        SUPERCOMPUTING DIVISION, AMES RESEARCH CENTER).
     S,P,D,F,G,L SHELL GENERAL RYS QUADRATURE PROGRAMMED BY
        MICHEL DUPUIS (PACIFIC NORTHWEST NATIONAL LABORATORY).
 Setting modorb=1 flag...
 Setting modorb=1 flag...

          -----------------------
          MP2 CONTROL INFORMATION
          -----------------------
          NACORE =        8  NBCORE =        8
          LMOMP2 =        F  AOINTS = DUP     
          METHOD =        2  NWORD  =               0
          MP2PRP =        F  OSPT   = NONE    
          CUTOFF = 1.00E-12  CPHFBS = BASISAO 
          CODE   = IMS     

          NUMBER OF CORE -A-  ORBITALS =     8
          NUMBER OF CORE -B-  ORBITALS =     8
          NUMBER OF OCC. -A-  ORBITALS =    18
          NUMBER OF OCC. -B-  ORBITALS =    18
          NUMBER OF MOLECULAR ORBITALS =    66
          NUMBER OF   BASIS  FUNCTIONS =    66

 CPU     0: STEP CPU TIME=     0.03 TOTAL CPU TIME=          0.1 (      0.0 MIN)
 TOTAL WALL CLOCK TIME=          0.1 SECONDS, CPU UTILIZATION IS    60.00%
 CPU     0: STEP CPU TIME=     0.00 TOTAL CPU TIME=          0.1 (      0.0 MIN)
 TOTAL WALL CLOCK TIME=          0.1 SECONDS, CPU UTILIZATION IS    60.00%

     INPUT FOR CAVITY DEFINITION 
     ---------------------------
   ATOM               COORDINATES                RADIUS       EPS
      1     13.5730     19.7940      6.3890      0.0100     78.3900
      2     13.4570     19.6520      7.3480      1.5900     78.3900
      3     12.0450     19.5860      7.6020      1.7700     78.3900
      4     11.6170     18.7180      7.0540      0.0100     78.3900
      5     11.5550     20.5070      7.2160      0.0100     78.3900
      6     11.7070     19.4310      9.0880      1.7700     78.3900
      7     10.6070     19.4080      9.2350      0.0100     78.3900
      8     12.2300     18.1700      9.5950      1.5900     78.3900
      9     12.7150     18.3620     10.9160      1.7700     78.3900
     10     12.1860     17.6190     11.5520      0.0100     78.3900
     11     14.1840     18.1320     11.0290      1.6800     78.3900
     12     14.9790     18.1460      9.9030      1.7700     78.3900
     13     14.4720     18.3300      8.9550      0.0100     78.3900
     14     16.2950     17.9120      9.9730      1.7700     78.3900
     15     16.9320     17.8930      9.0880      0.0100     78.3900
     16     14.7640     17.9050     12.2750      1.7700     78.3900
     17     14.0460     17.9150     13.2870      1.5900     78.3900
     18     16.0890     17.6500     12.3640      1.6800     78.3900
     19     16.8520     17.6460     11.2550      1.7700     78.3900
     20     18.1490     17.3630     11.3630      1.6800     78.3900
     21     18.5540     17.2310     12.2700      0.0100     78.3900
     22     18.7480     17.3380     10.5620      0.0100     78.3900
     23     12.2970     19.7520     11.3530      1.7700     78.3900
     24     13.0110     20.2010     12.0680      0.0100     78.3900
     25     11.0040     19.7130     11.9340      1.5900     78.3900
     26     10.8060     20.6220     12.1890      0.0100     78.3900
     27     12.2910     20.5010     10.0210      1.7700     78.3900
     28     13.3380     20.6830      9.6780      0.0100     78.3900
     29     11.4590     21.6890      9.9840      1.5900     78.3900
     30     12.1300     23.0820     10.2890      2.1000     78.3900
     31     13.4050     23.1800      9.5510      1.5900     78.3900
     32     11.1460     24.1620     10.0570      1.5900     78.3900
     33     12.4360     22.9990     11.8290      1.5900     78.3900
     34     11.3380     23.0300     12.7760      1.7700     78.3900
     35     10.5540     22.2740     12.5270      0.0100     78.3900
     36     10.8470     24.0310     12.7620      0.0100     78.3900
     37     11.8300     22.7610     14.2050      1.7700     78.3900
     38     10.9840     22.7150     14.9230      0.0100     78.3900
     39     12.5100     21.4740     14.2470      1.5900     78.3900
     40     13.6140     21.5500     15.1360      1.7700     78.3900
     41     13.4540     20.7600     15.9060      0.0100     78.3900
     42     14.8900     21.2970     14.4540      1.6800     78.3900
     43     16.0790     20.9580     15.0470      1.7700     78.3900
     44     17.9790     20.4010     17.8920      1.6800     78.3900
     45     17.3280     20.5570     18.6330      0.0100     78.3900
     46     18.9390     20.2090     18.1160      0.0100     78.3900
     47     16.2960     20.8180     16.3670      1.6800     78.3900
     48     17.5670     20.5370     16.6460      1.7700     78.3900
     49     18.5150     20.3310     15.6790      1.6800     78.3900
     50     19.4530     20.1070     15.9750      0.0100     78.3900
     51     18.3110     20.4260     14.3090      1.7700     78.3900
     52     19.2290     20.2260     13.5080      1.5900     78.3900
     53     16.9740     20.7940     14.0080      1.7700     78.3900
     54     16.3670     21.0500     12.7870      1.6800     78.3900
     55     15.1310     21.3490     13.1020      1.7700     78.3900
     56     14.3460     21.6270     12.3980      0.0100     78.3900
     57     13.5680     22.9060     15.7900      1.7700     78.3900
     58     14.5770     23.2990     16.0130      0.0100     78.3900
     59     12.8040     22.8240     16.9750      1.5900     78.3900
     60     12.6160     23.7300     17.2570      0.0100     78.3900
     61     12.8670     23.7560     14.7390      1.7700     78.3900
     62     13.5510     23.9730     13.8870      0.0100     78.3900
     63     12.2150     24.9420     15.2620      1.5900     78.3900
     64     13.0180     26.3000     15.2850      2.1000     78.3900
     65     13.4380     26.6120     13.9010      1.5900     78.3900
     66     12.2120     27.3260     15.9800      1.5900     78.3900
     67     14.2920     25.9980     16.1430      1.5900     78.3900
     68     14.2570     25.8800     17.5810      1.7700     78.3900
     69     13.5170     25.1130     17.9080      0.0100     78.3900
     70     13.9350     26.8430     18.0430      0.0100     78.3900
     71     15.6380     25.4860     18.1450      1.7700     78.3900
     72     15.5900     25.3700     19.2480      0.0100     78.3900
     73     16.0750     24.2020     17.5970      1.5900     78.3900
     74     17.4790     24.2320     17.3570      1.7700     78.3900
     75     17.9020     23.3690     17.9200      0.0100     78.3900
     76     17.8230     24.1030     15.9050      1.6800     78.3900
     77     16.9090     24.4440     14.9360      1.7700     78.3900
     78     15.9570     24.8050     15.3090      0.0100     78.3900
     79     19.0660     23.6220     15.5540      1.7700     78.3900
     80     19.9160     23.2990     16.3780      1.5900     78.3900
     81     19.2840     23.5090     14.2020      1.6800     78.3900
     82     20.1740     23.1160     13.9210      0.0100     78.3900
     83     18.3960     23.7800     13.1820      1.7700     78.3900
     84     18.7170     23.5810     12.0120      1.5900     78.3900
     85     17.1390     24.3000     13.6240      1.7700     78.3900
     86     16.3840     24.5410     12.8780      0.0100     78.3900
     87     17.9910     25.5180     17.9630      1.7700     78.3900
     88     18.8690     25.9180     17.4200      0.0100     78.3900
     89     18.3170     25.3070     19.3250      1.5900     78.3900
     90     18.5510     26.1700     19.6860      0.0100     78.3900
     91     16.7870     26.4440     17.8180      1.7700     78.3900
     92     16.6480     26.7510     16.7580      0.0100     78.3900
     93     16.7710     27.5630     18.7320      1.5900     78.3900
     94     17.5090     28.8920     18.3120      2.1000     78.3900
     95     17.0220     29.2980     16.9760      1.5900     78.3900
     96     17.3660     29.8710     19.4110      1.5900     78.3900
     97     19.0310     28.5100     18.1800      1.5900     78.3900
     98     19.8490     28.2750     19.3480      1.7700     78.3900
     99     19.3960     27.5070     20.0100      0.0100     78.3900
    100     19.9480     29.2130     19.9450      0.0100     78.3900
    101     21.2590     27.7950     18.9620      1.7700     78.3900
    102     21.8540     27.5370     19.8670      0.0100     78.3900
    103     21.1930     26.5930     18.1390      1.5900     78.3900
    104     22.2340     26.6200     17.1690      1.7700     78.3900
    105     22.8350     25.6990     17.3410      0.0100     78.3900
    106     21.6950     26.6030     15.7800      1.6800     78.3900
    107     20.4060     27.0110     15.5100      1.7700     78.3900
    108     19.8530     27.3880     16.3690      0.0100     78.3900
    109     22.5170     26.1590     14.7690      1.7700     78.3900
    110     23.6700     25.7890     14.9610      1.5900     78.3900
    111     21.9360     26.1210     13.5270      1.6800     78.3900
    112     22.5410     25.8410     12.7780      0.0100     78.3900
    113     20.6560     26.5000     13.1870      1.7700     78.3900
    114     20.2800     26.4330     12.0190      1.5900     78.3900
    115     19.8630     26.9590     14.2850      1.7700     78.3900
    116     18.8460     27.2960     14.0800      0.0100     78.3900
    117     23.0910     27.8490     17.4610      1.7700     78.3900
    118     23.5050     28.3080     16.5360      0.0100     78.3900
    119     24.1500     27.5010     18.3400      1.5900     78.3900
    120     24.8940     27.1550     17.8070      0.0100     78.3900
    121     22.0710     28.7790     18.1160      1.7700     78.3900
    122     21.3700     29.1770     17.3490      0.0100     78.3900
    123     22.6280     29.8090     18.9550      1.5900     78.3900
    124     22.8070     31.2750     18.4250      2.1000     78.3900
    125     21.5240     31.7390     17.8610      1.5900     78.3900
    126     23.3910     32.0880     19.5210      1.5900     78.3900
    127     23.8570     31.1600     17.2570      1.5900     78.3900
    128     24.1060     32.3050     16.4030      1.7700     78.3900
    129     24.0310     33.2760     16.9500      0.0100     78.3900
    130     23.3580     32.3260     15.5800      0.0100     78.3900
    131     25.5070     32.2350     15.7850      1.7700     78.3900
    132     25.6550     33.0490     15.0470      0.0100     78.3900
    133     26.4860     32.4470     16.8400      1.5900     78.3900
    134     27.5870     31.5750     16.6460      1.7700     78.3900
    135     28.4930     32.2190     16.6260      0.0100     78.3900
    136     27.7200     30.6260     17.7510      1.6800     78.3900
    137     28.5540     29.2070     19.2060      1.7700     78.3900
    138     27.2700     29.5010     19.6450      1.6800     78.3900
    139     26.8100     30.3340     18.7420      1.7700     78.3900
    140     25.8180     30.7930     18.7530      0.0100     78.3900
    141     30.7490     28.3280     19.0520      1.6800     78.3900
    142     30.8650     29.0280     17.9190      1.7700     78.3900
    143     31.8220     28.9250     17.4000      0.0100     78.3900
    144     29.9810     29.8390     17.3300      1.6800     78.3900
    145     28.8380     29.8860     18.0350      1.7700     78.3900
    146     29.5800     28.3980     19.7410      1.7700     78.3900
    147     29.4560     27.7110     20.8930      1.6800     78.3900
    148     28.5740     27.6400     21.3610      0.0100     78.3900
    149     30.1610     27.0470     21.1380      0.0100     78.3900
    150     27.4250     30.9030     15.2990      1.7700     78.3900
    151     27.8240     29.8650     15.2870      0.0100     78.3900
    152     28.0560     31.6780     14.2910      1.5900     78.3900
    153     27.7530     31.3300     13.4400      0.0100     78.3900
    154     25.9130     30.9010     15.1330      1.7700     78.3900
    155     25.4700     30.0880     15.7580      0.0100     78.3900
    156     25.4810     30.8670     13.7530      1.5900     78.3900
    157     24.9020     29.5340     13.1440      2.1000     78.3900
    158     23.8730     29.0050     14.0590      1.5900     78.3900
    159     24.4690     29.8240     11.7600      1.5900     78.3900
    160     26.1390     28.5630     13.1240      1.5900     78.3900
    161     27.2450     28.7170     12.2090      1.7700     78.3900
    162     27.6770     29.7440     12.2590      0.0100     78.3900
    163     26.9020     28.5480     11.1640      0.0100     78.3900
    164     28.3660     27.7030     12.5070      1.7700     78.3900
    165     29.2060     27.8150     11.7870      0.0100     78.3900
    166     28.9050     27.9500     13.8370      1.5900     78.3900
    167     29.1460     26.7100     14.4850      1.7700     78.3900
    168     30.2130     26.7380     14.8040      0.0100     78.3900
    169     28.3030     26.5570     15.6690      1.6800     78.3900
    170     27.6190     26.0570     17.6920      1.7700     78.3900
    171     26.5730     26.7460     17.0940      1.6800     78.3900
    172     27.0220     27.0100     15.8910      1.7700     78.3900
    173     26.4600     27.5430     15.1250      0.0100     78.3900
    174     28.9530     24.8810     19.2570      1.6800     78.3900
    175     29.8670     24.8040     18.2850      1.7700     78.3900
    176     30.7910     24.2840     18.5540      0.0100     78.3900
    177     29.8600     25.3390     17.0630      1.6800     78.3900
    178     28.6860     25.9320     16.8210      1.7700     78.3900
    179     27.7800     25.5090     18.9820      1.7700     78.3900
    180     26.8330     25.6130     19.9340      1.6800     78.3900
    181     25.9830     26.1120     19.7710      0.0100     78.3900
    182     26.9560     25.1470     20.8100      0.0100     78.3900
    183     28.9620     25.5980     13.4750      1.7700     78.3900
    184     28.5640     24.6630     13.9310      0.0100     78.3900
    185     30.2040     25.3360     12.8320      1.5900     78.3900
    186     30.7120     24.6820     13.3560      0.0100     78.3900
    187     27.9340     26.2230     12.5310      1.7700     78.3900
    188     26.9270     26.1950     13.0100      0.0100     78.3900
    189     27.9340     25.6850     11.1910      1.5900     78.3900
    190     26.9510     24.5110     10.8240      2.1000     78.3900
    191     25.6140     24.8470     11.3500      1.5900     78.3900
    192     27.0390     24.2560      9.3660      1.5900     78.3900
    193     27.4970     23.2580     11.5890      1.5900     78.3900
    194     28.7830     22.6780     11.2870      1.7700     78.3900
    195     29.5770     23.4590     11.2360      0.0100     78.3900
    196     28.7640     22.1520     10.3050      0.0100     78.3900
    197     29.1460     21.7130     12.4190      1.7700     78.3900
    198     28.9700     22.2600     13.3670      0.0100     78.3900
    199     28.2660     20.5550     12.4220      1.5900     78.3900
    200     29.0390     19.3840     12.2550      1.7700     78.3900
    201     29.2480     19.0050     13.2810      0.0100     78.3900
    202     28.2970     18.3950     11.4780      1.6800     78.3900
    203     28.0230     17.1100     11.8540      1.7700     78.3900
    204     28.2800     14.5360     14.1470      1.6800     78.3900
    205     27.9420     13.6020     14.2760      0.0100     78.3900
    206     28.8330     14.9580     14.8620      0.0100     78.3900
    207     28.4220     16.5200     12.9930      1.6800     78.3900
    208     27.9620     15.2750     13.1020      1.7700     78.3900
    209     27.1680     14.6740     12.1570      1.6800     78.3900
    210     26.8540     13.7340     12.3260      0.0100     78.3900
    211     26.7530     15.2610     10.9670      1.7700     78.3900
    212     26.0450     14.6540     10.1540      1.5900     78.3900
    213     27.2510     16.5860     10.8340      1.7700     78.3900
    214     27.0630     17.5220      9.8220      1.6800     78.3900
    215     27.7030     18.5860     10.2520      1.7700     78.3900
    216     27.7650     19.5440      9.7310      0.0100     78.3900
    217     30.3250     19.8170     11.6010      1.7700     78.3900
    218     30.1790     20.0250     10.5160      0.0100     78.3900
    219     31.3760     18.8880     11.7810      1.5900     78.3900
    220     31.6160     18.9230     12.7240      0.0100     78.3900
    221     30.5790     21.1160     12.3610      1.7700     78.3900
    222     31.2340     21.7770     11.7460      0.0100     78.3900
    223     31.1850     20.8840     13.6590      1.5900     78.3900
    224     31.3860     22.0370     14.7150      2.1000     78.3900
    225     32.4300     21.5600     15.6490      1.5900     78.3900
    226     31.6490     23.3030     13.9910      1.5900     78.3900
    227     30.0400     22.1870     15.4980      1.5900     78.3900
    228     29.1970     21.0970     15.9100      1.7700     78.3900
    229     29.7900     20.2710     16.3650      0.0100     78.3900
    230     28.6450     20.6800     15.0400      0.0100     78.3900
    231     28.1680     21.5690     16.9470      1.7700     78.3900
    232     28.6910     21.9570     17.8460      0.0100     78.3900
    233     27.3560     22.6670     16.4450      1.5900     78.3900
    234     26.0960     22.6550     17.1030      1.7700     78.3900
    235     26.0480     23.6030     17.6860      0.0100     78.3900
    236     24.9580     22.5980     16.1320      1.6800     78.3900
    237     25.1810     22.4450     14.7770      1.7700     78.3900
    238     26.2250     22.3300     14.4710      0.0100     78.3900
    239     23.6820     22.8140     16.6110      1.7700     78.3900
    240     23.4390     23.0270     17.7930      1.5900     78.3900
    241     22.6890     22.7680     15.6680      1.6800     78.3900
    242     21.7610     22.9460     16.0170      0.0100     78.3900
    243     22.8360     22.5950     14.3090      1.7700     78.3900
    244     21.8420     22.5960     13.5840      1.5900     78.3900
    245     24.1880     22.4100     13.8760      1.7700     78.3900
    246     24.3870     22.2680     12.8170      0.0100     78.3900
    247     26.1110     21.4670     18.0670      1.7700     78.3900
    248     25.1170     20.9830     18.1290      0.0100     78.3900
    249     26.5330     21.8450     19.3670      1.5900     78.3900
    250     26.6820     21.0210     19.8520      0.0100     78.3900
    251     27.1250     20.5460     17.4020      1.7700     78.3900
    252     26.6780     20.1300     16.4670      0.0100     78.3900
    253     27.7100     19.5540     18.2870      1.5900     78.3900
    254     27.5920     18.0200     17.9200      2.1000     78.3900
    255     27.2580     17.8550     16.4880      1.5900     78.3900
    256     28.8020     17.3270     18.4110      1.5900     78.3900
    257     26.3470     17.5180     18.7450      1.5900     78.3900
    258     26.2620     17.5890     20.1830      1.7700     78.3900
    259     26.9890     18.3180     20.6130      0.0100     78.3900
    260     26.4890     16.5870     20.6120      0.0100     78.3900
    261     24.8630     18.0140     20.6640      1.7700     78.3900
    262     24.8720     18.2010     21.7600      0.0100     78.3900
    263     24.4700     19.2570     20.0150      1.5900     78.3900
    264     23.0730     19.2270     19.7460      1.7700     78.3900
    265     22.6540     20.1370     20.2380      0.0100     78.3900
    266     22.7540     19.2710     18.2900      1.6800     78.3900
    267     23.7150     18.9530     17.3610      1.7700     78.3900
    268     24.7000     18.7160     17.7560      0.0100     78.3900
    269     23.4670     19.0050     16.0490      1.7700     78.3900
    270     24.2350     18.8040     15.3070      0.0100     78.3900
    271     21.4730     19.6100     17.8630      1.7700     78.3900
    272     20.6060     19.8760     18.7110      1.5900     78.3900
    273     21.2010     19.6700     16.5390      1.6800     78.3900
    274     22.1560     19.3760     15.6400      1.7700     78.3900
    275     21.8730     19.4670     14.3430      1.6800     78.3900
    276     20.9450     19.7090     14.0500      0.0100     78.3900
    277     22.5380     19.2180     13.6410      0.0100     78.3900
    278     22.5130     17.9930     20.4160      1.7700     78.3900
    279     21.6440     17.5720     19.8740      0.0100     78.3900
    280     22.1360     18.2970     21.7460      1.5900     78.3900
    281     21.8360     17.4700     22.1440      0.0100     78.3900
    282     23.7100     17.0480     20.3630      1.7700     78.3900
    283     23.8760     16.6860     19.3200      0.0100     78.3900
    284     23.6810     15.9890     21.3460      1.5900     78.3900
    285     23.1330     14.5750     20.9330      2.1000     78.3900
    286     23.6320     14.2500     19.5810      1.5900     78.3900
    287     23.4350     13.6120     22.0130      1.5900     78.3900
    288     21.5760     14.7900     20.8510      1.5900     78.3900
    289     20.8190     15.0940     22.0460      1.7700     78.3900
    290     21.2470     15.9600     22.6030      0.0100     78.3900
    291     20.8220     14.2190     22.7380      0.0100     78.3900
    292     19.3630     15.4100     21.6920      1.7700     78.3900
    293     18.7570     15.6060     22.6060      0.0100     78.3900
    294     19.3030     16.6130     20.8740      1.5900     78.3900
    295     18.2690     16.4710     19.9090      1.7700     78.3900
    296     17.5700     17.3270     20.0570      0.0100     78.3900
    297     18.8080     16.5150     18.5420      1.6800     78.3900
    298     18.0960     16.7670     17.4010      1.7700     78.3900
    299     15.0930     17.4760     15.8280      1.6800     78.3900
    300     14.4470     17.4780     16.5920      0.0100     78.3900
    301     14.7540     17.6380     14.8970      0.0100     78.3900
    302     16.7750     17.0000     17.3320      1.6800     78.3900
    303     16.3640     17.2280     16.0860      1.7700     78.3900
    304     17.2090     17.2210     15.0070      1.6800     78.3900
    305     16.8140     17.3840     14.0930      0.0100     78.3900
    306     18.5760     16.9680     15.0460      1.7700     78.3900
    307     19.2600     16.9760     14.0180      1.5900     78.3900
    308     19.0180     16.7150     16.3720      1.7700     78.3900
    309     20.2840     16.4070     16.8540      1.6800     78.3900
    310     20.1090     16.2910     18.1480      1.7700     78.3900
    311     20.8830     16.0410     18.8750      0.0100     78.3900
    312     17.5470     15.1670     20.1950      1.7700     78.3900
    313     17.1880     14.6760     19.2630      0.0100     78.3900
    314     16.4520     15.3890     21.0730      1.5900     78.3900
    315     16.1180     14.5280     21.3730      0.0100     78.3900
    316     18.6570     14.3450     20.8430      1.7700     78.3900
    317     19.3690     13.9810     20.0710      0.0100     78.3900
    318     18.1920     13.2620     21.6650      1.5900     78.3900
    319     17.7350     12.5990     21.1130      0.0100     78.3900

     ----------------------------
     INPUT FOR TESSERA DEFINITION
     ----------------------------
     NTSALL  =        60     MTHALL  =         4
     MTHAUT  =         0     AUTFRE  =    2.0000
     NTSFRZ  =        60     KEEPSM  =         0
     AREAKP  =   10.0000     BONDRY  =    1.0000
     AREATL  =    0.0100

     SPHERE     INITS       METHOD
          1        60       FIXPVA
          2        60       FIXPVA
          3        60       FIXPVA
          4        60       FIXPVA
          5        60       FIXPVA
          6        60       FIXPVA
          7        60       FIXPVA
          8        60       FIXPVA
          9        60       FIXPVA
         10        60       FIXPVA
         11        60       FIXPVA
         12        60       FIXPVA
         13        60       FIXPVA
         14        60       FIXPVA
         15        60       FIXPVA
         16        60       FIXPVA
         17        60       FIXPVA
         18        60       FIXPVA
         19        60       FIXPVA
         20        60       FIXPVA
         21        60       FIXPVA
         22        60       FIXPVA
         23        60       FIXPVA
         24        60       FIXPVA
         25        60       FIXPVA
         26        60       FIXPVA
         27        60       FIXPVA
         28        60       FIXPVA
         29        60       FIXPVA
         30        60       FIXPVA
         31        60       FIXPVA
         32        60       FIXPVA
         33        60       FIXPVA
         34        60       FIXPVA
         35        60       FIXPVA
         36        60       FIXPVA
         37        60       FIXPVA
         38        60       FIXPVA
         39        60       FIXPVA
         40        60       FIXPVA
         41        60       FIXPVA
         42        60       FIXPVA
         43        60       FIXPVA
         44        60       FIXPVA
         45        60       FIXPVA
         46        60       FIXPVA
         47        60       FIXPVA
         48        60       FIXPVA
         49        60       FIXPVA
         50        60       FIXPVA
         51        60       FIXPVA
         52        60       FIXPVA
         53        60       FIXPVA
         54        60       FIXPVA
         55        60       FIXPVA
         56        60       FIXPVA
         57        60       FIXPVA
         58        60       FIXPVA
         59        60       FIXPVA
         60        60       FIXPVA
         61        60       FIXPVA
         62        60       FIXPVA
         63        60       FIXPVA
         64        60       FIXPVA
         65        60       FIXPVA
         66        60       FIXPVA
         67        60       FIXPVA
         68        60       FIXPVA
         69        60       FIXPVA
         70        60       FIXPVA
         71        60       FIXPVA
         72        60       FIXPVA
         73        60       FIXPVA
         74        60       FIXPVA
         75        60       FIXPVA
         76        60       FIXPVA
         77        60       FIXPVA
         78        60       FIXPVA
         79        60       FIXPVA
         80        60       FIXPVA
         81        60       FIXPVA
         82        60       FIXPVA
         83        60       FIXPVA
         84        60       FIXPVA
         85        60       FIXPVA
         86        60       FIXPVA
         87        60       FIXPVA
         88        60       FIXPVA
         89        60       FIXPVA
         90        60       FIXPVA
         91        60       FIXPVA
         92        60       FIXPVA
         93        60       FIXPVA
         94        60       FIXPVA
         95        60       FIXPVA
         96        60       FIXPVA
         97        60       FIXPVA
         98        60       FIXPVA
         99        60       FIXPVA
        100        60       FIXPVA
        101        60       FIXPVA
        102        60       FIXPVA
        103        60       FIXPVA
        104        60       FIXPVA
        105        60       FIXPVA
        106        60       FIXPVA
        107        60       FIXPVA
        108        60       FIXPVA
        109        60       FIXPVA
        110        60       FIXPVA
        111        60       FIXPVA
        112        60       FIXPVA
        113        60       FIXPVA
        114        60       FIXPVA
        115        60       FIXPVA
        116        60       FIXPVA
        117        60       FIXPVA
        118        60       FIXPVA
        119        60       FIXPVA
        120        60       FIXPVA
        121        60       FIXPVA
        122        60       FIXPVA
        123        60       FIXPVA
        124        60       FIXPVA
        125        60       FIXPVA
        126        60       FIXPVA
        127        60       FIXPVA
        128        60       FIXPVA
        129        60       FIXPVA
        130        60       FIXPVA
        131        60       FIXPVA
        132        60       FIXPVA
        133        60       FIXPVA
        134        60       FIXPVA
        135        60       FIXPVA
        136        60       FIXPVA
        137        60       FIXPVA
        138        60       FIXPVA
        139        60       FIXPVA
        140        60       FIXPVA
        141        60       FIXPVA
        142        60       FIXPVA
        143        60       FIXPVA
        144        60       FIXPVA
        145        60       FIXPVA
        146        60       FIXPVA
        147        60       FIXPVA
        148        60       FIXPVA
        149        60       FIXPVA
        150        60       FIXPVA
        151        60       FIXPVA
        152        60       FIXPVA
        153        60       FIXPVA
        154        60       FIXPVA
        155        60       FIXPVA
        156        60       FIXPVA
        157        60       FIXPVA
        158        60       FIXPVA
        159        60       FIXPVA
        160        60       FIXPVA
        161        60       FIXPVA
        162        60       FIXPVA
        163        60       FIXPVA
        164        60       FIXPVA
        165        60       FIXPVA
        166        60       FIXPVA
        167        60       FIXPVA
        168        60       FIXPVA
        169        60       FIXPVA
        170        60       FIXPVA
        171        60       FIXPVA
        172        60       FIXPVA
        173        60       FIXPVA
        174        60       FIXPVA
        175        60       FIXPVA
        176        60       FIXPVA
        177        60       FIXPVA
        178        60       FIXPVA
        179        60       FIXPVA
        180        60       FIXPVA
        181        60       FIXPVA
        182        60       FIXPVA
        183        60       FIXPVA
        184        60       FIXPVA
        185        60       FIXPVA
        186        60       FIXPVA
        187        60       FIXPVA
        188        60       FIXPVA
        189        60       FIXPVA
        190        60       FIXPVA
        191        60       FIXPVA
        192        60       FIXPVA
        193        60       FIXPVA
        194        60       FIXPVA
        195        60       FIXPVA
        196        60       FIXPVA
        197        60       FIXPVA
        198        60       FIXPVA
        199        60       FIXPVA
        200        60       FIXPVA
        201        60       FIXPVA
        202        60       FIXPVA
        203        60       FIXPVA
        204        60       FIXPVA
        205        60       FIXPVA
        206        60       FIXPVA
        207        60       FIXPVA
        208        60       FIXPVA
        209        60       FIXPVA
        210        60       FIXPVA
        211        60       FIXPVA
        212        60       FIXPVA
        213        60       FIXPVA
        214        60       FIXPVA
        215        60       FIXPVA
        216        60       FIXPVA
        217        60       FIXPVA
        218        60       FIXPVA
        219        60       FIXPVA
        220        60       FIXPVA
        221        60       FIXPVA
        222        60       FIXPVA
        223        60       FIXPVA
        224        60       FIXPVA
        225        60       FIXPVA
        226        60       FIXPVA
        227        60       FIXPVA
        228        60       FIXPVA
        229        60       FIXPVA
        230        60       FIXPVA
        231        60       FIXPVA
        232        60       FIXPVA
        233        60       FIXPVA
        234        60       FIXPVA
        235        60       FIXPVA
        236        60       FIXPVA
        237        60       FIXPVA
        238        60       FIXPVA
        239        60       FIXPVA
        240        60       FIXPVA
        241        60       FIXPVA
        242        60       FIXPVA
        243        60       FIXPVA
        244        60       FIXPVA
        245        60       FIXPVA
        246        60       FIXPVA
        247        60       FIXPVA
        248        60       FIXPVA
        249        60       FIXPVA
        250        60       FIXPVA
        251        60       FIXPVA
        252        60       FIXPVA
        253        60       FIXPVA
        254        60       FIXPVA
        255        60       FIXPVA
        256        60       FIXPVA
        257        60       FIXPVA
        258        60       FIXPVA
        259        60       FIXPVA
        260        60       FIXPVA
        261        60       FIXPVA
        262        60       FIXPVA
        263        60       FIXPVA
        264        60       FIXPVA
        265        60       FIXPVA
        266        60       FIXPVA
        267        60       FIXPVA
        268        60       FIXPVA
        269        60       FIXPVA
        270        60       FIXPVA
        271        60       FIXPVA
        272        60       FIXPVA
        273        60       FIXPVA
        274        60       FIXPVA
        275        60       FIXPVA
        276        60       FIXPVA
        277        60       FIXPVA
        278        60       FIXPVA
        279        60       FIXPVA
        280        60       FIXPVA
        281        60       FIXPVA
        282        60       FIXPVA
        283        60       FIXPVA
        284        60       FIXPVA
        285        60       FIXPVA
        286        60       FIXPVA
        287        60       FIXPVA
        288        60       FIXPVA
        289        60       FIXPVA
        290        60       FIXPVA
        291        60       FIXPVA
        292        60       FIXPVA
        293        60       FIXPVA
        294        60       FIXPVA
        295        60       FIXPVA
        296        60       FIXPVA
        297        60       FIXPVA
        298        60       FIXPVA
        299        60       FIXPVA
        300        60       FIXPVA
        301        60       FIXPVA
        302        60       FIXPVA
        303        60       FIXPVA
        304        60       FIXPVA
        305        60       FIXPVA
        306        60       FIXPVA
        307        60       FIXPVA
        308        60       FIXPVA
        309        60       FIXPVA
        310        60       FIXPVA
        311        60       FIXPVA
        312        60       FIXPVA
        313        60       FIXPVA
        314        60       FIXPVA
        315        60       FIXPVA
        316        60       FIXPVA
        317        60       FIXPVA
        318        60       FIXPVA
        319        60       FIXPVA

     ------------------------------
      FIXPVA TESSELLATION FOR PCM
         PEIFENG SU AND HUI LI
     UNIVERSITY OF NEBRASKA-LINCOLN
     ------------------------------


 PCM DIMENSIONS: MXSP=   319, MXTS=     12760, MEMORY=        131112

     INPUT FOR CAVITY DEFINITION 
     ---------------------------
   ATOM               COORDINATES                RADIUS       EPS
      1     13.5730     19.7940      6.3890      0.0100     78.3900
      2     13.4570     19.6520      7.3480      1.5900     78.3900
      3     12.0450     19.5860      7.6020      1.7700     78.3900
      4     11.6170     18.7180      7.0540      0.0100     78.3900
      5     11.5550     20.5070      7.2160      0.0100     78.3900
      6     11.7070     19.4310      9.0880      1.7700     78.3900
      7     10.6070     19.4080      9.2350      0.0100     78.3900
      8     12.2300     18.1700      9.5950      1.5900     78.3900
      9     12.7150     18.3620     10.9160      1.7700     78.3900
     10     12.1860     17.6190     11.5520      0.0100     78.3900
     11     14.1840     18.1320     11.0290      1.6800     78.3900
     12     14.9790     18.1460      9.9030      1.7700     78.3900
     13     14.4720     18.3300      8.9550      0.0100     78.3900
     14     16.2950     17.9120      9.9730      1.7700     78.3900
     15     16.9320     17.8930      9.0880      0.0100     78.3900
     16     14.7640     17.9050     12.2750      1.7700     78.3900
     17     14.0460     17.9150     13.2870      1.5900     78.3900
     18     16.0890     17.6500     12.3640      1.6800     78.3900
     19     16.8520     17.6460     11.2550      1.7700     78.3900
     20     18.1490     17.3630     11.3630      1.6800     78.3900
     21     18.5540     17.2310     12.2700      0.0100     78.3900
     22     18.7480     17.3380     10.5620      0.0100     78.3900
     23     12.2970     19.7520     11.3530      1.7700     78.3900
     24     13.0110     20.2010     12.0680      0.0100     78.3900
     25     11.0040     19.7130     11.9340      1.5900     78.3900
     26     10.8060     20.6220     12.1890      0.0100     78.3900
     27     12.2910     20.5010     10.0210      1.7700     78.3900
     28     13.3380     20.6830      9.6780      0.0100     78.3900
     29     11.4590     21.6890      9.9840      1.5900     78.3900
     30     12.1300     23.0820     10.2890      2.1000     78.3900
     31     13.4050     23.1800      9.5510      1.5900     78.3900
     32     11.1460     24.1620     10.0570      1.5900     78.3900
     33     12.4360     22.9990     11.8290      1.5900     78.3900
     34     11.3380     23.0300     12.7760      1.7700     78.3900
     35     10.5540     22.2740     12.5270      0.0100     78.3900
     36     10.8470     24.0310     12.7620      0.0100     78.3900
     37     11.8300     22.7610     14.2050      1.7700     78.3900
     38     10.9840     22.7150     14.9230      0.0100     78.3900
     39     12.5100     21.4740     14.2470      1.5900     78.3900
     40     13.6140     21.5500     15.1360      1.7700     78.3900
     41     13.4540     20.7600     15.9060      0.0100     78.3900
     42     14.8900     21.2970     14.4540      1.6800     78.3900
     43     16.0790     20.9580     15.0470      1.7700     78.3900
     44     17.9790     20.4010     17.8920      1.6800     78.3900
     45     17.3280     20.5570     18.6330      0.0100     78.3900
     46     18.9390     20.2090     18.1160      0.0100     78.3900
     47     16.2960     20.8180     16.3670      1.6800     78.3900
     48     17.5670     20.5370     16.6460      1.7700     78.3900
     49     18.5150     20.3310     15.6790      1.6800     78.3900
     50     19.4530     20.1070     15.9750      0.0100     78.3900
     51     18.3110     20.4260     14.3090      1.7700     78.3900
     52     19.2290     20.2260     13.5080      1.5900     78.3900
     53     16.9740     20.7940     14.0080      1.7700     78.3900
     54     16.3670     21.0500     12.7870      1.6800     78.3900
     55     15.1310     21.3490     13.1020      1.7700     78.3900
     56     14.3460     21.6270     12.3980      0.0100     78.3900
     57     13.5680     22.9060     15.7900      1.7700     78.3900
     58     14.5770     23.2990     16.0130      0.0100     78.3900
     59     12.8040     22.8240     16.9750      1.5900     78.3900
     60     12.6160     23.7300     17.2570      0.0100     78.3900
     61     12.8670     23.7560     14.7390      1.7700     78.3900
     62     13.5510     23.9730     13.8870      0.0100     78.3900
     63     12.2150     24.9420     15.2620      1.5900     78.3900
     64     13.0180     26.3000     15.2850      2.1000     78.3900
     65     13.4380     26.6120     13.9010      1.5900     78.3900
     66     12.2120     27.3260     15.9800      1.5900     78.3900
     67     14.2920     25.9980     16.1430      1.5900     78.3900
     68     14.2570     25.8800     17.5810      1.7700     78.3900
     69     13.5170     25.1130     17.9080      0.0100     78.3900
     70     13.9350     26.8430     18.0430      0.0100     78.3900
     71     15.6380     25.4860     18.1450      1.7700     78.3900
     72     15.5900     25.3700     19.2480      0.0100     78.3900
     73     16.0750     24.2020     17.5970      1.5900     78.3900
     74     17.4790     24.2320     17.3570      1.7700     78.3900
     75     17.9020     23.3690     17.9200      0.0100     78.3900
     76     17.8230     24.1030     15.9050      1.6800     78.3900
     77     16.9090     24.4440     14.9360      1.7700     78.3900
     78     15.9570     24.8050     15.3090      0.0100     78.3900
     79     19.0660     23.6220     15.5540      1.7700     78.3900
     80     19.9160     23.2990     16.3780      1.5900     78.3900
     81     19.2840     23.5090     14.2020      1.6800     78.3900
     82     20.1740     23.1160     13.9210      0.0100     78.3900
     83     18.3960     23.7800     13.1820      1.7700     78.3900
     84     18.7170     23.5810     12.0120      1.5900     78.3900
     85     17.1390     24.3000     13.6240      1.7700     78.3900
     86     16.3840     24.5410     12.8780      0.0100     78.3900
     87     17.9910     25.5180     17.9630      1.7700     78.3900
     88     18.8690     25.9180     17.4200      0.0100     78.3900
     89     18.3170     25.3070     19.3250      1.5900     78.3900
     90     18.5510     26.1700     19.6860      0.0100     78.3900
     91     16.7870     26.4440     17.8180      1.7700     78.3900
     92     16.6480     26.7510     16.7580      0.0100     78.3900
     93     16.7710     27.5630     18.7320      1.5900     78.3900
     94     17.5090     28.8920     18.3120      2.1000     78.3900
     95     17.0220     29.2980     16.9760      1.5900     78.3900
     96     17.3660     29.8710     19.4110      1.5900     78.3900
     97     19.0310     28.5100     18.1800      1.5900     78.3900
     98     19.8490     28.2750     19.3480      1.7700     78.3900
     99     19.3960     27.5070     20.0100      0.0100     78.3900
    100     19.9480     29.2130     19.9450      0.0100     78.3900
    101     21.2590     27.7950     18.9620      1.7700     78.3900
    102     21.8540     27.5370     19.8670      0.0100     78.3900
    103     21.1930     26.5930     18.1390      1.5900     78.3900
    104     22.2340     26.6200     17.1690      1.7700     78.3900
    105     22.8350     25.6990     17.3410      0.0100     78.3900
    106     21.6950     26.6030     15.7800      1.6800     78.3900
    107     20.4060     27.0110     15.5100      1.7700     78.3900
    108     19.8530     27.3880     16.3690      0.0100     78.3900
    109     22.5170     26.1590     14.7690      1.7700     78.3900
    110     23.6700     25.7890     14.9610      1.5900     78.3900
    111     21.9360     26.1210     13.5270      1.6800     78.3900
    112     22.5410     25.8410     12.7780      0.0100     78.3900
    113     20.6560     26.5000     13.1870      1.7700     78.3900
    114     20.2800     26.4330     12.0190      1.5900     78.3900
    115     19.8630     26.9590     14.2850      1.7700     78.3900
    116     18.8460     27.2960     14.0800      0.0100     78.3900
    117     23.0910     27.8490     17.4610      1.7700     78.3900
    118     23.5050     28.3080     16.5360      0.0100     78.3900
    119     24.1500     27.5010     18.3400      1.5900     78.3900
    120     24.8940     27.1550     17.8070      0.0100     78.3900
    121     22.0710     28.7790     18.1160      1.7700     78.3900
    122     21.3700     29.1770     17.3490      0.0100     78.3900
    123     22.6280     29.8090     18.9550      1.5900     78.3900
    124     22.8070     31.2750     18.4250      2.1000     78.3900
    125     21.5240     31.7390     17.8610      1.5900     78.3900
    126     23.3910     32.0880     19.5210      1.5900     78.3900
    127     23.8570     31.1600     17.2570      1.5900     78.3900
    128     24.1060     32.3050     16.4030      1.7700     78.3900
    129     24.0310     33.2760     16.9500      0.0100     78.3900
    130     23.3580     32.3260     15.5800      0.0100     78.3900
    131     25.5070     32.2350     15.7850      1.7700     78.3900
    132     25.6550     33.0490     15.0470      0.0100     78.3900
    133     26.4860     32.4470     16.8400      1.5900     78.3900
    134     27.5870     31.5750     16.6460      1.7700     78.3900
    135     28.4930     32.2190     16.6260      0.0100     78.3900
    136     27.7200     30.6260     17.7510      1.6800     78.3900
    137     28.5540     29.2070     19.2060      1.7700     78.3900
    138     27.2700     29.5010     19.6450      1.6800     78.3900
    139     26.8100     30.3340     18.7420      1.7700     78.3900
    140     25.8180     30.7930     18.7530      0.0100     78.3900
    141     30.7490     28.3280     19.0520      1.6800     78.3900
    142     30.8650     29.0280     17.9190      1.7700     78.3900
    143     31.8220     28.9250     17.4000      0.0100     78.3900
    144     29.9810     29.8390     17.3300      1.6800     78.3900
    145     28.8380     29.8860     18.0350      1.7700     78.3900
    146     29.5800     28.3980     19.7410      1.7700     78.3900
    147     29.4560     27.7110     20.8930      1.6800     78.3900
    148     28.5740     27.6400     21.3610      0.0100     78.3900
    149     30.1610     27.0470     21.1380      0.0100     78.3900
    150     27.4250     30.9030     15.2990      1.7700     78.3900
    151     27.8240     29.8650     15.2870      0.0100     78.3900
    152     28.0560     31.6780     14.2910      1.5900     78.3900
    153     27.7530     31.3300     13.4400      0.0100     78.3900
    154     25.9130     30.9010     15.1330      1.7700     78.3900
    155     25.4700     30.0880     15.7580      0.0100     78.3900
    156     25.4810     30.8670     13.7530      1.5900     78.3900
    157     24.9020     29.5340     13.1440      2.1000     78.3900
    158     23.8730     29.0050     14.0590      1.5900     78.3900
    159     24.4690     29.8240     11.7600      1.5900     78.3900
    160     26.1390     28.5630     13.1240      1.5900     78.3900
    161     27.2450     28.7170     12.2090      1.7700     78.3900
    162     27.6770     29.7440     12.2590      0.0100     78.3900
    163     26.9020     28.5480     11.1640      0.0100     78.3900
    164     28.3660     27.7030     12.5070      1.7700     78.3900
    165     29.2060     27.8150     11.7870      0.0100     78.3900
    166     28.9050     27.9500     13.8370      1.5900     78.3900
    167     29.1460     26.7100     14.4850      1.7700     78.3900
    168     30.2130     26.7380     14.8040      0.0100     78.3900
    169     28.3030     26.5570     15.6690      1.6800     78.3900
    170     27.6190     26.0570     17.6920      1.7700     78.3900
    171     26.5730     26.7460     17.0940      1.6800     78.3900
    172     27.0220     27.0100     15.8910      1.7700     78.3900
    173     26.4600     27.5430     15.1250      0.0100     78.3900
    174     28.9530     24.8810     19.2570      1.6800     78.3900
    175     29.8670     24.8040     18.2850      1.7700     78.3900
    176     30.7910     24.2840     18.5540      0.0100     78.3900
    177     29.8600     25.3390     17.0630      1.6800     78.3900
    178     28.6860     25.9320     16.8210      1.7700     78.3900
    179     27.7800     25.5090     18.9820      1.7700     78.3900
    180     26.8330     25.6130     19.9340      1.6800     78.3900
    181     25.9830     26.1120     19.7710      0.0100     78.3900
    182     26.9560     25.1470     20.8100      0.0100     78.3900
    183     28.9620     25.5980     13.4750      1.7700     78.3900
    184     28.5640     24.6630     13.9310      0.0100     78.3900
    185     30.2040     25.3360     12.8320      1.5900     78.3900
    186     30.7120     24.6820     13.3560      0.0100     78.3900
    187     27.9340     26.2230     12.5310      1.7700     78.3900
    188     26.9270     26.1950     13.0100      0.0100     78.3900
    189     27.9340     25.6850     11.1910      1.5900     78.3900
    190     26.9510     24.5110     10.8240      2.1000     78.3900
    191     25.6140     24.8470     11.3500      1.5900     78.3900
    192     27.0390     24.2560      9.3660      1.5900     78.3900
    193     27.4970     23.2580     11.5890      1.5900     78.3900
    194     28.7830     22.6780     11.2870      1.7700     78.3900
    195     29.5770     23.4590     11.2360      0.0100     78.3900
    196     28.7640     22.1520     10.3050      0.0100     78.3900
    197     29.1460     21.7130     12.4190      1.7700     78.3900
    198     28.9700     22.2600     13.3670      0.0100     78.3900
    199     28.2660     20.5550     12.4220      1.5900     78.3900
    200     29.0390     19.3840     12.2550      1.7700     78.3900
    201     29.2480     19.0050     13.2810      0.0100     78.3900
    202     28.2970     18.3950     11.4780      1.6800     78.3900
    203     28.0230     17.1100     11.8540      1.7700     78.3900
    204     28.2800     14.5360     14.1470      1.6800     78.3900
    205     27.9420     13.6020     14.2760      0.0100     78.3900
    206     28.8330     14.9580     14.8620      0.0100     78.3900
    207     28.4220     16.5200     12.9930      1.6800     78.3900
    208     27.9620     15.2750     13.1020      1.7700     78.3900
    209     27.1680     14.6740     12.1570      1.6800     78.3900
    210     26.8540     13.7340     12.3260      0.0100     78.3900
    211     26.7530     15.2610     10.9670      1.7700     78.3900
    212     26.0450     14.6540     10.1540      1.5900     78.3900
    213     27.2510     16.5860     10.8340      1.7700     78.3900
    214     27.0630     17.5220      9.8220      1.6800     78.3900
    215     27.7030     18.5860     10.2520      1.7700     78.3900
    216     27.7650     19.5440      9.7310      0.0100     78.3900
    217     30.3250     19.8170     11.6010      1.7700     78.3900
    218     30.1790     20.0250     10.5160      0.0100     78.3900
    219     31.3760     18.8880     11.7810      1.5900     78.3900
    220     31.6160     18.9230     12.7240      0.0100     78.3900
    221     30.5790     21.1160     12.3610      1.7700     78.3900
    222     31.2340     21.7770     11.7460      0.0100     78.3900
    223     31.1850     20.8840     13.6590      1.5900     78.3900
    224     31.3860     22.0370     14.7150      2.1000     78.3900
    225     32.4300     21.5600     15.6490      1.5900     78.3900
    226     31.6490     23.3030     13.9910      1.5900     78.3900
    227     30.0400     22.1870     15.4980      1.5900     78.3900
    228     29.1970     21.0970     15.9100      1.7700     78.3900
    229     29.7900     20.2710     16.3650      0.0100     78.3900
    230     28.6450     20.6800     15.0400      0.0100     78.3900
    231     28.1680     21.5690     16.9470      1.7700     78.3900
    232     28.6910     21.9570     17.8460      0.0100     78.3900
    233     27.3560     22.6670     16.4450      1.5900     78.3900
    234     26.0960     22.6550     17.1030      1.7700     78.3900
    235     26.0480     23.6030     17.6860      0.0100     78.3900
    236     24.9580     22.5980     16.1320      1.6800     78.3900
    237     25.1810     22.4450     14.7770      1.7700     78.3900
    238     26.2250     22.3300     14.4710      0.0100     78.3900
    239     23.6820     22.8140     16.6110      1.7700     78.3900
    240     23.4390     23.0270     17.7930      1.5900     78.3900
    241     22.6890     22.7680     15.6680      1.6800     78.3900
    242     21.7610     22.9460     16.0170      0.0100     78.3900
    243     22.8360     22.5950     14.3090      1.7700     78.3900
    244     21.8420     22.5960     13.5840      1.5900     78.3900
    245     24.1880     22.4100     13.8760      1.7700     78.3900
    246     24.3870     22.2680     12.8170      0.0100     78.3900
    247     26.1110     21.4670     18.0670      1.7700     78.3900
    248     25.1170     20.9830     18.1290      0.0100     78.3900
    249     26.5330     21.8450     19.3670      1.5900     78.3900
    250     26.6820     21.0210     19.8520      0.0100     78.3900
    251     27.1250     20.5460     17.4020      1.7700     78.3900
    252     26.6780     20.1300     16.4670      0.0100     78.3900
    253     27.7100     19.5540     18.2870      1.5900     78.3900
    254     27.5920     18.0200     17.9200      2.1000     78.3900
    255     27.2580     17.8550     16.4880      1.5900     78.3900
    256     28.8020     17.3270     18.4110      1.5900     78.3900
    257     26.3470     17.5180     18.7450      1.5900     78.3900
    258     26.2620     17.5890     20.1830      1.7700     78.3900
    259     26.9890     18.3180     20.6130      0.0100     78.3900
    260     26.4890     16.5870     20.6120      0.0100     78.3900
    261     24.8630     18.0140     20.6640      1.7700     78.3900
    262     24.8720     18.2010     21.7600      0.0100     78.3900
    263     24.4700     19.2570     20.0150      1.5900     78.3900
    264     23.0730     19.2270     19.7460      1.7700     78.3900
    265     22.6540     20.1370     20.2380      0.0100     78.3900
    266     22.7540     19.2710     18.2900      1.6800     78.3900
    267     23.7150     18.9530     17.3610      1.7700     78.3900
    268     24.7000     18.7160     17.7560      0.0100     78.3900
    269     23.4670     19.0050     16.0490      1.7700     78.3900
    270     24.2350     18.8040     15.3070      0.0100     78.3900
    271     21.4730     19.6100     17.8630      1.7700     78.3900
    272     20.6060     19.8760     18.7110      1.5900     78.3900
    273     21.2010     19.6700     16.5390      1.6800     78.3900
    274     22.1560     19.3760     15.6400      1.7700     78.3900
    275     21.8730     19.4670     14.3430      1.6800     78.3900
    276     20.9450     19.7090     14.0500      0.0100     78.3900
    277     22.5380     19.2180     13.6410      0.0100     78.3900
    278     22.5130     17.9930     20.4160      1.7700     78.3900
    279     21.6440     17.5720     19.8740      0.0100     78.3900
    280     22.1360     18.2970     21.7460      1.5900     78.3900
    281     21.8360     17.4700     22.1440      0.0100     78.3900
    282     23.7100     17.0480     20.3630      1.7700     78.3900
    283     23.8760     16.6860     19.3200      0.0100     78.3900
    284     23.6810     15.9890     21.3460      1.5900     78.3900
    285     23.1330     14.5750     20.9330      2.1000     78.3900
    286     23.6320     14.2500     19.5810      1.5900     78.3900
    287     23.4350     13.6120     22.0130      1.5900     78.3900
    288     21.5760     14.7900     20.8510      1.5900     78.3900
    289     20.8190     15.0940     22.0460      1.7700     78.3900
    290     21.2470     15.9600     22.6030      0.0100     78.3900
    291     20.8220     14.2190     22.7380      0.0100     78.3900
    292     19.3630     15.4100     21.6920      1.7700     78.3900
    293     18.7570     15.6060     22.6060      0.0100     78.3900
    294     19.3030     16.6130     20.8740      1.5900     78.3900
    295     18.2690     16.4710     19.9090      1.7700     78.3900
    296     17.5700     17.3270     20.0570      0.0100     78.3900
    297     18.8080     16.5150     18.5420      1.6800     78.3900
    298     18.0960     16.7670     17.4010      1.7700     78.3900
    299     15.0930     17.4760     15.8280      1.6800     78.3900
    300     14.4470     17.4780     16.5920      0.0100     78.3900
    301     14.7540     17.6380     14.8970      0.0100     78.3900
    302     16.7750     17.0000     17.3320      1.6800     78.3900
    303     16.3640     17.2280     16.0860      1.7700     78.3900
    304     17.2090     17.2210     15.0070      1.6800     78.3900
    305     16.8140     17.3840     14.0930      0.0100     78.3900
    306     18.5760     16.9680     15.0460      1.7700     78.3900
    307     19.2600     16.9760     14.0180      1.5900     78.3900
    308     19.0180     16.7150     16.3720      1.7700     78.3900
    309     20.2840     16.4070     16.8540      1.6800     78.3900
    310     20.1090     16.2910     18.1480      1.7700     78.3900
    311     20.8830     16.0410     18.8750      0.0100     78.3900
    312     17.5470     15.1670     20.1950      1.7700     78.3900
    313     17.1880     14.6760     19.2630      0.0100     78.3900
    314     16.4520     15.3890     21.0730      1.5900     78.3900
    315     16.1180     14.5280     21.3730      0.0100     78.3900
    316     18.6570     14.3450     20.8430      1.7700     78.3900
    317     19.3690     13.9810     20.0710      0.0100     78.3900
    318     18.1920     13.2620     21.6650      1.5900     78.3900
    319     17.7350     12.5990     21.1130      0.0100     78.3900

 CREATION OF A NEW CAVITY WITH THE ORIGINAL SPHERE
 SIZES FOR THE COMPUTATION OF THE CAVITATION ENERGY.

     INPUT FOR CAVITY DEFINITION 
     ---------------------------
   ATOM               COORDINATES                RADIUS       EPS
      1     13.5730     19.7940      6.3890      0.0100     78.3900
      2     13.4570     19.6520      7.3480      1.5900     78.3900
      3     12.0450     19.5860      7.6020      1.7700     78.3900
      4     11.6170     18.7180      7.0540      0.0100     78.3900
      5     11.5550     20.5070      7.2160      0.0100     78.3900
      6     11.7070     19.4310      9.0880      1.7700     78.3900
      7     10.6070     19.4080      9.2350      0.0100     78.3900
      8     12.2300     18.1700      9.5950      1.5900     78.3900
      9     12.7150     18.3620     10.9160      1.7700     78.3900
     10     12.1860     17.6190     11.5520      0.0100     78.3900
     11     14.1840     18.1320     11.0290      1.6800     78.3900
     12     14.9790     18.1460      9.9030      1.7700     78.3900
     13     14.4720     18.3300      8.9550      0.0100     78.3900
     14     16.2950     17.9120      9.9730      1.7700     78.3900
     15     16.9320     17.8930      9.0880      0.0100     78.3900
     16     14.7640     17.9050     12.2750      1.7700     78.3900
     17     14.0460     17.9150     13.2870      1.5900     78.3900
     18     16.0890     17.6500     12.3640      1.6800     78.3900
     19     16.8520     17.6460     11.2550      1.7700     78.3900
     20     18.1490     17.3630     11.3630      1.6800     78.3900
     21     18.5540     17.2310     12.2700      0.0100     78.3900
     22     18.7480     17.3380     10.5620      0.0100     78.3900
     23     12.2970     19.7520     11.3530      1.7700     78.3900
     24     13.0110     20.2010     12.0680      0.0100     78.3900
     25     11.0040     19.7130     11.9340      1.5900     78.3900
     26     10.8060     20.6220     12.1890      0.0100     78.3900
     27     12.2910     20.5010     10.0210      1.7700     78.3900
     28     13.3380     20.6830      9.6780      0.0100     78.3900
     29     11.4590     21.6890      9.9840      1.5900     78.3900
     30     12.1300     23.0820     10.2890      2.1000     78.3900
     31     13.4050     23.1800      9.5510      1.5900     78.3900
     32     11.1460     24.1620     10.0570      1.5900     78.3900
     33     12.4360     22.9990     11.8290      1.5900     78.3900
     34     11.3380     23.0300     12.7760      1.7700     78.3900
     35     10.5540     22.2740     12.5270      0.0100     78.3900
     36     10.8470     24.0310     12.7620      0.0100     78.3900
     37     11.8300     22.7610     14.2050      1.7700     78.3900
     38     10.9840     22.7150     14.9230      0.0100     78.3900
     39     12.5100     21.4740     14.2470      1.5900     78.3900
     40     13.6140     21.5500     15.1360      1.7700     78.3900
     41     13.4540     20.7600     15.9060      0.0100     78.3900
     42     14.8900     21.2970     14.4540      1.6800     78.3900
     43     16.0790     20.9580     15.0470      1.7700     78.3900
     44     17.9790     20.4010     17.8920      1.6800     78.3900
     45     17.3280     20.5570     18.6330      0.0100     78.3900
     46     18.9390     20.2090     18.1160      0.0100     78.3900
     47     16.2960     20.8180     16.3670      1.6800     78.3900
     48     17.5670     20.5370     16.6460      1.7700     78.3900
     49     18.5150     20.3310     15.6790      1.6800     78.3900
     50     19.4530     20.1070     15.9750      0.0100     78.3900
     51     18.3110     20.4260     14.3090      1.7700     78.3900
     52     19.2290     20.2260     13.5080      1.5900     78.3900
[...]
   267    9   6.0   1.84    3.2    0.003231    0.174064    0.149178
   268    9   1.0   0.00    0.0    0.000000    0.314347    0.342642
   269    9   6.0   8.20   14.5   -0.041246   -0.406601   -0.419491
   270    9   1.0   0.00    0.0    0.000000    0.273897    0.273633
   271    9   6.0   0.00    0.0    0.000000    1.075273    1.097822
   272    9   8.0   7.01   15.3    0.120811   -0.798401   -0.770262
   273    9   7.0   0.00    0.0    0.000000   -0.866809   -0.866708
   274    9   6.0   0.65    1.1    0.010402    0.740464    0.753045
   275    9   7.0  10.78   21.1   -0.095309   -0.944401   -1.008514
   276    9   1.0   0.00    0.0    0.000000    0.467695    0.515009
   277    9   1.0   0.00    0.0    0.000000    0.444235    0.440882
   278    9   6.0   0.00    0.0    0.000485    0.140190    0.106060
   279    9   1.0   0.00    0.0    0.000000    0.198280    0.231778
   280    9   8.0  17.11   37.4    0.114796   -0.825516   -0.843760
   281    9   1.0   0.00    0.0    0.000000    0.495929    0.521137
   282    9   6.0   1.92    3.4   -0.033062    0.133567    0.101967
   283    9   1.0   0.00    0.0    0.000000    0.247710    0.249420
   284    9   8.0   4.50    9.8    0.063178   -0.794140   -0.800531
   285    9  15.0  11.30   14.2    0.132169    1.601333    1.661075
   286    9   8.0  15.39   33.6    0.330364   -0.897170   -0.898645
   287    9   8.0  17.18   37.6    0.356670   -0.890626   -0.886127
   288    9   8.0   0.75    1.6    0.017684   -0.969754   -0.784163
   289   10   6.0  13.50   23.8   -0.112304    0.209320   -0.036493
   290   10   1.0   0.00    0.0    0.000000    0.155717    0.177334
   291   10   1.0   0.00    0.0    0.000000    0.243730    0.228444
   292   10   6.0   6.23   11.0   -0.041519    0.088795    0.157878
   293   10   1.0   0.00    0.0    0.000000    0.246586    0.219871
   294   10   8.0   3.99    8.7    0.049969   -0.726776   -0.735137
   295   10   6.0   4.99    8.8   -0.037228    0.423011    0.423306
   296   10   1.0   0.00    0.0    0.000000    0.249878    0.246708
   297   10   7.0   0.48    0.9   -0.001402   -0.794366   -0.804795
   298   10   6.0   0.96    1.7    0.001983    0.713118    0.715909
   299   10   7.0  14.68   28.7   -0.090010   -0.968317   -1.052251
   300   10   1.0   0.00    0.0    0.000000    0.442474    0.438717
   301   10   1.0   0.00    0.0    0.000000    0.474625    0.524841
   302   10   7.0   7.42   14.5    0.109752   -0.758487   -0.757643
   303   10   6.0   0.96    1.7   -0.003093    0.975167    0.969080
   304   10   7.0   2.10    4.1    0.004914   -0.938372   -1.029354
   305   10   1.0   0.00    0.0    0.000000    0.484847    0.543851
   306   10   6.0   1.04    1.8   -0.000167    0.873505    0.870184
   307   10   8.0   9.21   20.1    0.151626   -0.752557   -0.738409
   308   10   6.0   1.89    3.3    0.009811   -0.046510   -0.040578
   309   10   7.0   7.27   14.2    0.126630   -0.590130   -0.594082
   310   10   6.0   3.91    6.9    0.016268    0.275408    0.268625
   311   10   1.0   0.00    0.0    0.000000    0.261350    0.281120
   312   10   6.0   6.39   11.3   -0.048697    0.106930    0.107314
   313   10   1.0   0.00    0.0    0.000000    0.226866    0.226193
   314   10   8.0  20.62   45.1    0.051710   -0.836550   -0.837865
   315   10   1.0   0.00    0.0    0.000000    0.497995    0.498597
   316   10   6.0   5.91   10.4   -0.054731    0.165087    0.148917
   317   10   1.0   0.00    0.0    0.000000    0.224493    0.226586
   318   10   8.0  22.48   49.1   -0.012270   -0.852047   -0.855462
   319   10   1.0   0.00    0.0    0.000000    0.509022    0.508741

 Done with FMO properties.
 CPU     0: STEP CPU TIME=     0.00 TOTAL CPU TIME=      15453.8 (    257.6 MIN)
 TOTAL WALL CLOCK TIME=      34741.1 SECONDS, CPU UTILIZATION IS    44.48%
 CPU     0: STEP CPU TIME=     0.00 TOTAL CPU TIME=      15453.8 (    257.6 MIN)
 TOTAL WALL CLOCK TIME=      34741.2 SECONDS, CPU UTILIZATION IS    44.48%

 Total timing statistics in pairs (CPU,wall) for each rank, sec

    Rank   total     SCF    corr     DFT    CPHF     EFP    solv     ESP    geom
 -------------------------------------------------------------------------------
       1   15453.8   4553.9   5903.6      0.0    0.0   0.0  132.4  4581.8    0.0
       1   34741.3   9961.0  14508.8      0.0    0.0   0.0  342.4  9265.7    0.0
       2   15435.5   4523.3   5929.6      0.0    0.0   0.0  133.9  4571.9    0.0
       2   34741.3   9914.4  14508.8      0.0    0.0   0.0  342.1  9264.7    0.0
       3   15464.3   4528.1   5949.5      0.0    0.0   0.0  134.0  4574.6    0.0
       3   34741.3   9913.8  14508.8      0.0    0.0   0.0  342.4  9265.0    0.0
       4   15423.5   4517.7   5928.8      0.0    0.0   0.0  132.3  4569.8    0.0
       4   34741.3   9914.2  14508.8      0.0    0.0   0.0  341.3  9264.9    0.0
       5   15423.7   4539.8   5879.7      0.0    0.0   0.0  133.7  4591.7    0.0
       5   34741.3   9914.0  14508.7      0.0    0.0   0.0  342.6  9265.3    0.0
       6   15442.6   4513.6   5953.2      0.0    0.0   0.0  132.8  4567.1    0.0
       6   34741.3   9914.5  14508.7      0.0    0.0   0.0  341.1  9265.3    0.0
       7   15437.7   4525.1   5936.7      0.0    0.0   0.0  132.3  4567.6    0.0
       7   34741.3   9914.6  14508.7      0.0    0.0   0.0  341.7  9265.2    0.0
       8   15478.1   4509.3   6001.4      0.0    0.0   0.0  131.6  4563.8    0.0
       8   34741.3   9914.7  14508.7      0.0    0.0   0.0  340.4  9265.3    0.0
       9   15493.0   4534.7   5962.8      0.0    0.0   0.0  131.9  4587.2    0.0
       9   34741.3   9913.7  14508.8      0.0    0.0   0.0  342.2  9265.6    0.0
      10   15542.8   4509.0   6061.4      0.0    0.0   0.0  132.0  4566.8    0.0
      10   34741.3   9914.6  14508.8      0.0    0.0   0.0  340.8  9265.6    0.0
      11   15340.6   4512.8   5862.1      0.0    0.0   0.0  131.6  4561.2    0.0
      11   34741.3   9914.6  14508.8      0.0    0.0   0.0  341.3  9265.6    0.0
      12   15403.5   4496.4   5935.0      0.0    0.0   0.0  131.2  4567.8    0.0
      12   34741.3   9914.6  14508.8      0.0    0.0   0.0  340.1  9265.6    0.0
      13   15445.7   4518.8   5961.2      0.0    0.0   0.0  130.5  4560.9    0.0
      13   34741.3   9915.2  14508.7      0.0    0.0   0.0  340.9  9265.6    0.0
      14   15445.2   4507.4   5965.4      0.0    0.0   0.0  131.3  4566.7    0.0
      14   34741.3   9915.0  14508.7      0.0    0.0   0.0  340.1  9265.5    0.0
      15   15423.8   4514.8   5953.2      0.0    0.0   0.0  130.5  4553.2    0.0
      15   34741.3   9914.4  14508.7      0.0    0.0   0.0  340.2  9265.6    0.0
      16   15380.6   4503.9   5918.8      0.0    0.0   0.0  130.3  4556.0    0.0
      16   34741.3   9914.4  14508.7      0.0    0.0   0.0  339.4  9265.6    0.0
averaged   15439.6   4519.3   5943.9      0.0    0.0   0.0  132.0  4569.3    0.0
averaged   34741.3   9917.4  14508.7      0.0    0.0   0.0  341.2  9265.4    0.0

  FMO  timing statistics in pairs (CPU,wall) for each rank, sec

    Rank  FMOini FMOscf1  FMOdm1 FMOsyn1 FMOscf2  FMOes2 FMOsyn2 FMOscf3 FMOsyn3
 -------------------------------------------------------------------------------
       1    1.9    5977.6    0.3    0.0    9274.9     199.0    0.0    0.0    0.0
       1    5.1   12826.4    5.5    0.0   21499.2     404.7    0.0    0.0    0.0
       2    1.5    5953.1    0.1    0.0    9284.2     196.7    0.0    0.0    0.0
       2    5.1   12826.4    5.5    0.0   21505.6     398.3    0.0    0.0    0.0
       3    1.6    5962.9    0.2    0.0    9302.1     197.5    0.0    0.0    0.0
       3    5.1   12826.4    5.5    0.0   21505.5     398.5    0.0    0.0    0.0
       4    1.5    5953.4    0.1    0.0    9272.6     195.9    0.0    0.0    0.0
       4    5.1   12826.4    5.5    0.0   21505.5     398.4    0.0    0.0    0.0
       5    1.7    5969.3    0.2    0.0    9254.6     197.8    0.0    0.0    0.0
       5    5.1   12826.4    5.5    0.0   21505.5     398.4    0.0    0.0    0.0
       6    1.5    5950.2    0.1    0.0    9294.2     196.6    0.0    0.0    0.0
       6    5.1   12826.4    5.5    0.0   21505.7     398.2    0.0    0.0    0.0
       7    1.6    5967.4    0.1    0.0    9271.4     197.1    0.0    0.0    0.0
       7    5.1   12826.4    5.5    0.0   21505.5     398.4    0.0    0.0    0.0
       8    1.4    5948.9    0.1    0.0    9333.3     194.4    0.0    0.0    0.0
       8    5.1   12826.4    5.5    0.0   21505.4     398.5    0.0    0.0    0.0
       9    1.7    5965.8    0.2    0.0    9329.1     196.2    0.0    0.0    0.0
       9    5.1   12826.4    5.5    0.0   21505.5     398.4    0.0    0.0    0.0
      10    1.4    5943.0    0.1    0.0    9402.4     195.9    0.0    0.0    0.0
      10    5.1   12826.4    5.5    0.0   21505.3     398.6    0.0    0.0    0.0
      11    1.5    5936.7    0.1    0.0    9207.9     194.3    0.0    0.0    0.0
      11    5.1   12826.4    5.5    0.0   21505.7     398.3    0.0    0.0    0.0
      12    1.3    5937.9    0.1    0.0    9268.1     196.0    0.0    0.0    0.0
      12    5.1   12826.4    5.5    0.0   21505.9     398.0    0.0    0.0    0.0
      13    1.6    5944.6    0.2    0.0    9303.7     195.7    0.0    0.0    0.0
      13    5.1   12826.4    5.5    0.0   21504.9     399.1    0.0    0.0    0.0
      14    1.3    5946.3    0.0    0.0    9300.6     196.9    0.0    0.0    0.0
      14    5.1   12826.4    5.5    0.0   21505.0     399.0    0.0    0.0    0.0
      15    1.4    5937.7    0.1    0.0    9289.7     194.9    0.0    0.0    0.0
      15    5.1   12826.4    5.5    0.0   21505.9     398.1    0.0    0.0    0.0
      16    1.4    5925.7    0.1    0.0    9258.2     195.1    0.0    0.0    0.0
      16    5.1   12826.4    5.5    0.0   21506.1     397.9    0.0    0.0    0.0
averaged    1.5    5951.3    0.1    0.0    9290.4     196.3    0.0    0.0    0.0
averaged    5.1   12826.4    5.5    0.0   21505.1     398.8    0.0    0.0    0.0
             62787270  WORDS OF DYNAMIC MEMORY USED
 EXECUTION OF GAMESS TERMINATED NORMALLY Sun Dec  8 17:29:39 2019
 DDI: 263640 bytes (0.3 MB / 0 MWords) used by master data server.

 ----------------------------------------
 CPU timing information for all processes
 ========================================
 0: 15096.710 + 357.114 = 15453.824
 1: 15099.293 + 336.261 = 15435.555
 2: 15129.108 + 335.272 = 15464.380
 3: 15090.329 + 333.168 = 15423.498
 4: 15079.268 + 344.501 = 15423.770
 5: 15108.478 + 334.171 = 15442.650
 6: 15098.699 + 339.64 = 15437.764
 7: 15149.219 + 328.932 = 15478.152
 8: 15146.85 + 346.890 = 15492.976
 9: 15202.151 + 340.675 = 15542.826
 10: 14995.567 + 345.40 = 15340.607
 11: 15087.457 + 316.34 = 15403.492
 12: 15102.84 + 343.601 = 15445.686
 13: 15117.18 + 328.188 = 15445.207
 14: 15084.31 + 339.825 = 15423.856
 15: 15056.511 + 324.75 = 15380.586
 ----------------------------------------
 ddikick.x: exited gracefully.
unset echo
----- accounting info -----
Files used on the master node gollum051.lsa.umich.edu were:
-rw-r--r-- 1 hazwong frank    16533 Dec  8 07:50 /scratch/hazwong/827038/1HS2_1/usrc/1HS2_1_fmo_input.F05
-rw-r--r-- 1 hazwong frank      634 Dec  8 17:29 /scratch/hazwong/827038/1HS2_1/usrc/1HS2_1_fmo_input.F06.001
-rw-r--r-- 1 hazwong frank      634 Dec  8 17:29 /scratch/hazwong/827038/1HS2_1/usrc/1HS2_1_fmo_input.F06.002
-rw-r--r-- 1 hazwong frank      634 Dec  8 17:29 /scratch/hazwong/827038/1HS2_1/usrc/1HS2_1_fmo_input.F06.003
-rw-r--r-- 1 hazwong frank      634 Dec  8 17:29 /scratch/hazwong/827038/1HS2_1/usrc/1HS2_1_fmo_input.F06.004
-rw-r--r-- 1 hazwong frank      634 Dec  8 17:29 /scratch/hazwong/827038/1HS2_1/usrc/1HS2_1_fmo_input.F06.005
-rw-r--r-- 1 hazwong frank      634 Dec  8 17:29 /scratch/hazwong/827038/1HS2_1/usrc/1HS2_1_fmo_input.F06.006
-rw-r--r-- 1 hazwong frank      634 Dec  8 17:29 /scratch/hazwong/827038/1HS2_1/usrc/1HS2_1_fmo_input.F06.007
-rw-r--r-- 1 hazwong frank      634 Dec  8 17:29 /scratch/hazwong/827038/1HS2_1/usrc/1HS2_1_fmo_input.F06.008
-rw-r--r-- 1 hazwong frank      634 Dec  8 17:29 /scratch/hazwong/827038/1HS2_1/usrc/1HS2_1_fmo_input.F06.009
-rw-r--r-- 1 hazwong frank      634 Dec  8 17:29 /scratch/hazwong/827038/1HS2_1/usrc/1HS2_1_fmo_input.F06.010
-rw-r--r-- 1 hazwong frank      634 Dec  8 17:29 /scratch/hazwong/827038/1HS2_1/usrc/1HS2_1_fmo_input.F06.011
-rw-r--r-- 1 hazwong frank      634 Dec  8 17:29 /scratch/hazwong/827038/1HS2_1/usrc/1HS2_1_fmo_input.F06.012
-rw-r--r-- 1 hazwong frank      634 Dec  8 17:29 /scratch/hazwong/827038/1HS2_1/usrc/1HS2_1_fmo_input.F06.013
-rw-r--r-- 1 hazwong frank      634 Dec  8 17:29 /scratch/hazwong/827038/1HS2_1/usrc/1HS2_1_fmo_input.F06.014
-rw-r--r-- 1 hazwong frank      634 Dec  8 17:29 /scratch/hazwong/827038/1HS2_1/usrc/1HS2_1_fmo_input.F06.015
-rw-r--r-- 1 hazwong frank     9128 Dec  8 17:29 /scratch/hazwong/827038/1HS2_1/usrc/1HS2_1_fmo_input.F07
-rw-r--r-- 1 hazwong frank        0 Dec  8 07:50 /scratch/hazwong/827038/1HS2_1/usrc/1HS2_1_fmo_input.F07.001
-rw-r--r-- 1 hazwong frank        0 Dec  8 07:50 /scratch/hazwong/827038/1HS2_1/usrc/1HS2_1_fmo_input.F07.002
-rw-r--r-- 1 hazwong frank        0 Dec  8 07:50 /scratch/hazwong/827038/1HS2_1/usrc/1HS2_1_fmo_input.F07.003
-rw-r--r-- 1 hazwong frank        0 Dec  8 07:50 /scratch/hazwong/827038/1HS2_1/usrc/1HS2_1_fmo_input.F07.004
-rw-r--r-- 1 hazwong frank        0 Dec  8 07:50 /scratch/hazwong/827038/1HS2_1/usrc/1HS2_1_fmo_input.F07.005
-rw-r--r-- 1 hazwong frank        0 Dec  8 07:50 /scratch/hazwong/827038/1HS2_1/usrc/1HS2_1_fmo_input.F07.006
-rw-r--r-- 1 hazwong frank        0 Dec  8 07:50 /scratch/hazwong/827038/1HS2_1/usrc/1HS2_1_fmo_input.F07.007
-rw-r--r-- 1 hazwong frank        0 Dec  8 07:50 /scratch/hazwong/827038/1HS2_1/usrc/1HS2_1_fmo_input.F07.008
-rw-r--r-- 1 hazwong frank        0 Dec  8 07:50 /scratch/hazwong/827038/1HS2_1/usrc/1HS2_1_fmo_input.F07.009
-rw-r--r-- 1 hazwong frank        0 Dec  8 07:50 /scratch/hazwong/827038/1HS2_1/usrc/1HS2_1_fmo_input.F07.010
-rw-r--r-- 1 hazwong frank        0 Dec  8 07:50 /scratch/hazwong/827038/1HS2_1/usrc/1HS2_1_fmo_input.F07.011
-rw-r--r-- 1 hazwong frank        0 Dec  8 07:50 /scratch/hazwong/827038/1HS2_1/usrc/1HS2_1_fmo_input.F07.012
-rw-r--r-- 1 hazwong frank        0 Dec  8 07:50 /scratch/hazwong/827038/1HS2_1/usrc/1HS2_1_fmo_input.F07.013
-rw-r--r-- 1 hazwong frank        0 Dec  8 07:50 /scratch/hazwong/827038/1HS2_1/usrc/1HS2_1_fmo_input.F07.014
-rw-r--r-- 1 hazwong frank        0 Dec  8 07:50 /scratch/hazwong/827038/1HS2_1/usrc/1HS2_1_fmo_input.F07.015
-rw-r--r-- 1 hazwong frank    65440 Dec  8 17:29 /scratch/hazwong/827038/1HS2_1/usrc/1HS2_1_fmo_input.F10.000
-rw-r--r-- 1 hazwong frank        0 Dec  8 07:50 /scratch/hazwong/827038/1HS2_1/usrc/1HS2_1_fmo_input.F26.000
-rw-r--r-- 1 hazwong frank        0 Dec  8 07:50 /scratch/hazwong/827038/1HS2_1/usrc/1HS2_1_fmo_input.F26.001
-rw-r--r-- 1 hazwong frank        0 Dec  8 07:50 /scratch/hazwong/827038/1HS2_1/usrc/1HS2_1_fmo_input.F26.002
-rw-r--r-- 1 hazwong frank        0 Dec  8 07:50 /scratch/hazwong/827038/1HS2_1/usrc/1HS2_1_fmo_input.F26.003
-rw-r--r-- 1 hazwong frank        0 Dec  8 07:50 /scratch/hazwong/827038/1HS2_1/usrc/1HS2_1_fmo_input.F26.004
-rw-r--r-- 1 hazwong frank        0 Dec  8 07:50 /scratch/hazwong/827038/1HS2_1/usrc/1HS2_1_fmo_input.F26.005
-rw-r--r-- 1 hazwong frank        0 Dec  8 07:50 /scratch/hazwong/827038/1HS2_1/usrc/1HS2_1_fmo_input.F26.006
-rw-r--r-- 1 hazwong frank        0 Dec  8 07:50 /scratch/hazwong/827038/1HS2_1/usrc/1HS2_1_fmo_input.F26.007
-rw-r--r-- 1 hazwong frank        0 Dec  8 07:50 /scratch/hazwong/827038/1HS2_1/usrc/1HS2_1_fmo_input.F26.008
-rw-r--r-- 1 hazwong frank        0 Dec  8 07:50 /scratch/hazwong/827038/1HS2_1/usrc/1HS2_1_fmo_input.F26.009
-rw-r--r-- 1 hazwong frank        0 Dec  8 07:50 /scratch/hazwong/827038/1HS2_1/usrc/1HS2_1_fmo_input.F26.010
-rw-r--r-- 1 hazwong frank        0 Dec  8 07:50 /scratch/hazwong/827038/1HS2_1/usrc/1HS2_1_fmo_input.F26.011
-rw-r--r-- 1 hazwong frank        0 Dec  8 07:50 /scratch/hazwong/827038/1HS2_1/usrc/1HS2_1_fmo_input.F26.012
-rw-r--r-- 1 hazwong frank        0 Dec  8 07:50 /scratch/hazwong/827038/1HS2_1/usrc/1HS2_1_fmo_input.F26.013
-rw-r--r-- 1 hazwong frank        0 Dec  8 07:50 /scratch/hazwong/827038/1HS2_1/usrc/1HS2_1_fmo_input.F26.014
-rw-r--r-- 1 hazwong frank        0 Dec  8 07:50 /scratch/hazwong/827038/1HS2_1/usrc/1HS2_1_fmo_input.F26.015
-rw-r--r-- 1 hazwong frank        0 Dec  8 07:50 /scratch/hazwong/827038/1HS2_1/usrc/1HS2_1_fmo_input.F27.000
-rw-r--r-- 1 hazwong frank        0 Dec  8 07:50 /scratch/hazwong/827038/1HS2_1/usrc/1HS2_1_fmo_input.F27.001
-rw-r--r-- 1 hazwong frank        0 Dec  8 07:50 /scratch/hazwong/827038/1HS2_1/usrc/1HS2_1_fmo_input.F27.002
-rw-r--r-- 1 hazwong frank        0 Dec  8 07:50 /scratch/hazwong/827038/1HS2_1/usrc/1HS2_1_fmo_input.F27.003
-rw-r--r-- 1 hazwong frank        0 Dec  8 07:50 /scratch/hazwong/827038/1HS2_1/usrc/1HS2_1_fmo_input.F27.004
-rw-r--r-- 1 hazwong frank        0 Dec  8 07:50 /scratch/hazwong/827038/1HS2_1/usrc/1HS2_1_fmo_input.F27.005
-rw-r--r-- 1 hazwong frank        0 Dec  8 07:50 /scratch/hazwong/827038/1HS2_1/usrc/1HS2_1_fmo_input.F27.006
-rw-r--r-- 1 hazwong frank        0 Dec  8 07:50 /scratch/hazwong/827038/1HS2_1/usrc/1HS2_1_fmo_input.F27.007
-rw-r--r-- 1 hazwong frank        0 Dec  8 07:50 /scratch/hazwong/827038/1HS2_1/usrc/1HS2_1_fmo_input.F27.008
-rw-r--r-- 1 hazwong frank        0 Dec  8 07:50 /scratch/hazwong/827038/1HS2_1/usrc/1HS2_1_fmo_input.F27.009
-rw-r--r-- 1 hazwong frank        0 Dec  8 07:50 /scratch/hazwong/827038/1HS2_1/usrc/1HS2_1_fmo_input.F27.010
-rw-r--r-- 1 hazwong frank        0 Dec  8 07:50 /scratch/hazwong/827038/1HS2_1/usrc/1HS2_1_fmo_input.F27.011
-rw-r--r-- 1 hazwong frank        0 Dec  8 07:50 /scratch/hazwong/827038/1HS2_1/usrc/1HS2_1_fmo_input.F27.012
-rw-r--r-- 1 hazwong frank        0 Dec  8 07:50 /scratch/hazwong/827038/1HS2_1/usrc/1HS2_1_fmo_input.F27.013
-rw-r--r-- 1 hazwong frank        0 Dec  8 07:50 /scratch/hazwong/827038/1HS2_1/usrc/1HS2_1_fmo_input.F27.014
-rw-r--r-- 1 hazwong frank        0 Dec  8 07:50 /scratch/hazwong/827038/1HS2_1/usrc/1HS2_1_fmo_input.F27.015
-rw-r--r-- 1 hazwong frank 20332544 Dec  8 11:24 /scratch/hazwong/827038/1HS2_1/usrc/1HS2_1_fmo_input.F40.000
-rw-r--r-- 1 hazwong frank 20332544 Dec  8 11:24 /scratch/hazwong/827038/1HS2_1/usrc/1HS2_1_fmo_input.F40.001
-rw-r--r-- 1 hazwong frank 20332544 Dec  8 11:24 /scratch/hazwong/827038/1HS2_1/usrc/1HS2_1_fmo_input.F40.002
-rw-r--r-- 1 hazwong frank 20332544 Dec  8 11:24 /scratch/hazwong/827038/1HS2_1/usrc/1HS2_1_fmo_input.F40.003
-rw-r--r-- 1 hazwong frank 20332544 Dec  8 11:24 /scratch/hazwong/827038/1HS2_1/usrc/1HS2_1_fmo_input.F40.004
-rw-r--r-- 1 hazwong frank 20332544 Dec  8 11:24 /scratch/hazwong/827038/1HS2_1/usrc/1HS2_1_fmo_input.F40.005
-rw-r--r-- 1 hazwong frank 20332544 Dec  8 11:24 /scratch/hazwong/827038/1HS2_1/usrc/1HS2_1_fmo_input.F40.006
-rw-r--r-- 1 hazwong frank 20332544 Dec  8 11:24 /scratch/hazwong/827038/1HS2_1/usrc/1HS2_1_fmo_input.F40.007
-rw-r--r-- 1 hazwong frank 20332544 Dec  8 11:24 /scratch/hazwong/827038/1HS2_1/usrc/1HS2_1_fmo_input.F40.008
-rw-r--r-- 1 hazwong frank 20332544 Dec  8 11:24 /scratch/hazwong/827038/1HS2_1/usrc/1HS2_1_fmo_input.F40.009
-rw-r--r-- 1 hazwong frank 20332544 Dec  8 11:24 /scratch/hazwong/827038/1HS2_1/usrc/1HS2_1_fmo_input.F40.010
-rw-r--r-- 1 hazwong frank 20332544 Dec  8 11:24 /scratch/hazwong/827038/1HS2_1/usrc/1HS2_1_fmo_input.F40.011
-rw-r--r-- 1 hazwong frank 20332544 Dec  8 11:24 /scratch/hazwong/827038/1HS2_1/usrc/1HS2_1_fmo_input.F40.012
-rw-r--r-- 1 hazwong frank 20332544 Dec  8 11:24 /scratch/hazwong/827038/1HS2_1/usrc/1HS2_1_fmo_input.F40.013
-rw-r--r-- 1 hazwong frank 20332544 Dec  8 11:24 /scratch/hazwong/827038/1HS2_1/usrc/1HS2_1_fmo_input.F40.014
-rw-r--r-- 1 hazwong frank 20332544 Dec  8 11:24 /scratch/hazwong/827038/1HS2_1/usrc/1HS2_1_fmo_input.F40.015
ls: No match.
ls: No match.
ls: No match.
Sun Dec  8 17:29:42 EST 2019
0.191u 0.075s 9:39:04.85 0.0%	0+0k 1640+136io 30pf+0w
