‘2LUB_2_fmo_input.inp’ -> ‘/scratch/hazwong/826098/./2LUB_2_fmo_input.inp’
‘rungms’ -> ‘/scratch/hazwong/826098/./rungms’
‘gms-files.csh’ -> ‘/scratch/hazwong/826098/./gms-files.csh’
----- GAMESS execution script 'rungms' -----
This job is running on host gollum054.lsa.umich.edu
under operating system Linux at Sat Dec 7 17:58:55 EST 2019
Available scratch disk space (Kbyte units) at beginning of the job is
Filesystem     1K-blocks   Used Available Use% Mounted on
/dev/sda4      426933580 569780 426363800   1% /scratch
GAMESS temporary binary files will be written to /scratch/hazwong/826098/2LUB_2/usrc
GAMESS supplementary output files will be written to /scratch/hazwong/826098/2LUB_2/src
Copying input file 2LUB_2_fmo_input.inp to your run's scratch directory...
cp 2LUB_2_fmo_input.inp /scratch/hazwong/826098/2LUB_2/usrc/2LUB_2_fmo_input.F05
unset echo
This is a GDDI run, keeping various output files on local disks
setenv OUTPUT /scratch/hazwong/826098/2LUB_2/usrc/2LUB_2_fmo_input.F06
setenv PUNCH /scratch/hazwong/826098/2LUB_2/usrc/2LUB_2_fmo_input.F07
unset echo
 
Assuming a single but multicore node.
 
/export/apps/CentOS7/gamess/src/build//ddikick.x /export/apps/CentOS7/gamess/src/build//gamess.R3.x 2LUB_2_fmo_input -ddi 1 16 gollum054.lsa.umich.edu:cpus=16 -scr /scratch/hazwong/826098/2LUB_2/usrc

 Distributed Data Interface kickoff program.
 Initiating 16 compute processes on 1 nodes to run the following command:
 /export/apps/CentOS7/gamess/src/build//gamess.R3.x 2LUB_2_fmo_input 

          ******************************************************
          *         GAMESS VERSION = 30 SEP 2018 (R3)         *
          *             FROM IOWA STATE UNIVERSITY             *
          * M.W.SCHMIDT, K.K.BALDRIDGE, J.A.BOATZ, S.T.ELBERT, *
          *   M.S.GORDON, J.H.JENSEN, S.KOSEKI, N.MATSUNAGA,   *
          *          K.A.NGUYEN, S.J.SU, T.L.WINDUS,           *
          *       TOGETHER WITH M.DUPUIS, J.A.MONTGOMERY       *
          *         J.COMPUT.CHEM.  14, 1347-1363(1993)        *
          **************** 64 BIT LINUX VERSION ****************

  SINCE 1993, STUDENTS AND POSTDOCS WORKING AT IOWA STATE UNIVERSITY
  AND ALSO IN THEIR VARIOUS JOBS AFTER LEAVING ISU HAVE MADE IMPORTANT
  CONTRIBUTIONS TO THE CODE:
     IVANA ADAMOVIC, CHRISTINE AIKENS, YURI ALEXEEV, POOJA ARORA,
     ANDREY ASADCHEV, ROB BELL, PRADIPTA BANDYOPADHYAY, JONATHAN BENTZ,
     BRETT BODE, KURT BRORSEN, CALEB CARLIN, GALINA CHABAN, WEI CHEN,
     CHEOL HO CHOI, PAUL DAY, ALBERT DEFUSCO, NUWAN DESILVA, TIM DUDLEY,
     DMITRI FEDOROV, ALEX FINDLATER, GRAHAM FLETCHER, MARK FREITAG,
     KURT GLAESEMANN, ANASTASIA GUNINA,
     DAN KEMP, GRANT MERRILL, NORIYUKI MINEZAWA, JONATHAN MULLIN,
     TAKESHI NAGATA, SEAN NEDD, HEATHER NETZLOFF, BOSILJKA NJEGIC, RYAN OLSON,
     MIKE PAK, BUU PHAM,
     SPENCER PRUITT, LUKE ROSKOP, JIM SHOEMAKER, LYUDMILA SLIPCHENKO,
     TONY SMITH, SAROM SOK LEANG, JIE SONG, TETSUYA TAKETSUGU, SIMON WEBB,
     PENG XU, SOOHAENG YOO, FEDERICO ZAHARIEV

  ADDITIONAL CODE HAS BEEN PROVIDED BY COLLABORATORS IN OTHER GROUPS:
     IOWA STATE UNIVERSITY:
          JOE IVANIC, AARON WEST, LAIMUTIS BYTAUTAS, KLAUS RUEDENBERG
     UNIVERSITY OF TOKYO: KIMIHIKO HIRAO, TAKAHITO NAKAJIMA,
          TAKAO TSUNEDA, MUNEAKI KAMIYA, SUSUMU YANAGISAWA,
          KIYOSHI YAGI, MAHITO CHIBA, SEIKEN TOKURA, NAOAKI KAWAKAMI
     UNIVERSITY OF AARHUS: FRANK JENSEN
     UNIVERSITY OF IOWA: VISVALDAS KAIRYS, HUI LI
     NATIONAL INST. OF STANDARDS AND TECHNOLOGY: WALT STEVENS, DAVID GARMER
     UNIVERSITY OF PISA: BENEDETTA MENNUCCI, JACOPO TOMASI
     UNIVERSITY OF MEMPHIS: HENRY KURTZ, PRAKASHAN KORAMBATH
     UNIVERSITY OF ALBERTA: TOBY ZENG, MARIUSZ KLOBUKOWSKI
     UNIVERSITY OF NEW ENGLAND: MARK SPACKMAN
     MIE UNIVERSITY: HIROAKI UMEDA
     NAT. INST. OF ADVANCED INDUSTRIAL SCIENCE AND TECHNOLOGY: KAZUO KITAURA
     MICHIGAN STATE UNIVERSITY:
          KAROL KOWALSKI, MARTA WLOCH, JEFFREY GOUR, JESSE LUTZ,
          WEI LI, JUN SHEN, J. EMILIANO DEUSTUA, PIOTR PIECUCH
     UNIVERSITY OF MINNESOTA:
          YINAN SHU
     UNIVERSITY OF SILESIA: MONIKA MUSIAL, STANISLAW KUCHARSKI
     FACULTES UNIVERSITAIRES NOTRE-DAME DE LA PAIX:
          OLIVIER QUINET, BENOIT CHAMPAGNE
     UNIVERSITY OF CALIFORNIA - SANTA BARBARA: BERNARD KIRTMAN
     INSTITUTE FOR MOLECULAR SCIENCE:
          KAZUYA ISHIMURA, MICHIO KATOUDA, AND SHIGERU NAGASE
     UNIVERSITY OF NOTRE DAME: ANNA POMOGAEVA, DAN CHIPMAN
     KYUSHU UNIVERSITY:
          HARUYUKI NAKANO,
          FENG LONG GU, JACEK KORCHOWIEC, MARCIN MAKOWSKI, AND YURIKO AOKI,
          HIROTOSHI MORI AND EISAKU MIYOSHI
     PENNSYLVANIA STATE UNIVERSITY:
          TZVETELIN IORDANOV, CHET SWALINA, JONATHAN SKONE,
          SHARON HAMMES-SCHIFFER
     WASEDA UNIVERSITY:
          MASATO KOBAYASHI, TOMOKO AKAMA, TSUGUKI TOUMA,
          TAKESHI YOSHIKAWA, YASUHIRO IKABATA, JUNJI SEINO,
          YUYA NAKAJIMA, HIROMI NAKAI
     NANJING UNIVERSITY: SHUHUA LI
     UNIVERSITY OF NEBRASKA:
          PEIFENG SU, DEJUN SI, NANDUN THELLAMUREGE, YALI WANG, HUI LI
     UNIVERSITY OF ZURICH: ROBERTO PEVERATI, KIM BALDRIDGE
     N. COPERNICUS UNIVERSITY AND JACKSON STATE UNIVERSITY:
          MARIA BARYSZ
     UNIVERSITY OF COPENHAGEN: Jimmy Kromann, CASPER STEINMANN
     TOKYO INSTITUTE OF TECHNOLOGY: HIROYA NAKATA
     NAGOYA UNIVERSITY: YOSHIO NISHIMOTO, STEPHAN IRLE
     MOSCOW STATE UNIVERSITY: VLADIMIR MIRONOV


 PARALLEL VERSION RUNNING ON       16 PROCESSORS IN        1 NODES.

 EXECUTION OF GAMESS BEGUN Sat Dec  7 17:58:55 2019

            ECHO OF THE FIRST FEW INPUT CARDS -
 INPUT CARD>!*** FMO 5.3 (Gamess) INPUT generated by Facio 22.1.1.32 ***                    
 INPUT CARD> $CONTRL RUNTYP=ENERGY NPRINT=-5 ISPHER=1 MAXIT=200 $END                        
 INPUT CARD> $SYSTEM MWORDS=63 MEMDDI=63 $END                                               
 INPUT CARD> $GDDI NGROUP=1 $END                                                            
 INPUT CARD> $SCF DIRSCF=.TRUE. NPUNCH=0 $END                                               
 INPUT CARD>!*** NumCPU : 2  MemPerNode : 512MB                                             
 INPUT CARD> $PCM SOLVNT=WATER IEF=-10 ICOMP=2 ICAV=1 IDISP=1 IFMO=-1 $END                  
 INPUT CARD> $PCMCAV RADII=SUAHF $END                                                       
 INPUT CARD> $TESCAV NTSALL=60 $END                                                         
 INPUT CARD> $FMOPRP                                                                        
 INPUT CARD>    NAODIR=200                                                                  
 INPUT CARD>    NGRFMO(1)=1, 1, 0, 0, 0,   0, 0, 0, 0, 0                                    
 INPUT CARD>    IPIEDA=1                                                                    
 INPUT CARD>    NPRINT=9                                                                    
 INPUT CARD> $END                                                                           
 INPUT CARD> $FMO                                                                           
 INPUT CARD>      SCFTYP(1)=RHF                                                             
 INPUT CARD>      MODGRD=10                                                                 
 INPUT CARD>      MODMUL=0                                                                  
 INPUT CARD>      MAXCAO=5                                                                  
 INPUT CARD>      MAXBND=13                                                                 
 INPUT CARD>      NLAYER=1                                                                  
 INPUT CARD>      MPLEVL(1)=2                                                               
 INPUT CARD>      NFRAG=11                                                                  
 INPUT CARD>      ICHARG(1)=-1, -1, -1, -1, 0, -1, -1, -1, -1, -1, 0                        
 INPUT CARD>      FRGNAM(1)=F1, F2, F3, F4, F5, F6, F7, F8, F9, F10, F11                    
 INPUT CARD>      indat(1)=0                                                                
 INPUT CARD>               1   -35   0                                                      
 INPUT CARD>               36   -66   0                                                     
 INPUT CARD>               67   -100   0                                                    
 INPUT CARD>               101   -134   0                                                   
 INPUT CARD>               135   -166   0                                                   
 INPUT CARD>               167   -196   0                                                   
 INPUT CARD>               197   -227   0                                                   
 INPUT CARD>               228   -260   0                                                   
 INPUT CARD>               261   -293   0                                                   
 INPUT CARD>               294   -327   0                                                   
 INPUT CARD>               328   -354   0                                                   
 INPUT CARD> $END                                                                           
 INPUT CARD>                                                                                
 INPUT CARD> $FMOBND                                                                        
 INPUT CARD>   -36   35       6-31G*    MINI                                                
 INPUT CARD>   -67   66       6-31G*    MINI                                                
 INPUT CARD>   -101   100       6-31G*    MINI                                              
 INPUT CARD>   -135   134       6-31G*    MINI                                              
 INPUT CARD>   -167   166       6-31G*    MINI                                              
 INPUT CARD>   -197   196       6-31G*    MINI                                              
 INPUT CARD>   -228   227       6-31G*    MINI                                              
 INPUT CARD>   -261   260       6-31G*    MINI                                              
 INPUT CARD>   -294   293       6-31G*    MINI                                              


 -------------------------------------------------------------
 GROUP DDI, PROGRAMMED BY: RYAN M. OLSON AND DMITRI G. FEDOROV
        FEDOROV ET AL., J. COMPUT. CHEM., 25 (2004) 872.
 -------------------------------------------------------------

 -------------------------------------------------------
 GDDI: INITIALIZATION COMPLETED FOR GROUP     1 OF     1
 WITH    16 PROCESSES BALTYP=DLB   global rank=        0
 -------------------------------------------------------

   63000000 WORDS OF MEMORY AVAILABLE


     RUN TITLE
     ---------
  FMO calculation                                                                

 THE POINT GROUP OF THE MOLECULE IS C1      
 THE ORDER OF THE PRINCIPAL AXIS IS     0

 ATOM   ATOMIC CHARGE
 H.1-1       1.0
 O.1-1       8.0
 C.1-1       6.0
 N.1-1       7.0
 P.1-1      15.0

     ATOMIC BASIS SET LIBRARY
     ----------------
 THE CONTRACTED PRIMITIVE FUNCTIONS HAVE BEEN UNNORMALIZED
 THE CONTRACTED BASIS FUNCTIONS ARE NOW NORMALIZED TO UNITY

  SHELL TYPE  PRIMITIVE        EXPONENT          CONTRACTION COEFFICIENT(S)

 H.1-1     

      1   S       1            18.7311370    0.033494604338
      1   S       2             2.8253944    0.234726953484
      1   S       3             0.6401217    0.813757326146

      2   S       4             0.1612778    1.000000000000

 O.1-1     

      3   S       5          5484.6716600    0.001831074430
      3   S       6           825.2349460    0.013950172200
      3   S       7           188.0469580    0.068445078098
      3   S       8            52.9645000    0.232714335992
      3   S       9            16.8975704    0.470192897984
      3   S      10             5.7996353    0.358520852987

      4   L      11            15.5396162   -0.110777549525    0.070874268231
      4   L      12             3.5999336   -0.148026262701    0.339752839147
      4   L      13             1.0137618    1.130767015354    0.727158577316

      5   L      14             0.2700058    1.000000000000    1.000000000000

      6   D      15             0.8000000    1.000000000000

 C.1-1     

      7   S      16          3047.5248800    0.001834737132
      7   S      17           457.3695180    0.014037322813
      7   S      18           103.9486850    0.068842622264
      7   S      19            29.2101553    0.232184443216
      7   S      20             9.2866630    0.467941348435
      7   S      21             3.1639270    0.362311985337

      8   L      22             7.8682723   -0.119332419775    0.068999066591
      8   L      23             1.8812885   -0.160854151696    0.316423960957
      8   L      24             0.5442493    1.143456437840    0.744308290898

      9   L      25             0.1687145    1.000000000000    1.000000000000

     10   D      26             0.8000000    1.000000000000

 N.1-1     

     11   S      27          4173.5114600    0.001834772160
     11   S      28           627.4579110    0.013994627002
     11   S      29           142.9020930    0.068586551812
     11   S      30            40.2343293    0.232240873040
     11   S      31            12.8202129    0.469069948082
     11   S      32             4.3904370    0.360455199063

     12   L      33            11.6263619   -0.114961181702    0.067579743878
     12   L      34             2.7162798   -0.169117478561    0.323907295893
     12   L      35             0.7722184    1.145851947027    0.740895139755

     13   L      36             0.2120315    1.000000000000    1.000000000000

     14   D      37             0.8000000    1.000000000000

 P.1-1     

     15   S      38         19413.3000000    0.001851598923
     15   S      39          2909.4200000    0.014206191735
     15   S      40           661.3640000    0.069999459277
     15   S      41           185.7590000    0.240078860331
     15   S      42            59.1943000    0.484761717984
     15   S      43            20.0310000    0.335199804993

     16   L      44           339.4780000   -0.002782170105    0.004564616191
     16   L      45            81.0101000   -0.036049901354    0.033693571881
     16   L      46            25.8780000   -0.116631004382    0.139754883368
     16   L      47             9.4522100    0.096832803638    0.339361716786
     16   L      48             3.6656600    0.614418023082    0.450920623685
     16   L      49             1.4674600    0.403798015170    0.238585800889

     17   L      50             2.1562300   -0.252924113863   -0.017765312733
     17   L      51             0.7489970    0.032851844678    0.274058196433
     17   L      52             0.2831450    1.081254761783    0.785421562957

     18   L      53             0.0998317    1.000000000000    1.000000000000

     19   D      54             0.5500000    1.000000000000

 TOTAL NUMBER OF BASIS SET SHELLS             =   19
 NUMBER OF CARTESIAN GAUSSIAN BASIS FUNCTIONS =   66

     $CONTRL OPTIONS
     ---------------
 SCFTYP=RHF          RUNTYP=ENERGY       EXETYP=RUN     
 MPLEVL=       0     CITYP =NONE         CCTYP =NONE         VBTYP =NONE    
 DFTTYP=NONE         TDDFT =NONE    
 MULT  =       1     ICHARG=       0     NZVAR =       0     COORD =UNIQUE  
 PP    =NONE         RELWFN=NONE         LOCAL =NONE         NUMGRD=       F
 ISPHER=       1     NOSYM =       0     MAXIT =     200     UNITS =ANGS    
 PLTORB=       F     MOLPLT=       F     AIMPAC=       F     FRIEND=        
 NPRINT=      -5     IREST =       0     GEOM  =INPUT   
 NORMF =       0     NORMP =       0     ITOL  =      24     ICUT  =      12
 INTTYP=BEST         GRDTYP=BEST         QMTTOL= 1.0E-06

     $SYSTEM OPTIONS
     ---------------
  REPLICATED MEMORY=    63000000 WORDS (ON EVERY NODE).
 DISTRIBUTED MEMDDI=          63 MILLION WORDS IN AGGREGATE,
 MEMDDI DISTRIBUTED OVER  16 PROCESSORS IS     3937500 WORDS/PROCESSOR.
 TOTAL MEMORY REQUESTED ON EACH PROCESSOR=    66937500 WORDS.
 TIMLIM=      525600.00 MINUTES, OR     365.0 DAYS.
 PARALL= T  BALTYP=  DLB     KDIAG=    0  COREFL= F
 MXSEQ2=     300 MXSEQ3=     150  mem10=         0

 ** LOOKING UP INTERNALLY STORED DATA FOR SOLVENT=WATER    **
 OPTICAL AND PHYSICAL CONSTANTS:
 EPS= 78.390; EPSINF=  1.776; RSOLV=  1.385 A; VMOL=  18.070 ML/MOL;
 TCE= .25700E-03 1/K; STEN= 71.810 DYN/CM;  DSTEN=  0.6500; CMF=  1.2770


     -----------------------------------
     INPUT FOR PCM SOLVATION CALCULATION 
     -----------------------------------
     IEF   =     -10
     ICOMP =       2     IFIELD=       0     ICAV  =       1
     IDISP =       1     IREP  =       0     IDP   =       0

     SOLVNT=WATER        EPS   = 78.3900     EPSINF=  1.7760
     VMOL  = 18.0700     TCE   =  0.00025700 STEN  = 71.8100
     DSTEN =  0.6500     CMF   =  1.2770     RSOLV =  1.3850

     NESFP =       0
     OMEGA = 40.0000     RET   =100.0000     FRO   =  0.7000

     TABS  =298.0000     IPRINT=       0

     --------------------------------
     INPUT FOR ITERATIVE C-PCM METHOD 
     --------------------------------
     IPCMIT  =         1     MXDIIS  =        50
     MXITR1  =       200     MXITR2  =       200
     THRES   = 0.100E-09     IMUL    =         3
     RCUT(1) =   20.0000     RCUT(2) =   50.0000

     IDIRCT  =         1
     IMGABI  =         0     RABI    =    4.0000
     IMGASC  =         0     RASC    =   20.0000
     THRSLS  = 0.500E-03     DENSLS  =    0.0100
     IEFPOL  =         1     REFPOL  =    0.0000

     INPUT FOR ISOTROPIC DIELECTRICS
     -------------------------------
     EPS=    78.39

          ----------------
          PROPERTIES INPUT
          ----------------

     MOMENTS            FIELD           POTENTIAL          DENSITY
 IEMOM =       1   IEFLD =       0   IEPOT =       0   IEDEN =       0
 WHERE =COMASS     WHERE =NUCLEI     WHERE =NUCLEI     WHERE =NUCLEI  
 OUTPUT=BOTH       OUTPUT=BOTH       OUTPUT=NONE       OUTPUT=BOTH    
 IEMINT=       0   IEFINT=       0                     IEDINT=       0
                                                       MORB  =       0
          EXTRAPOLATION IN EFFECT
          SOSCF IN EFFECT
 ORBITAL PRINTING OPTION: NPREO=     1 32767     2     1

     -------------------------------
     INTEGRAL TRANSFORMATION OPTIONS
     -------------------------------
     NWORD  =            0
     CUTOFF = 1.0E-10     MPTRAN =       0
     DIRTRF =       T     AOINTS =DUP     

          ----------------------
          INTEGRAL INPUT OPTIONS
          ----------------------
 NOPK  =       1 NORDER=       0 SCHWRZ=       T

 ..... DONE SETTING UP THE RUN .....
 CPU     0: STEP CPU TIME=     0.04 TOTAL CPU TIME=          0.0 (      0.0 MIN)
 TOTAL WALL CLOCK TIME=          0.1 SECONDS, CPU UTILIZATION IS    66.67%
 CPU     0: STEP CPU TIME=     0.00 TOTAL CPU TIME=          0.0 (      0.0 MIN)
 TOTAL WALL CLOCK TIME=          0.1 SECONDS, CPU UTILIZATION IS    57.14%

                    ----------------------
                    AO INTEGRAL TECHNOLOGY
                    ----------------------
     S,P,L SHELL ROTATED AXIS INTEGRALS, REPROGRAMMED BY
        KAZUYA ISHIMURA (IMS) AND JOSE SIERRA (SYNSTAR).
     S,P,D,L SHELL ROTATED AXIS INTEGRALS PROGRAMMED BY
        KAZUYA ISHIMURA (INSTITUTE FOR MOLECULAR SCIENCE).
     S,P,D,F,G SHELL TO TOTAL QUARTET ANGULAR MOMENTUM SUM 5,
        ERIC PROGRAM BY GRAHAM FLETCHER (ELORET AND NASA ADVANCED
        SUPERCOMPUTING DIVISION, AMES RESEARCH CENTER).
     S,P,D,F,G,L SHELL GENERAL RYS QUADRATURE PROGRAMMED BY
        MICHEL DUPUIS (PACIFIC NORTHWEST NATIONAL LABORATORY).
 Setting modorb=1 flag...
 Setting modorb=1 flag...

          -----------------------
          MP2 CONTROL INFORMATION
          -----------------------
          NACORE =        8  NBCORE =        8
          LMOMP2 =        F  AOINTS = DUP     
          METHOD =        2  NWORD  =               0
          MP2PRP =        F  OSPT   = NONE    
          CUTOFF = 1.00E-12  CPHFBS = BASISAO 
          CODE   = IMS     

          NUMBER OF CORE -A-  ORBITALS =     8
          NUMBER OF CORE -B-  ORBITALS =     8
          NUMBER OF OCC. -A-  ORBITALS =    18
          NUMBER OF OCC. -B-  ORBITALS =    18
          NUMBER OF MOLECULAR ORBITALS =    66
          NUMBER OF   BASIS  FUNCTIONS =    66

 CPU     0: STEP CPU TIME=     0.02 TOTAL CPU TIME=          0.1 (      0.0 MIN)
 TOTAL WALL CLOCK TIME=          0.1 SECONDS, CPU UTILIZATION IS    60.00%
 CPU     0: STEP CPU TIME=     0.00 TOTAL CPU TIME=          0.1 (      0.0 MIN)
 TOTAL WALL CLOCK TIME=          0.1 SECONDS, CPU UTILIZATION IS    60.00%

     INPUT FOR CAVITY DEFINITION 
     ---------------------------
   ATOM               COORDINATES                RADIUS       EPS
      1      1.9700     -5.7730      2.7850      0.0100     78.3900
      2      1.5830     -5.4930      1.9340      1.5900     78.3900
      3      1.2610     -6.6910      1.2130      1.7700     78.3900
      4      0.6310     -7.3480      1.8540      0.0100     78.3900
      5      2.1990     -7.2430      0.9800      0.0100     78.3900
      6      0.5140     -6.4170     -0.0950      1.7700     78.3900
      7      0.3000     -7.3630     -0.6380      0.0100     78.3900
      8     -0.7650     -5.7660      0.1860      1.5900     78.3900
      9     -1.0160     -4.7890     -0.8120      1.7700     78.3900
     10     -2.0100     -5.0380     -1.2550      0.0100     78.3900
     11     -1.0820     -3.4390     -0.2380      1.6800     78.3900
     12     -1.5430     -1.3140      0.1120      1.7700     78.3900
     13     -0.8670     -1.7550      1.2430      1.6800     78.3900
     14     -0.6140     -3.0190      0.9870      1.7700     78.3900
     15     -0.0940     -3.7070      1.6580      0.0100     78.3900
     16     -2.6660      0.0500     -1.4640      1.6800     78.3900
     17     -2.6900     -1.0240     -2.2600      1.7700     78.3900
     18     -3.1650     -0.8760     -3.2370      0.0100     78.3900
     19     -2.2390     -2.2610     -2.0250      1.6800     78.3900
     20     -1.6710     -2.3390     -0.8110      1.7700     78.3900
     21     -2.0930     -0.0610     -0.2380      1.7700     78.3900
     22     -2.0750      1.0140      0.5750      1.6800     78.3900
     23     -1.6540      0.9830      1.4900      0.0100     78.3900
     24     -2.4370      1.8940      0.2560      0.0100     78.3900
     25      0.0570     -4.9290     -1.8670      1.7700     78.3900
     26      0.2970     -3.9670     -2.3610      0.0100     78.3900
     27     -0.3490     -5.8760     -2.8340      1.5900     78.3900
     28      0.3880     -5.9640     -3.4500      0.0100     78.3900
     29      1.2350     -5.4530     -1.0490      1.7700     78.3900
     30      1.6580     -4.6370     -0.4190      0.0100     78.3900
     31      2.2500     -6.1680     -1.8020      1.5900     78.3900
     32      3.4580     -5.3400     -2.3960      2.1000     78.3900
     33      4.0520     -4.5080     -1.3280      1.5900     78.3900
     34      4.3720     -6.2700     -3.1010      1.5900     78.3900
     35      2.7710     -4.4020     -3.4540      1.5900     78.3900
     36      2.2790     -4.9540     -4.6970      1.7700     78.3900
     37      1.5440     -5.7710     -4.5250      0.0100     78.3900
     38      3.1150     -5.3840     -5.2950      0.0100     78.3900
     39      1.5980     -3.8760     -5.5480      1.7700     78.3900
     40      1.1860     -4.3290     -6.4740      0.0100     78.3900
     41      0.4800     -3.2740     -4.8290      1.5900     78.3900
     42      0.4180     -1.8850     -5.1460      1.7700     78.3900
     43     -0.6090     -1.7240     -5.5510      0.0100     78.3900
     44      0.6140     -0.9940     -3.9660      1.6800     78.3900
     45      1.2490     -1.4600     -2.8400      1.7700     78.3900
     46      1.5980     -2.4920     -2.8820      0.0100     78.3900
     47      1.4000     -0.6900     -1.7540      1.7700     78.3900
     48      1.8530     -1.0550     -0.8360      0.0100     78.3900
     49      0.1710      0.3270     -4.0070      1.7700     78.3900
     50     -0.3870      0.7470     -5.0320      1.5900     78.3900
     51      0.3400      1.1280     -2.9310      1.6800     78.3900
     52      0.9090      0.6450     -1.8140      1.7700     78.3900
     53      0.9870      1.4280     -0.7400      1.6800     78.3900
     54      0.6410      2.3680     -0.7870      0.0100     78.3900
     55      1.4110      1.1180      0.1110      0.0100     78.3900
     56      1.4290     -1.6220     -6.2440      1.7700     78.3900
     57      1.8670     -0.6050     -6.1870      0.0100     78.3900
     58      0.8290     -1.8100     -7.5130      1.5900     78.3900
     59      1.5360     -1.7230     -8.1630      0.0100     78.3900
     60      2.4780     -2.6890     -5.9550      1.7700     78.3900
     61      3.0810     -2.4180     -5.0570      0.0100     78.3900
     62      3.2870     -3.0540     -7.0880      1.5900     78.3900
     63      4.6910     -2.4010     -7.3260      2.1000     78.3900
     64      5.4360     -2.3980     -6.0480      1.5900     78.3900
     65      5.3280     -3.0790     -8.4770      1.5900     78.3900
     66      4.3560     -0.9190     -7.7320      1.5900     78.3900
     67      3.7880     -0.6290     -9.0320      1.7700     78.3900
     68      2.9130     -1.2840     -9.2500      0.0100     78.3900
     69      4.5450     -0.8040     -9.8310      0.0100     78.3900
     70      3.3310      0.8340     -9.1230      1.7700     78.3900
     71      2.8410      1.0430    -10.0990      0.0100     78.3900
     72      2.3560      1.1020     -8.0810      1.5900     78.3900
     73      2.5570      2.4080     -7.5730      1.7700     78.3900
     74      1.5930      2.9520     -7.6980      0.0100     78.3900
     75      2.9050      2.3710     -6.1490      1.6800     78.3900
     76      2.6780      3.3710     -5.2510      1.7700     78.3900
     77      1.5780      6.5660     -4.5270      1.6800     78.3900
     78      1.4670      7.1590     -3.7370      0.0100     78.3900
     79      1.2700      6.8850     -5.4310      0.0100     78.3900
     80      2.1190      4.5640     -5.5230      1.6800     78.3900
     81      2.0560      5.3390     -4.4500      1.7700     78.3900
     82      2.3880      4.9070     -3.1950      1.6800     78.3900
     83      2.4940      5.6100     -2.4800      0.0100     78.3900
     84      2.9840      3.6980     -2.8860      1.7700     78.3900
     85      3.3150      3.4070     -1.7310      1.5900     78.3900
     86      3.1180      2.8820     -4.0350      1.7700     78.3900
     87      3.6460      1.6040     -4.1730      1.6800     78.3900
     88      3.5090      1.3470     -5.4500      1.7700     78.3900
     89      3.8070      0.4210     -5.9410      0.0100     78.3900
     90      3.6240      3.0750     -8.4130      1.7700     78.3900
     91      4.2520      3.7780     -7.8280      0.0100     78.3900
     92      3.0310      3.7640     -9.4970      1.5900     78.3900
     93      3.7480      4.0160    -10.0960      0.0100     78.3900
     94      4.4340      1.8780     -8.8940      1.7700     78.3900
     95      5.0710      1.4850     -8.0680      0.0100     78.3900
     96      5.1680      2.1030    -10.1200      1.5900     78.3900
     97      6.6530      2.6050    -10.0350      2.1000     78.3900
     98      7.3720      1.7710     -9.0510      1.5900     78.3900
     99      7.2060      2.6630    -11.4030      1.5900     78.3900
    100      6.5500      4.0660     -9.4500      1.5900     78.3900
    101      6.2580      5.1800    -10.3220      1.7700     78.3900
    102      5.2100      5.1220    -10.6950      0.0100     78.3900
    103      6.9410      5.1870    -11.2040      0.0100     78.3900
    104      6.4430      6.5200     -9.5930      1.7700     78.3900
    105      6.2120      7.3730    -10.2680      0.0100     78.3900
    106      5.5230      6.6040     -8.4690      1.5900     78.3900
    107      6.1600      7.2680     -7.3890      1.7700     78.3900
    108      5.5150      8.1350     -7.1210      0.0100     78.3900
    109      6.2760      6.3860     -6.2180      1.6800     78.3900
    110      6.5050      6.7740     -4.9270      1.7700     78.3900
    111      7.1780      9.2630     -2.6130      1.6800     78.3900
    112      7.1540     10.1000     -3.1640      0.0100     78.3900
    113      7.3780      9.3310     -1.6320      0.0100     78.3900
    114      6.6900      8.0380     -4.5060      1.6800     78.3900
    115      6.9290      8.1060     -3.1990      1.7700     78.3900
    116      6.9230      7.0070     -2.3810      1.6800     78.3900
    117      7.0940      7.1500     -1.3970      0.0100     78.3900
    118      6.6770      5.6960     -2.7770      1.7700     78.3900
    119      6.6690      4.7670     -1.9640      1.5900     78.3900
    120      6.4790      5.6100     -4.1810      1.7700     78.3900
    121      6.2570      4.5040     -4.9940      1.6800     78.3900
    122      6.1510      5.0150     -6.1970      1.7700     78.3900
    123      5.9870      4.4530     -7.1170      0.0100     78.3900
    124      7.5020      7.7700     -7.8840      1.7700     78.3900
    125      8.2730      7.7810     -7.0880      0.0100     78.3900
    126      7.3670      9.0720     -8.4220      1.5900     78.3900
    127      8.2110      9.2970     -8.8340      0.0100     78.3900
    128      7.8280      6.7490     -8.9660      1.7700     78.3900
    129      8.1240      5.7790     -8.4990      0.0100     78.3900
    130      8.7570      7.2140     -9.9730      1.5900     78.3900
    131     10.2650      6.7720     -9.8820      2.1000     78.3900
    132     10.3490      5.3430     -9.5220      1.5900     78.3900
    133     10.9520      7.1860    -11.1250      1.5900     78.3900
    134     10.8220      7.6240     -8.6710      1.5900     78.3900
    135     10.9830      9.0530     -8.8480      1.7700     78.3900
    136     10.0320      9.5320     -9.1750      0.0100     78.3900
    137     11.7620      9.2630     -9.6160      0.0100     78.3900
    138     11.4460      9.7410     -7.5610      1.7700     78.3900
    139     11.5990     10.8320     -7.7230      0.0100     78.3900
    140     10.4300      9.5940     -6.5290      1.5900     78.3900
    141     11.0700      9.3900     -5.2780      1.7700     78.3900
    142     10.7010     10.1910     -4.5980      0.0100     78.3900
    143     10.7090      8.0850     -4.7140      1.6800     78.3900
    144     10.3170      6.4200     -3.3340      1.7700     78.3900
    145      9.9130      5.9860     -4.5900      1.6800     78.3900
    146     10.1730      7.0040     -5.3720      1.7700     78.3900
    147     10.0020      7.0300     -6.4500      0.0100     78.3900
    148     10.7990      6.5110     -1.0180      1.6800     78.3900
    149     11.2530      7.7490     -1.2410      1.7700     78.3900
    150     11.6440      8.2720     -0.3610      0.0100     78.3900
    151     11.3060      8.4370     -2.3870      1.6800     78.3900
    152     10.8110      7.7110     -3.4000      1.7700     78.3900
    153     10.3090      5.8010     -2.0660      1.7700     78.3900
    154      9.8500      4.5550     -1.8500      1.6800     78.3900
    155      9.4820      3.9900     -2.5910      0.0100     78.3900
    156      9.8550      4.1650     -0.9260      0.0100     78.3900
    157     12.5670      9.5530     -5.4810      1.7700     78.3900
    158     13.1530      8.8810     -4.8200      0.0100     78.3900
    159     12.9400     10.9030     -5.2530      1.5900     78.3900
    160     13.8540     11.0260     -5.5580      0.0100     78.3900
    161     12.7190      9.1500     -6.9420      1.7700     78.3900
    162     12.6700      8.0430     -7.0430      0.0100     78.3900
    163     13.9030      9.6640     -7.5810      1.5900     78.3900
    164     14.6900      9.2230     -7.2110      0.0100     78.3900
    165     10.3300      3.0580      7.9140      0.0100     78.3900
    166     10.3980      3.8520      7.3550      1.5900     78.3900
    167     11.2800      4.7640      8.0250      1.7700     78.3900
    168     12.2330      4.2410      8.2600      0.0100     78.3900
    169     10.8150      5.0780      8.9850      0.0100     78.3900
    170     11.5980      6.0240      7.2100      1.7700     78.3900
    171     12.1770      6.7460      7.8230      0.0100     78.3900
    172     12.4250      5.6700      6.0570      1.5900     78.3900
    173     12.0310      6.4500      4.9380      1.7700     78.3900
    174     12.9540      6.9590      4.5750      0.0100     78.3900
    175     11.4450      5.6110      3.8480      1.6800     78.3900
    176     10.9870      4.3320      4.0930      1.7700     78.3900
    177     11.0840      3.9850      5.1230      0.0100     78.3900
    178     11.3860      6.1440      2.5790      1.7700     78.3900
    179     11.7880      7.2720      2.3150      1.5900     78.3900
    180     10.8520      5.3180      1.6250      1.6800     78.3900
    181     10.8300      5.7000      0.6860      0.0100     78.3900
    182     10.4140      4.0220      1.7870      1.7700     78.3900
    183     10.0020      3.3860      0.8180      1.5900     78.3900
    184     10.4890      3.5380      3.1330      1.7700     78.3900
    185     10.1530      2.5260      3.3520      0.0100     78.3900
    186     11.0570      7.4950      5.4550      1.7700     78.3900
    187     10.3170      7.7880      4.6840      0.0100     78.3900
    188     11.7620      8.6430      5.8960      1.5900     78.3900
    189     11.0950      9.2540      6.2310      0.0100     78.3900
    190     10.3880      6.7560      6.6110      1.7700     78.3900
    191      9.6970      5.9750      6.2160      0.0100     78.3900
    192      9.7740      7.5970      7.6180      1.5900     78.3900
    193      8.2400      7.9550      7.5000      2.1000     78.3900
    194      7.4650      6.7270      7.2240      1.5900     78.3900
    195      7.8350      8.7400      8.6850      1.5900     78.3900
    196      8.1770      8.8860      6.2330      1.5900     78.3900
    197      8.7670     10.2060      6.2660      1.7700     78.3900
    198      9.8270     10.1670      6.6000      0.0100     78.3900
    199      8.2240     10.8610      6.9880      0.0100     78.3900
    200      8.7100     10.8780      4.8840      1.7700     78.3900
    201      9.1730     11.8880      4.9140      0.0100     78.3900
    202      9.4430     10.0930      3.9030      1.5900     78.3900
    203      8.7600     10.1460      2.6520      1.7700     78.3900
    204      9.4940     10.5600      1.9220      0.0100     78.3900
    205      8.3000      8.8130      2.1760      1.6800     78.3900
    206      8.1650      7.7750      3.0660      1.7700     78.3900
    207      8.4170      7.9990      4.1030      0.0100     78.3900
    208      7.7720      6.5590      2.6690      1.7700     78.3900
    209      7.7000      5.7200      3.3580      0.0100     78.3900
    210      7.9420      8.6260      0.8420      1.7700     78.3900
    211      8.0100      9.5830      0.0530      1.5900     78.3900
    212      7.5280      7.4080      0.4240      1.6800     78.3900
    213      7.4570      6.3830      1.2920      1.7700     78.3900
    214      7.0940      5.1810      0.8470      1.6800     78.3900
    215      6.9130      5.0560     -0.1320      0.0100     78.3900
    216      6.9660      4.3990      1.4600      0.0100     78.3900
    217      7.6120     11.1190      2.8010      1.7700     78.3900
    218      6.7260     10.8390      2.1940      0.0100     78.3900
    219      8.0240     12.4270      2.4580      1.5900     78.3900
    220      7.2680     12.9860      2.6600      0.0100     78.3900
    221      7.3070     11.0040      4.2870      1.7700     78.3900
    222      6.7870     10.0410      4.5000      0.0100     78.3900
    223      6.6470     12.1530      4.8560      1.5900     78.3900
    224      5.0850     12.1510      4.9680      2.1000     78.3900
    225      4.6140     10.8170      5.3940      1.5900     78.3900
    226      4.6890     13.2980      5.8190      1.5900     78.3900
    227      4.5950     12.3790      3.4920      1.5900     78.3900
    228      4.8670     13.6000      2.7720      1.7700     78.3900
    229      5.9360     13.9000      2.8390      0.0100     78.3900
    230      4.2600     14.4180      3.2060      0.0100     78.3900
    231      4.4830     13.4840      1.2920      1.7700     78.3900
    232      4.6980     14.4220      0.7320      0.0100     78.3900
    233      5.2470     12.4210      0.6640      1.5900     78.3900
    234      4.4120     11.7250     -0.2390      1.7700     78.3900
    235      4.9180     11.7580     -1.2310      0.0100     78.3900
    236      4.2530     10.3300      0.1750      1.6800     78.3900
    237      3.9970      8.1510      0.1170      1.7700     78.3900
    238      4.1640      8.4790      1.4540      1.6800     78.3900
    239      4.3110      9.7820      1.4360      1.7700     78.3900
    240      4.4870     10.4010      2.3140      0.0100     78.3900
    241      3.7030      6.9710     -1.8980      1.6800     78.3900
    242      3.7500      8.1470     -2.5230      1.7700     78.3900
    243      3.6450      8.1120     -3.6150      0.0100     78.3900
    244      3.9110      9.3600     -2.0060      1.6800     78.3900
    245      4.0430      9.2890     -0.6740      1.7700     78.3900
    246      3.8200      6.9220     -0.5480      1.7700     78.3900
    247      3.7510      5.7230      0.0700      1.6800     78.3900
    248      3.8170      5.6370      1.0650      0.0100     78.3900
    249      3.6560      4.8830     -0.4690      0.0100     78.3900
    250      3.0870     12.4700     -0.3250      1.7700     78.3900
    251      2.2260     11.7890     -0.5070      0.0100     78.3900
    252      3.1530     13.4480     -1.3500      1.5900     78.3900
    253      2.3170     13.9360     -1.4060      0.0100     78.3900
    254      3.0190     13.0880      1.0690      1.7700     78.3900
    255      2.7990     12.2910      1.8170      0.0100     78.3900
    256      2.1630     14.2510      1.2070      1.5900     78.3900
    257      0.6840     13.9750      1.6810      2.1000     78.3900
    258      0.0980     12.9930      0.7520      1.5900     78.3900
    259      0.6760     13.5810      3.1070      1.5900     78.3900
    260      0.0120     15.4030      1.4670      1.5900     78.3900
    261     -1.3830     15.5100      1.0580      1.7700     78.3900
    262     -1.8330     16.3380      1.6530      0.0100     78.3900
    263     -1.9790     14.6050      1.3200      0.0100     78.3900
    264     -1.6650     15.8600     -0.4380      1.7700     78.3900
    265     -2.7540     16.0610     -0.5500      0.0100     78.3900
    266     -0.9470     17.0470     -0.8760      1.5900     78.3900
    267      0.1250     16.6760     -1.7390      1.7700     78.3900
    268     -0.1610     17.0000     -2.7630      0.0100     78.3900
    269      1.3670     17.3440     -1.3130      1.6800     78.3900
    270      3.4120     18.1540     -1.2170      1.7700     78.3900
    271      2.7660     18.6110     -0.0760      1.6800     78.3900
    272      1.5610     18.1000     -0.1740      1.7700     78.3900
    273      0.7620     18.2360      0.5620      0.0100     78.3900
    274      5.0630     17.7250     -2.8620      1.6800     78.3900
    275      4.1330     16.9950     -3.4880      1.7700     78.3900
    276      4.4530     16.5190     -4.4190      0.0100     78.3900
    277      2.8530     16.7960     -3.1630      1.6800     78.3900
    278      2.5620     17.3780     -1.9890      1.7700     78.3900
    279      4.7220     18.3440     -1.7040      1.7700     78.3900
    280      5.6320     19.1330     -1.1040      1.6800     78.3900
    281      5.4380     19.6120     -0.2430      0.0100     78.3900
    282      6.5310     19.2690     -1.5270      0.0100     78.3900
    283      0.2130     15.1560     -1.7010      1.7700     78.3900
    284      0.8540     14.8700     -0.8550      0.0100     78.3900
    285      0.7150     14.5350     -2.8650      1.5900     78.3900
    286      0.0490     14.6460     -3.5640      0.0100     78.3900
    287     -1.2390     14.7700     -1.4460      1.7700     78.3900
    288     -1.2730     13.7790     -0.9380      0.0100     78.3900
    289     -2.0440     14.7690     -2.6500      1.5900     78.3900
    290     -3.3630     13.9060     -2.6770      2.1000     78.3900
    291     -4.0580     14.0510     -1.3820      1.5900     78.3900
    292     -4.1400     14.2850     -3.8790      1.5900     78.3900
    293     -2.8750     12.4130     -2.8110      1.5900     78.3900
    294     -3.8510     11.3380     -2.7370      1.7700     78.3900
    295     -4.9150     11.6870     -2.7350      0.0100     78.3900
    296     -3.6950     10.7800     -1.7850      0.0100     78.3900
    297     -3.6970     10.3480     -3.9010      1.7700     78.3900
    298     -3.9400     10.8470     -4.8670      0.0100     78.3900
    299     -2.3260      9.8560     -3.9890      1.5900     78.3900
    300     -2.3420      8.4840     -4.3570      1.7700     78.3900
    301     -1.7050      8.3840     -5.2650      0.0100     78.3900
    302     -1.7980      7.6320     -3.2860      1.6800     78.3900
    303     -1.4840      6.3030     -3.3930      1.7700     78.3900
    304     -1.2480      3.4120     -5.2910      1.6800     78.3900
    305     -1.5810      3.7060     -6.1870      0.0100     78.3900
    306     -0.9190      2.4700     -5.1750      0.0100     78.3900
    307     -1.6260      5.5450     -4.4940      1.6800     78.3900
    308     -1.2010      4.2970     -4.3160      1.7700     78.3900
    309     -0.6870      3.8490     -3.1270      1.6800     78.3900
    310     -0.3750      2.8910     -3.0710      0.0100     78.3900
    311     -0.5330      4.6050     -1.9710      1.7700     78.3900
    312     -0.0520      4.1150     -0.9450      1.5900     78.3900
    313     -0.9880      5.9370     -2.1570      1.7700     78.3900
    314     -1.0050      7.0130     -1.2780      1.6800     78.3900
    315     -1.4950      8.0010     -1.9910      1.7700     78.3900
    316     -1.6510      9.0240     -1.6380      0.0100     78.3900
    317     -3.7720      8.1240     -4.6950      1.7700     78.3900
    318     -4.0100      7.0630     -4.4740      0.0100     78.3900
    319     -4.0320      8.3880     -6.0610      1.5900     78.3900
    320     -4.9750      8.2380     -6.2020      0.0100     78.3900
    321     -4.5380      9.0690     -3.7810      1.7700     78.3900
    322     -4.4540      8.7370     -2.7190      0.0100     78.3900
    323     -5.8930      9.3310     -4.1950      1.5900     78.3900
    324     -7.0940      8.5850     -3.5160      2.1000     78.3900
    325     -6.8200      8.4700     -2.0700      1.5900     78.3900
    326     -8.3570      9.2470     -3.9110      1.5900     78.3900
    327     -7.0200      7.1470     -4.1530      1.5900     78.3900
    328     -7.2520      6.9440     -5.5660      1.7700     78.3900
    329     -6.6030      7.6020     -6.1910      0.0100     78.3900
    330     -8.3130      7.1770     -5.8130      0.0100     78.3900
    331     -7.0100      5.4810     -5.9760      1.7700     78.3900
    332     -7.2750      5.3290     -7.0450      0.0100     78.3900
    333     -5.5980      5.1330     -5.8310      1.5900     78.3900
    334     -5.4880      3.7990     -5.3420      1.7700     78.3900
    335     -4.8500      3.2510     -6.0750      0.0100     78.3900
    336     -4.8610      3.7540     -3.9880      1.6800     78.3900
    337     -4.8380      4.8630     -3.1700      1.7700     78.3900
    338     -5.2930      5.7580     -3.5900      0.0100     78.3900
    339     -4.3130      2.5630     -3.5680      1.7700     78.3900
    340     -4.3250      1.5500     -4.2590      1.5900     78.3900
    341     -3.7510      2.5920     -2.3190      1.6800     78.3900
    342     -3.3600      1.7130     -1.9980      0.0100     78.3900
    343     -3.7020      3.6550     -1.4450      1.7700     78.3900
    344     -3.1820      3.5150     -0.3410      1.5900     78.3900
    345     -4.2810      4.8630     -1.9510      1.7700     78.3900
    346     -4.2560      5.7580     -1.3350      0.0100     78.3900
    347     -6.8880      3.1950     -5.3480      1.7700     78.3900
    348     -7.0370      2.4790     -4.5060      0.0100     78.3900
    349     -7.1510      2.5510     -6.5860      1.5900     78.3900
    350     -8.0970      2.3300     -6.6230      0.0100     78.3900
    351     -7.7560      4.4330     -5.1410      1.7700     78.3900
    352     -7.7230      4.7500     -4.0780      0.0100     78.3900
    353     -9.1170      4.2950     -5.5910      1.5900     78.3900
    354     -9.5920      3.6530     -5.0340      0.0100     78.3900

     ----------------------------
     INPUT FOR TESSERA DEFINITION
     ----------------------------
     NTSALL  =        60     MTHALL  =         4
     MTHAUT  =         0     AUTFRE  =    2.0000
     NTSFRZ  =        60     KEEPSM  =         0
     AREAKP  =   10.0000     BONDRY  =    1.0000
     AREATL  =    0.0100

     SPHERE     INITS       METHOD
          1        60       FIXPVA
          2        60       FIXPVA
          3        60       FIXPVA
          4        60       FIXPVA
          5        60       FIXPVA
          6        60       FIXPVA
          7        60       FIXPVA
          8        60       FIXPVA
          9        60       FIXPVA
         10        60       FIXPVA
         11        60       FIXPVA
         12        60       FIXPVA
         13        60       FIXPVA
         14        60       FIXPVA
         15        60       FIXPVA
         16        60       FIXPVA
         17        60       FIXPVA
         18        60       FIXPVA
         19        60       FIXPVA
         20        60       FIXPVA
         21        60       FIXPVA
         22        60       FIXPVA
         23        60       FIXPVA
         24        60       FIXPVA
         25        60       FIXPVA
         26        60       FIXPVA
         27        60       FIXPVA
         28        60       FIXPVA
         29        60       FIXPVA
         30        60       FIXPVA
         31        60       FIXPVA
         32        60       FIXPVA
         33        60       FIXPVA
         34        60       FIXPVA
         35        60       FIXPVA
         36        60       FIXPVA
         37        60       FIXPVA
         38        60       FIXPVA
         39        60       FIXPVA
         40        60       FIXPVA
         41        60       FIXPVA
         42        60       FIXPVA
         43        60       FIXPVA
         44        60       FIXPVA
         45        60       FIXPVA
         46        60       FIXPVA
         47        60       FIXPVA
         48        60       FIXPVA
         49        60       FIXPVA
         50        60       FIXPVA
         51        60       FIXPVA
         52        60       FIXPVA
         53        60       FIXPVA
         54        60       FIXPVA
         55        60       FIXPVA
         56        60       FIXPVA
         57        60       FIXPVA
         58        60       FIXPVA
         59        60       FIXPVA
         60        60       FIXPVA
         61        60       FIXPVA
         62        60       FIXPVA
         63        60       FIXPVA
         64        60       FIXPVA
         65        60       FIXPVA
         66        60       FIXPVA
         67        60       FIXPVA
         68        60       FIXPVA
         69        60       FIXPVA
         70        60       FIXPVA
         71        60       FIXPVA
         72        60       FIXPVA
         73        60       FIXPVA
         74        60       FIXPVA
         75        60       FIXPVA
         76        60       FIXPVA
         77        60       FIXPVA
         78        60       FIXPVA
         79        60       FIXPVA
         80        60       FIXPVA
         81        60       FIXPVA
         82        60       FIXPVA
         83        60       FIXPVA
         84        60       FIXPVA
         85        60       FIXPVA
         86        60       FIXPVA
         87        60       FIXPVA
         88        60       FIXPVA
         89        60       FIXPVA
         90        60       FIXPVA
         91        60       FIXPVA
         92        60       FIXPVA
         93        60       FIXPVA
         94        60       FIXPVA
         95        60       FIXPVA
         96        60       FIXPVA
         97        60       FIXPVA
         98        60       FIXPVA
         99        60       FIXPVA
        100        60       FIXPVA
        101        60       FIXPVA
        102        60       FIXPVA
        103        60       FIXPVA
        104        60       FIXPVA
        105        60       FIXPVA
        106        60       FIXPVA
        107        60       FIXPVA
        108        60       FIXPVA
        109        60       FIXPVA
        110        60       FIXPVA
        111        60       FIXPVA
        112        60       FIXPVA
        113        60       FIXPVA
        114        60       FIXPVA
        115        60       FIXPVA
        116        60       FIXPVA
        117        60       FIXPVA
        118        60       FIXPVA
        119        60       FIXPVA
        120        60       FIXPVA
        121        60       FIXPVA
        122        60       FIXPVA
        123        60       FIXPVA
        124        60       FIXPVA
        125        60       FIXPVA
        126        60       FIXPVA
        127        60       FIXPVA
        128        60       FIXPVA
        129        60       FIXPVA
        130        60       FIXPVA
        131        60       FIXPVA
        132        60       FIXPVA
        133        60       FIXPVA
        134        60       FIXPVA
        135        60       FIXPVA
        136        60       FIXPVA
        137        60       FIXPVA
        138        60       FIXPVA
        139        60       FIXPVA
        140        60       FIXPVA
        141        60       FIXPVA
        142        60       FIXPVA
        143        60       FIXPVA
        144        60       FIXPVA
        145        60       FIXPVA
        146        60       FIXPVA
        147        60       FIXPVA
        148        60       FIXPVA
        149        60       FIXPVA
        150        60       FIXPVA
        151        60       FIXPVA
        152        60       FIXPVA
        153        60       FIXPVA
        154        60       FIXPVA
        155        60       FIXPVA
        156        60       FIXPVA
        157        60       FIXPVA
        158        60       FIXPVA
        159        60       FIXPVA
        160        60       FIXPVA
        161        60       FIXPVA
        162        60       FIXPVA
        163        60       FIXPVA
        164        60       FIXPVA
        165        60       FIXPVA
        166        60       FIXPVA
        167        60       FIXPVA
        168        60       FIXPVA
        169        60       FIXPVA
        170        60       FIXPVA
        171        60       FIXPVA
        172        60       FIXPVA
        173        60       FIXPVA
        174        60       FIXPVA
        175        60       FIXPVA
        176        60       FIXPVA
        177        60       FIXPVA
        178        60       FIXPVA
        179        60       FIXPVA
        180        60       FIXPVA
        181        60       FIXPVA
        182        60       FIXPVA
        183        60       FIXPVA
        184        60       FIXPVA
        185        60       FIXPVA
        186        60       FIXPVA
        187        60       FIXPVA
        188        60       FIXPVA
        189        60       FIXPVA
        190        60       FIXPVA
        191        60       FIXPVA
        192        60       FIXPVA
        193        60       FIXPVA
        194        60       FIXPVA
        195        60       FIXPVA
        196        60       FIXPVA
        197        60       FIXPVA
        198        60       FIXPVA
        199        60       FIXPVA
        200        60       FIXPVA
        201        60       FIXPVA
        202        60       FIXPVA
        203        60       FIXPVA
        204        60       FIXPVA
        205        60       FIXPVA
        206        60       FIXPVA
        207        60       FIXPVA
        208        60       FIXPVA
        209        60       FIXPVA
        210        60       FIXPVA
        211        60       FIXPVA
        212        60       FIXPVA
        213        60       FIXPVA
        214        60       FIXPVA
        215        60       FIXPVA
        216        60       FIXPVA
        217        60       FIXPVA
        218        60       FIXPVA
        219        60       FIXPVA
        220        60       FIXPVA
        221        60       FIXPVA
        222        60       FIXPVA
        223        60       FIXPVA
        224        60       FIXPVA
        225        60       FIXPVA
        226        60       FIXPVA
        227        60       FIXPVA
        228        60       FIXPVA
        229        60       FIXPVA
        230        60       FIXPVA
        231        60       FIXPVA
        232        60       FIXPVA
        233        60       FIXPVA
        234        60       FIXPVA
        235        60       FIXPVA
        236        60       FIXPVA
        237        60       FIXPVA
        238        60       FIXPVA
        239        60       FIXPVA
        240        60       FIXPVA
        241        60       FIXPVA
        242        60       FIXPVA
        243        60       FIXPVA
        244        60       FIXPVA
        245        60       FIXPVA
        246        60       FIXPVA
        247        60       FIXPVA
        248        60       FIXPVA
        249        60       FIXPVA
        250        60       FIXPVA
        251        60       FIXPVA
        252        60       FIXPVA
        253        60       FIXPVA
        254        60       FIXPVA
        255        60       FIXPVA
        256        60       FIXPVA
        257        60       FIXPVA
        258        60       FIXPVA
        259        60       FIXPVA
        260        60       FIXPVA
        261        60       FIXPVA
        262        60       FIXPVA
        263        60       FIXPVA
        264        60       FIXPVA
        265        60       FIXPVA
        266        60       FIXPVA
        267        60       FIXPVA
        268        60       FIXPVA
        269        60       FIXPVA
        270        60       FIXPVA
        271        60       FIXPVA
        272        60       FIXPVA
        273        60       FIXPVA
        274        60       FIXPVA
        275        60       FIXPVA
        276        60       FIXPVA
        277        60       FIXPVA
        278        60       FIXPVA
        279        60       FIXPVA
        280        60       FIXPVA
        281        60       FIXPVA
        282        60       FIXPVA
        283        60       FIXPVA
        284        60       FIXPVA
        285        60       FIXPVA
        286        60       FIXPVA
        287        60       FIXPVA
        288        60       FIXPVA
        289        60       FIXPVA
        290        60       FIXPVA
        291        60       FIXPVA
        292        60       FIXPVA
        293        60       FIXPVA
        294        60       FIXPVA
        295        60       FIXPVA
        296        60       FIXPVA
        297        60       FIXPVA
        298        60       FIXPVA
        299        60       FIXPVA
        300        60       FIXPVA
        301        60       FIXPVA
        302        60       FIXPVA
        303        60       FIXPVA
        304        60       FIXPVA
        305        60       FIXPVA
        306        60       FIXPVA
        307        60       FIXPVA
        308        60       FIXPVA
        309        60       FIXPVA
        310        60       FIXPVA
        311        60       FIXPVA
        312        60       FIXPVA
        313        60       FIXPVA
        314        60       FIXPVA
        315        60       FIXPVA
        316        60       FIXPVA
        317        60       FIXPVA
        318        60       FIXPVA
        319        60       FIXPVA
        320        60       FIXPVA
        321        60       FIXPVA
        322        60       FIXPVA
        323        60       FIXPVA
        324        60       FIXPVA
        325        60       FIXPVA
        326        60       FIXPVA
        327        60       FIXPVA
        328        60       FIXPVA
        329        60       FIXPVA
        330        60       FIXPVA
        331        60       FIXPVA
        332        60       FIXPVA
        333        60       FIXPVA
        334        60       FIXPVA
        335        60       FIXPVA
        336        60       FIXPVA
        337        60       FIXPVA
        338        60       FIXPVA
        339        60       FIXPVA
        340        60       FIXPVA
        341        60       FIXPVA
        342        60       FIXPVA
        343        60       FIXPVA
        344        60       FIXPVA
        345        60       FIXPVA
        346        60       FIXPVA
        347        60       FIXPVA
        348        60       FIXPVA
        349        60       FIXPVA
        350        60       FIXPVA
        351        60       FIXPVA
        352        60       FIXPVA
        353        60       FIXPVA
        354        60       FIXPVA

     ------------------------------
      FIXPVA TESSELLATION FOR PCM
         PEIFENG SU AND HUI LI
     UNIVERSITY OF NEBRASKA-LINCOLN
     ------------------------------


 PCM DIMENSIONS: MXSP=   354, MXTS=     14160, MEMORY=        145497

     INPUT FOR CAVITY DEFINITION 
     ---------------------------
   ATOM               COORDINATES                RADIUS       EPS
      1      1.9700     -5.7730      2.7850      0.0100     78.3900
      2      1.5830     -5.4930      1.9340      1.5900     78.3900
      3      1.2610     -6.6910      1.2130      1.7700     78.3900
      4      0.6310     -7.3480      1.8540      0.0100     78.3900
      5      2.1990     -7.2430      0.9800      0.0100     78.3900
      6      0.5140     -6.4170     -0.0950      1.7700     78.3900
      7      0.3000     -7.3630     -0.6380      0.0100     78.3900
      8     -0.7650     -5.7660      0.1860      1.5900     78.3900
      9     -1.0160     -4.7890     -0.8120      1.7700     78.3900
     10     -2.0100     -5.0380     -1.2550      0.0100     78.3900
     11     -1.0820     -3.4390     -0.2380      1.6800     78.3900
     12     -1.5430     -1.3140      0.1120      1.7700     78.3900
     13     -0.8670     -1.7550      1.2430      1.6800     78.3900
     14     -0.6140     -3.0190      0.9870      1.7700     78.3900
     15     -0.0940     -3.7070      1.6580      0.0100     78.3900
     16     -2.6660      0.0500     -1.4640      1.6800     78.3900
     17     -2.6900     -1.0240     -2.2600      1.7700     78.3900
     18     -3.1650     -0.8760     -3.2370      0.0100     78.3900
     19     -2.2390     -2.2610     -2.0250      1.6800     78.3900
     20     -1.6710     -2.3390     -0.8110      1.7700     78.3900
     21     -2.0930     -0.0610     -0.2380      1.7700     78.3900
     22     -2.0750      1.0140      0.5750      1.6800     78.3900
     23     -1.6540      0.9830      1.4900      0.0100     78.3900
     24     -2.4370      1.8940      0.2560      0.0100     78.3900
     25      0.0570     -4.9290     -1.8670      1.7700     78.3900
     26      0.2970     -3.9670     -2.3610      0.0100     78.3900
     27     -0.3490     -5.8760     -2.8340      1.5900     78.3900
     28      0.3880     -5.9640     -3.4500      0.0100     78.3900
     29      1.2350     -5.4530     -1.0490      1.7700     78.3900
     30      1.6580     -4.6370     -0.4190      0.0100     78.3900
     31      2.2500     -6.1680     -1.8020      1.5900     78.3900
     32      3.4580     -5.3400     -2.3960      2.1000     78.3900
     33      4.0520     -4.5080     -1.3280      1.5900     78.3900
     34      4.3720     -6.2700     -3.1010      1.5900     78.3900
     35      2.7710     -4.4020     -3.4540      1.5900     78.3900
     36      2.2790     -4.9540     -4.6970      1.7700     78.3900
     37      1.5440     -5.7710     -4.5250      0.0100     78.3900
     38      3.1150     -5.3840     -5.2950      0.0100     78.3900
     39      1.5980     -3.8760     -5.5480      1.7700     78.3900
     40      1.1860     -4.3290     -6.4740      0.0100     78.3900
     41      0.4800     -3.2740     -4.8290      1.5900     78.3900
     42      0.4180     -1.8850     -5.1460      1.7700     78.3900
     43     -0.6090     -1.7240     -5.5510      0.0100     78.3900
     44      0.6140     -0.9940     -3.9660      1.6800     78.3900
     45      1.2490     -1.4600     -2.8400      1.7700     78.3900
     46      1.5980     -2.4920     -2.8820      0.0100     78.3900
     47      1.4000     -0.6900     -1.7540      1.7700     78.3900
     48      1.8530     -1.0550     -0.8360      0.0100     78.3900
     49      0.1710      0.3270     -4.0070      1.7700     78.3900
     50     -0.3870      0.7470     -5.0320      1.5900     78.3900
     51      0.3400      1.1280     -2.9310      1.6800     78.3900
     52      0.9090      0.6450     -1.8140      1.7700     78.3900
     53      0.9870      1.4280     -0.7400      1.6800     78.3900
     54      0.6410      2.3680     -0.7870      0.0100     78.3900
     55      1.4110      1.1180      0.1110      0.0100     78.3900
     56      1.4290     -1.6220     -6.2440      1.7700     78.3900
     57      1.8670     -0.6050     -6.1870      0.0100     78.3900
     58      0.8290     -1.8100     -7.5130      1.5900     78.3900
     59      1.5360     -1.7230     -8.1630      0.0100     78.3900
     60      2.4780     -2.6890     -5.9550      1.7700     78.3900
     61      3.0810     -2.4180     -5.0570      0.0100     78.3900
     62      3.2870     -3.0540     -7.0880      1.5900     78.3900
     63      4.6910     -2.4010     -7.3260      2.1000     78.3900
     64      5.4360     -2.3980     -6.0480      1.5900     78.3900
     65      5.3280     -3.0790     -8.4770      1.5900     78.3900
     66      4.3560     -0.9190     -7.7320      1.5900     78.3900
     67      3.7880     -0.6290     -9.0320      1.7700     78.3900
     68      2.9130     -1.2840     -9.2500      0.0100     78.3900
     69      4.5450     -0.8040     -9.8310      0.0100     78.3900
     70      3.3310      0.8340     -9.1230      1.7700     78.3900
     71      2.8410      1.0430    -10.0990      0.0100     78.3900
     72      2.3560      1.1020     -8.0810      1.5900     78.3900
     73      2.5570      2.4080     -7.5730      1.7700     78.3900
     74      1.5930      2.9520     -7.6980      0.0100     78.3900
     75      2.9050      2.3710     -6.1490      1.6800     78.3900
     76      2.6780      3.3710     -5.2510      1.7700     78.3900
     77      1.5780      6.5660     -4.5270      1.6800     78.3900
     78      1.4670      7.1590     -3.7370      0.0100     78.3900
     79      1.2700      6.8850     -5.4310      0.0100     78.3900
     80      2.1190      4.5640     -5.5230      1.6800     78.3900
     81      2.0560      5.3390     -4.4500      1.7700     78.3900
     82      2.3880      4.9070     -3.1950      1.6800     78.3900
     83      2.4940      5.6100     -2.4800      0.0100     78.3900
     84      2.9840      3.6980     -2.8860      1.7700     78.3900
     85      3.3150      3.4070     -1.7310      1.5900     78.3900
     86      3.1180      2.8820     -4.0350      1.7700     78.3900
     87      3.6460      1.6040     -4.1730      1.6800     78.3900
     88      3.5090      1.3470     -5.4500      1.7700     78.3900
     89      3.8070      0.4210     -5.9410      0.0100     78.3900
     90      3.6240      3.0750     -8.4130      1.7700     78.3900
     91      4.2520      3.7780     -7.8280      0.0100     78.3900
     92      3.0310      3.7640     -9.4970      1.5900     78.3900
     93      3.7480      4.0160    -10.0960      0.0100     78.3900
     94      4.4340      1.8780     -8.8940      1.7700     78.3900
     95      5.0710      1.4850     -8.0680      0.0100     78.3900
     96      5.1680      2.1030    -10.1200      1.5900     78.3900
     97      6.6530      2.6050    -10.0350      2.1000     78.3900
     98      7.3720      1.7710     -9.0510      1.5900     78.3900
     99      7.2060      2.6630    -11.4030      1.5900     78.3900
    100      6.5500      4.0660     -9.4500      1.5900     78.3900
    101      6.2580      5.1800    -10.3220      1.7700     78.3900
    102      5.2100      5.1220    -10.6950      0.0100     78.3900
    103      6.9410      5.1870    -11.2040      0.0100     78.3900
    104      6.4430      6.5200     -9.5930      1.7700     78.3900
    105      6.2120      7.3730    -10.2680      0.0100     78.3900
    106      5.5230      6.6040     -8.4690      1.5900     78.3900
    107      6.1600      7.2680     -7.3890      1.7700     78.3900
    108      5.5150      8.1350     -7.1210      0.0100     78.3900
    109      6.2760      6.3860     -6.2180      1.6800     78.3900
    110      6.5050      6.7740     -4.9270      1.7700     78.3900
    111      7.1780      9.2630     -2.6130      1.6800     78.3900
    112      7.1540     10.1000     -3.1640      0.0100     78.3900
    113      7.3780      9.3310     -1.6320      0.0100     78.3900
    114      6.6900      8.0380     -4.5060      1.6800     78.3900
    115      6.9290      8.1060     -3.1990      1.7700     78.3900
    116      6.9230      7.0070     -2.3810      1.6800     78.3900
    117      7.0940      7.1500     -1.3970      0.0100     78.3900
    118      6.6770      5.6960     -2.7770      1.7700     78.3900
    119      6.6690      4.7670     -1.9640      1.5900     78.3900
    120      6.4790      5.6100     -4.1810      1.7700     78.3900
    121      6.2570      4.5040     -4.9940      1.6800     78.3900
    122      6.1510      5.0150     -6.1970      1.7700     78.3900
    123      5.9870      4.4530     -7.1170      0.0100     78.3900
    124      7.5020      7.7700     -7.8840      1.7700     78.3900
    125      8.2730      7.7810     -7.0880      0.0100     78.3900
    126      7.3670      9.0720     -8.4220      1.5900     78.3900
    127      8.2110      9.2970     -8.8340      0.0100     78.3900
    128      7.8280      6.7490     -8.9660      1.7700     78.3900
    129      8.1240      5.7790     -8.4990      0.0100     78.3900
    130      8.7570      7.2140     -9.9730      1.5900     78.3900
    131     10.2650      6.7720     -9.8820      2.1000     78.3900
    132     10.3490      5.3430     -9.5220      1.5900     78.3900
    133     10.9520      7.1860    -11.1250      1.5900     78.3900
    134     10.8220      7.6240     -8.6710      1.5900     78.3900
    135     10.9830      9.0530     -8.8480      1.7700     78.3900
    136     10.0320      9.5320     -9.1750      0.0100     78.3900
    137     11.7620      9.2630     -9.6160      0.0100     78.3900
    138     11.4460      9.7410     -7.5610      1.7700     78.3900
    139     11.5990     10.8320     -7.7230      0.0100     78.3900
    140     10.4300      9.5940     -6.5290      1.5900     78.3900
    141     11.0700      9.3900     -5.2780      1.7700     78.3900
    142     10.7010     10.1910     -4.5980      0.0100     78.3900
    143     10.7090      8.0850     -4.7140      1.6800     78.3900
    144     10.3170      6.4200     -3.3340      1.7700     78.3900
    145      9.9130      5.9860     -4.5900      1.6800     78.3900
    146     10.1730      7.0040     -5.3720      1.7700     78.3900
    147     10.0020      7.0300     -6.4500      0.0100     78.3900
    148     10.7990      6.5110     -1.0180      1.6800     78.3900
    149     11.2530      7.7490     -1.2410      1.7700     78.3900
    150     11.6440      8.2720     -0.3610      0.0100     78.3900
    151     11.3060      8.4370     -2.3870      1.6800     78.3900
    152     10.8110      7.7110     -3.4000      1.7700     78.3900
    153     10.3090      5.8010     -2.0660      1.7700     78.3900
    154      9.8500      4.5550     -1.8500      1.6800     78.3900
    155      9.4820      3.9900     -2.5910      0.0100     78.3900
    156      9.8550      4.1650     -0.9260      0.0100     78.3900
    157     12.5670      9.5530     -5.4810      1.7700     78.3900
    158     13.1530      8.8810     -4.8200      0.0100     78.3900
    159     12.9400     10.9030     -5.2530      1.5900     78.3900
    160     13.8540     11.0260     -5.5580      0.0100     78.3900
    161     12.7190      9.1500     -6.9420      1.7700     78.3900
    162     12.6700      8.0430     -7.0430      0.0100     78.3900
    163     13.9030      9.6640     -7.5810      1.5900     78.3900
    164     14.6900      9.2230     -7.2110      0.0100     78.3900
    165     10.3300      3.0580      7.9140      0.0100     78.3900
    166     10.3980      3.8520      7.3550      1.5900     78.3900
    167     11.2800      4.7640      8.0250      1.7700     78.3900
    168     12.2330      4.2410      8.2600      0.0100     78.3900
    169     10.8150      5.0780      8.9850      0.0100     78.3900
    170     11.5980      6.0240      7.2100      1.7700     78.3900
    171     12.1770      6.7460      7.8230      0.0100     78.3900
    172     12.4250      5.6700      6.0570      1.5900     78.3900
    173     12.0310      6.4500      4.9380      1.7700     78.3900
    174     12.9540      6.9590      4.5750      0.0100     78.3900
    175     11.4450      5.6110      3.8480      1.6800     78.3900
    176     10.9870      4.3320      4.0930      1.7700     78.3900
    177     11.0840      3.9850      5.1230      0.0100     78.3900
    178     11.3860      6.1440      2.5790      1.7700     78.3900
    179     11.7880      7.2720      2.3150      1.5900     78.3900
    180     10.8520      5.3180      1.6250      1.6800     78.3900
    181     10.8300      5.7000      0.6860      0.0100     78.3900
    182     10.4140      4.0220      1.7870      1.7700     78.3900
    183     10.0020      3.3860      0.8180      1.5900     78.3900
    184     10.4890      3.5380      3.1330      1.7700     78.3900
    185     10.1530      2.5260      3.3520      0.0100     78.3900
    186     11.0570      7.4950      5.4550      1.7700     78.3900
    187     10.3170      7.7880      4.6840      0.0100     78.3900
    188     11.7620      8.6430      5.8960      1.5900     78.3900
    189     11.0950      9.2540      6.2310      0.0100     78.3900
    190     10.3880      6.7560      6.6110      1.7700     78.3900
    191      9.6970      5.9750      6.2160      0.0100     78.3900
    192      9.7740      7.5970      7.6180      1.5900     78.3900
    193      8.2400      7.9550      7.5000      2.1000     78.3900
    194      7.4650      6.7270      7.2240      1.5900     78.3900
    195      7.8350      8.7400      8.6850      1.5900     78.3900
    196      8.1770      8.8860      6.2330      1.5900     78.3900
    197      8.7670     10.2060      6.2660      1.7700     78.3900
    198      9.8270     10.1670      6.6000      0.0100     78.3900
    199      8.2240     10.8610      6.9880      0.0100     78.3900
    200      8.7100     10.8780      4.8840      1.7700     78.3900
    201      9.1730     11.8880      4.9140      0.0100     78.3900
    202      9.4430     10.0930      3.9030      1.5900     78.3900
    203      8.7600     10.1460      2.6520      1.7700     78.3900
    204      9.4940     10.5600      1.9220      0.0100     78.3900
    205      8.3000      8.8130      2.1760      1.6800     78.3900
    206      8.1650      7.7750      3.0660      1.7700     78.3900
    207      8.4170      7.9990      4.1030      0.0100     78.3900
    208      7.7720      6.5590      2.6690      1.7700     78.3900
    209      7.7000      5.7200      3.3580      0.0100     78.3900
    210      7.9420      8.6260      0.8420      1.7700     78.3900
    211      8.0100      9.5830      0.0530      1.5900     78.3900
    212      7.5280      7.4080      0.4240      1.6800     78.3900
    213      7.4570      6.3830      1.2920      1.7700     78.3900
    214      7.0940      5.1810      0.8470      1.6800     78.3900
    215      6.9130      5.0560     -0.1320      0.0100     78.3900
    216      6.9660      4.3990      1.4600      0.0100     78.3900
    217      7.6120     11.1190      2.8010      1.7700     78.3900
    218      6.7260     10.8390      2.1940      0.0100     78.3900
    219      8.0240     12.4270      2.4580      1.5900     78.3900
    220      7.2680     12.9860      2.6600      0.0100     78.3900
    221      7.3070     11.0040      4.2870      1.7700     78.3900
    222      6.7870     10.0410      4.5000      0.0100     78.3900
    223      6.6470     12.1530      4.8560      1.5900     78.3900
    224      5.0850     12.1510      4.9680      2.1000     78.3900
    225      4.6140     10.8170      5.3940      1.5900     78.3900
    226      4.6890     13.2980      5.8190      1.5900     78.3900
    227      4.5950     12.3790      3.4920      1.5900     78.3900
    228      4.8670     13.6000      2.7720      1.7700     78.3900
    229      5.9360     13.9000      2.8390      0.0100     78.3900
    230      4.2600     14.4180      3.2060      0.0100     78.3900
    231      4.4830     13.4840      1.2920      1.7700     78.3900
    232      4.6980     14.4220      0.7320      0.0100     78.3900
    233      5.2470     12.4210      0.6640      1.5900     78.3900
    234      4.4120     11.7250     -0.2390      1.7700     78.3900
    235      4.9180     11.7580     -1.2310      0.0100     78.3900
    236      4.2530     10.3300      0.1750      1.6800     78.3900
    237      3.9970      8.1510      0.1170      1.7700     78.3900
    238      4.1640      8.4790      1.4540      1.6800     78.3900
    239      4.3110      9.7820      1.4360      1.7700     78.3900
    240      4.4870     10.4010      2.3140      0.0100     78.3900
    241      3.7030      6.9710     -1.8980      1.6800     78.3900
    242      3.7500      8.1470     -2.5230      1.7700     78.3900
    243      3.6450      8.1120     -3.6150      0.0100     78.3900
    244      3.9110      9.3600     -2.0060      1.6800     78.3900
    245      4.0430      9.2890     -0.6740      1.7700     78.3900
    246      3.8200      6.9220     -0.5480      1.7700     78.3900
    247      3.7510      5.7230      0.0700      1.6800     78.3900
    248      3.8170      5.6370      1.0650      0.0100     78.3900
    249      3.6560      4.8830     -0.4690      0.0100     78.3900
    250      3.0870     12.4700     -0.3250      1.7700     78.3900
    251      2.2260     11.7890     -0.5070      0.0100     78.3900
    252      3.1530     13.4480     -1.3500      1.5900     78.3900
    253      2.3170     13.9360     -1.4060      0.0100     78.3900
    254      3.0190     13.0880      1.0690      1.7700     78.3900
    255      2.7990     12.2910      1.8170      0.0100     78.3900
    256      2.1630     14.2510      1.2070      1.5900     78.3900
    257      0.6840     13.9750      1.6810      2.1000     78.3900
    258      0.0980     12.9930      0.7520      1.5900     78.3900
    259      0.6760     13.5810      3.1070      1.5900     78.3900
    260      0.0120     15.4030      1.4670      1.5900     78.3900
    261     -1.3830     15.5100      1.0580      1.7700     78.3900
    262     -1.8330     16.3380      1.6530      0.0100     78.3900
    263     -1.9790     14.6050      1.3200      0.0100     78.3900
    264     -1.6650     15.8600     -0.4380      1.7700     78.3900
    265     -2.7540     16.0610     -0.5500      0.0100     78.3900
    266     -0.9470     17.0470     -0.8760      1.5900     78.3900
    267      0.1250     16.6760     -1.7390      1.7700     78.3900
    268     -0.1610     17.0000     -2.7630      0.0100     78.3900
    269      1.3670     17.3440     -1.3130      1.6800     78.3900
    270      3.4120     18.1540     -1.2170      1.7700     78.3900
    271      2.7660     18.6110     -0.0760      1.6800     78.3900
    272      1.5610     18.1000     -0.1740      1.7700     78.3900
    273      0.7620     18.2360      0.5620      0.0100     78.3900
    274      5.0630     17.7250     -2.8620      1.6800     78.3900
    275      4.1330     16.9950     -3.4880      1.7700     78.3900
    276      4.4530     16.5190     -4.4190      0.0100     78.3900
    277      2.8530     16.7960     -3.1630      1.6800     78.3900
    278      2.5620     17.3780     -1.9890      1.7700     78.3900
    279      4.7220     18.3440     -1.7040      1.7700     78.3900
    280      5.6320     19.1330     -1.1040      1.6800     78.3900
    281      5.4380     19.6120     -0.2430      0.0100     78.3900
    282      6.5310     19.2690     -1.5270      0.0100     78.3900
    283      0.2130     15.1560     -1.7010      1.7700     78.3900
    284      0.8540     14.8700     -0.8550      0.0100     78.3900
    285      0.7150     14.5350     -2.8650      1.5900     78.3900
    286      0.0490     14.6460     -3.5640      0.0100     78.3900
    287     -1.2390     14.7700     -1.4460      1.7700     78.3900
    288     -1.2730     13.7790     -0.9380      0.0100     78.3900
    289     -2.0440     14.7690     -2.6500      1.5900     78.3900
    290     -3.3630     13.9060     -2.6770      2.1000     78.3900
    291     -4.0580     14.0510     -1.3820      1.5900     78.3900
    292     -4.1400     14.2850     -3.8790      1.5900     78.3900
    293     -2.8750     12.4130     -2.8110      1.5900     78.3900
    294     -3.8510     11.3380     -2.7370      1.7700     78.3900
    295     -4.9150     11.6870     -2.7350      0.0100     78.3900
    296     -3.6950     10.7800     -1.7850      0.0100     78.3900
    297     -3.6970     10.3480     -3.9010      1.7700     78.3900
    298     -3.9400     10.8470     -4.8670      0.0100     78.3900
    299     -2.3260      9.8560     -3.9890      1.5900     78.3900
    300     -2.3420      8.4840     -4.3570      1.7700     78.3900
    301     -1.7050      8.3840     -5.2650      0.0100     78.3900
    302     -1.7980      7.6320     -3.2860      1.6800     78.3900
    303     -1.4840      6.3030     -3.3930      1.7700     78.3900
    304     -1.2480      3.4120     -5.2910      1.6800     78.3900
    305     -1.5810      3.7060     -6.1870      0.0100     78.3900
    306     -0.9190      2.4700     -5.1750      0.0100     78.3900
    307     -1.6260      5.5450     -4.4940      1.6800     78.3900
    308     -1.2010      4.2970     -4.3160      1.7700     78.3900
    309     -0.6870      3.8490     -3.1270      1.6800     78.3900
    310     -0.3750      2.8910     -3.0710      0.0100     78.3900
    311     -0.5330      4.6050     -1.9710      1.7700     78.3900
    312     -0.0520      4.1150     -0.9450      1.5900     78.3900
    313     -0.9880      5.9370     -2.1570      1.7700     78.3900
    314     -1.0050      7.0130     -1.2780      1.6800     78.3900
    315     -1.4950      8.0010     -1.9910      1.7700     78.3900
    316     -1.6510      9.0240     -1.6380      0.0100     78.3900
    317     -3.7720      8.1240     -4.6950      1.7700     78.3900
    318     -4.0100      7.0630     -4.4740      0.0100     78.3900
    319     -4.0320      8.3880     -6.0610      1.5900     78.3900
    320     -4.9750      8.2380     -6.2020      0.0100     78.3900
    321     -4.5380      9.0690     -3.7810      1.7700     78.3900
[...]
   302   10   7.0   0.39    0.8   -0.002305   -0.804866   -0.808444
   303   10   6.0   0.00    0.0    0.000000    0.705205    0.710588
   304   10   7.0  10.56   20.7   -0.088990   -0.968210   -1.046084
   305   10   1.0   0.00    0.0    0.000000    0.442972    0.438570
   306   10   1.0   0.00    0.0    0.000000    0.482274    0.527092
   307   10   7.0   4.32    8.5    0.068899   -0.748861   -0.753343
   308   10   6.0   0.28    0.5    0.004976    0.962960    0.962450
   309   10   7.0   0.04    0.1    0.001615   -0.934893   -1.021186
   310   10   1.0   0.00    0.0    0.000000    0.490970    0.545959
   311   10   6.0   0.00    0.0    0.000000    0.879111    0.889197
   312   10   8.0   6.56   14.3    0.133441   -0.747793   -0.740862
   313   10   6.0   0.00    0.0    0.000000   -0.065414   -0.054280
   314   10   7.0  10.81   21.2    0.173912   -0.598183   -0.601783
   315   10   6.0  12.86   22.7   -0.053681    0.264374    0.260503
   316   10   1.0   0.00    0.0    0.000000    0.281283    0.287156
   317   10   6.0   0.33    0.6    0.006732    0.135400    0.102282
   318   10   1.0   0.00    0.0    0.000000    0.191301    0.225600
   319   10   8.0  16.34   35.7    0.096355   -0.826191   -0.842452
   320   10   1.0   0.00    0.0    0.000000    0.497288    0.523510
   321   10   6.0   1.88    3.3   -0.038338    0.148764    0.102557
   322   10   1.0   0.00    0.0    0.000000    0.244223    0.243628
   323   10   8.0   3.24    7.1    0.047670   -0.794464   -0.796256
   324   10  15.0  13.84   17.3    0.187478    1.599258    1.651046
   325   10   8.0  14.62   32.0    0.307113   -0.896268   -0.894579
   326   10   8.0  17.00   37.2    0.332601   -0.888943   -0.884065
   327   10   8.0   1.59    3.5    0.016791   -0.974220   -0.788585
   328   11   6.0  12.52   22.1   -0.101197    0.194703   -0.031351
   329   11   1.0   0.00    0.0    0.000000    0.166230    0.182453
   330   11   1.0   0.00    0.0    0.000000    0.242274    0.226482
   331   11   6.0   6.64   11.7   -0.047617    0.091365    0.148686
   332   11   1.0   0.00    0.0    0.000000    0.254251    0.226288
   333   11   8.0   4.24    9.3    0.049216   -0.729234   -0.736704
   334   11   6.0   3.90    6.9   -0.047987    0.413203    0.412253
   335   11   1.0   0.00    0.0    0.000000    0.263583    0.260846
   336   11   7.0   0.71    1.4   -0.004167   -0.830162   -0.836747
   337   11   6.0   2.83    5.0   -0.003121    0.199561    0.185216
   338   11   1.0   0.00    0.0    0.000000    0.305086    0.327251
   339   11   6.0   2.88    5.1   -0.008558    1.114879    1.117800
   340   11   8.0  10.45   22.8    0.161353   -0.683164   -0.689915
   341   11   7.0   2.46    4.8    0.001637   -0.930866   -1.012898
   342   11   1.0   0.00    0.0    0.000000    0.486069    0.545522
   343   11   6.0   2.45    4.3   -0.007548    0.875173    0.885354
   344   11   8.0  11.65   25.5    0.158532   -0.728112   -0.718750
   345   11   6.0   8.53   15.1   -0.034688   -0.452737   -0.455496
   346   11   1.0   0.00    0.0    0.000000    0.274485    0.273154
   347   11   6.0   6.46   11.4   -0.058368    0.122064    0.122784
   348   11   1.0   0.00    0.0    0.000000    0.223744    0.222346
   349   11   8.0  22.30   48.7    0.048219   -0.839894   -0.841673
   350   11   1.0   0.00    0.0    0.000000    0.506716    0.506503
   351   11   6.0   5.93   10.5   -0.060452    0.162972    0.147012
   352   11   1.0   0.00    0.0    0.000000    0.221831    0.223974
   353   11   8.0  21.68   47.4   -0.025388   -0.850454   -0.854148
   354   11   1.0   0.00    0.0    0.000000    0.510561    0.509721

 Done with FMO properties.
 CPU     0: STEP CPU TIME=     0.01 TOTAL CPU TIME=      16992.1 (    283.2 MIN)
 TOTAL WALL CLOCK TIME=      42014.5 SECONDS, CPU UTILIZATION IS    40.44%
 CPU     0: STEP CPU TIME=     0.00 TOTAL CPU TIME=      16992.1 (    283.2 MIN)
 TOTAL WALL CLOCK TIME=      42014.5 SECONDS, CPU UTILIZATION IS    40.44%

 Total timing statistics in pairs (CPU,wall) for each rank, sec

    Rank   total     SCF    corr     DFT    CPHF     EFP    solv     ESP    geom
 -------------------------------------------------------------------------------
       1   16992.1   5018.4   6569.5      0.0    0.0   0.0  166.5  4886.4    0.0
       1   42014.6  10993.7  19782.9      0.0    0.0   0.0  478.5  9841.4    0.0
       2   16656.6   4935.5   6335.4      0.0    0.0   0.0  167.3  4880.0    0.0
       2   42014.6  10951.2  19789.1      0.0    0.0   0.0  478.6  9840.6    0.0
       3   16482.2   4951.3   6148.7      0.0    0.0   0.0  167.9  4872.6    0.0
       3   42014.6  10951.6  19789.1      0.0    0.0   0.0  478.5  9840.6    0.0
       4   16885.1   4975.8   6454.3      0.0    0.0   0.0  168.2  4941.5    0.0
       4   42014.6  10952.6  19789.1      0.0    0.0   0.0  477.4  9840.3    0.0
       5   16435.8   4991.8   5976.7      0.0    0.0   0.0  166.6  4961.1    0.0
       5   42014.6  10951.8  19789.1      0.0    0.0   0.0  478.1  9840.9    0.0
       6   16760.6   4924.2   6434.2      0.0    0.0   0.0  166.4  4903.7    0.0
       6   42014.6  10952.3  19789.1      0.0    0.0   0.0  477.0  9840.8    0.0
       7   16936.0   4968.3   6511.4      0.0    0.0   0.0  166.8  4948.9    0.0
       7   42014.6  10952.4  19789.1      0.0    0.0   0.0  477.0  9840.9    0.0
       8   17119.0   4949.4   6690.4      0.0    0.0   0.0  166.7  4976.5    0.0
       8   42014.6  10952.8  19789.2      0.0    0.0   0.0  476.3  9840.8    0.0
       9   16637.4   4930.6   6405.8      0.0    0.0   0.0  163.2  4799.6    0.0
       9   42014.6  10952.8  19789.1      0.0    0.0   0.0  476.7  9840.8    0.0
      10   16555.2   4974.2   6270.7      0.0    0.0   0.0  164.7  4813.2    0.0
      10   42014.6  10952.5  19789.1      0.0    0.0   0.0  477.0  9840.6    0.0
      11   16658.3   4952.4   6407.3      0.0    0.0   0.0  163.6  4801.1    0.0
      11   42014.6  10953.4  19789.1      0.0    0.0   0.0  476.4  9840.6    0.0
      12   16181.3   4948.2   5953.4      0.0    0.0   0.0  164.4  4788.0    0.0
      12   42014.6  10953.5  19789.0      0.0    0.0   0.0  475.6  9840.5    0.0
      13   16586.5   4951.5   6365.9      0.0    0.0   0.0  163.7  4776.6    0.0
      13   42014.6  10954.2  19789.0      0.0    0.0   0.0  476.2  9840.5    0.0
      14   16609.3   4970.2   6339.8      0.0    0.0   0.0  164.3  4809.1    0.0
      14   42014.6  10954.3  19789.0      0.0    0.0   0.0  475.4  9840.3    0.0
      15   16778.1   4982.7   6457.0      0.0    0.0   0.0  163.7  4847.3    0.0
      15   42014.6  10953.8  19789.0      0.0    0.0   0.0  475.7  9840.4    0.0
      16   16728.5   4918.1   6515.1      0.0    0.0   0.0  163.8  4806.0    0.0
      16   42014.6  10954.3  19789.0      0.0    0.0   0.0  474.6  9840.3    0.0
averaged   16687.6   4958.9   6364.7      0.0    0.0   0.0  165.5  4863.2    0.0
averaged   42014.6  10955.5  19788.7      0.0    0.0   0.0  476.8  9840.6    0.0

  FMO  timing statistics in pairs (CPU,wall) for each rank, sec

    Rank  FMOini FMOscf1  FMOdm1 FMOsyn1 FMOscf2  FMOes2 FMOsyn2 FMOscf3 FMOsyn3
 -------------------------------------------------------------------------------
       1    2.2    6531.3    0.3    0.0   10209.7     248.5    0.0    0.0    0.0
       1    5.7   13982.0    4.9    0.0   27536.6     485.0    0.0    0.0    0.0
       2    1.6    6478.1    0.1    0.0    9937.8     239.0    0.0    0.0    0.0
       2    5.7   13981.9    4.9    0.0   27538.4     483.2    0.0    0.0    0.0
       3    1.8    6544.4    0.2    0.0    9695.1     240.7    0.0    0.0    0.0
       3    5.7   13982.0    4.9    0.0   27537.8     483.8    0.0    0.0    0.0
       4    1.7    6604.0    0.1    0.0   10034.1     245.1    0.0    0.0    0.0
       4    5.7   13982.0    4.9    0.0   27538.2     483.4    0.0    0.0    0.0
       5    2.0    6599.6    0.2    0.0    9595.3     238.7    0.0    0.0    0.0
       5    5.7   13982.0    4.9    0.0   27538.2     483.4    0.0    0.0    0.0
       6    1.7    6546.0    0.1    0.0    9980.0     232.8    0.0    0.0    0.0
       6    5.7   13982.0    4.9    0.0   27537.6     484.0    0.0    0.0    0.0
       7    1.8    6564.4    0.1    0.0   10129.9     239.6    0.0    0.0    0.0
       7    5.7   13982.0    4.9    0.0   27537.7     483.9    0.0    0.0    0.0
       8    1.6    6587.8    0.1    0.0   10292.0     237.6    0.0    0.0    0.0
       8    5.7   13982.0    4.9    0.0   27537.2     484.4    0.0    0.0    0.0
       9    1.9    6468.2    0.3    0.0    9927.2     239.8    0.0    0.0    0.0
       9    5.7   13982.0    4.9    0.0   27538.0     483.6    0.0    0.0    0.0
      10    1.5    6440.7    0.1    0.0    9876.7     236.2    0.0    0.0    0.0
      10    5.7   13982.0    4.9    0.0   27537.7     483.9    0.0    0.0    0.0
      11    1.7    6491.1    0.2    0.0    9928.8     236.6    0.0    0.0    0.0
      11    5.7   13982.0    4.9    0.0   27537.1     484.5    0.0    0.0    0.0
      12    1.5    6470.6    0.1    0.0    9477.8     231.4    0.0    0.0    0.0
      12    5.7   13982.0    4.9    0.0   27538.2     483.4    0.0    0.0    0.0
      13    1.8    6431.5    0.2    0.0    9921.8     231.2    0.0    0.0    0.0
      13    5.7   13982.0    4.9    0.0   27539.2     482.4    0.0    0.0    0.0
      14    1.5    6483.2    0.1    0.0    9895.8     228.8    0.0    0.0    0.0
      14    5.7   13982.0    4.9    0.0   27538.0     483.6    0.0    0.0    0.0
      15    1.6    6505.8    0.1    0.0   10039.2     231.4    0.0    0.0    0.0
      15    5.7   13982.0    4.9    0.0   27539.3     482.2    0.0    0.0    0.0
      16    1.5    6492.5    0.1    0.0   10004.2     230.1    0.0    0.0    0.0
      16    5.7   13982.0    4.9    0.0   27538.5     483.0    0.0    0.0    0.0
averaged    1.7    6514.9    0.1    0.0    9934.1     236.7    0.0    0.0    0.0
averaged    5.7   13981.9    4.9    0.0   27538.0     483.6    0.0    0.0    0.0
             62710313  WORDS OF DYNAMIC MEMORY USED
 EXECUTION OF GAMESS TERMINATED NORMALLY Sun Dec  8 05:39:09 2019
 DDI: 263640 bytes (0.3 MB / 0 MWords) used by master data server.

 ----------------------------------------
 CPU timing information for all processes
 ========================================
 0: 16591.797 + 400.350 = 16992.147
 1: 16305.154 + 351.499 = 16656.653
 2: 16120.589 + 361.644 = 16482.234
 3: 16533.262 + 351.835 = 16885.97
 4: 16083.774 + 352.38 = 16435.813
 5: 16397.312 + 363.312 = 16760.625
 6: 16562.262 + 373.723 = 16935.986
 7: 16741.170 + 377.856 = 17119.27
 8: 16257.343 + 380.74 = 16637.417
 9: 16206.472 + 348.726 = 16555.199
 10: 16296.254 + 362.73 = 16658.328
 11: 15857.280 + 324.69 = 16181.350
 12: 16214.61 + 372.472 = 16586.533
 13: 16267.124 + 342.227 = 16609.352
 14: 16422.410 + 355.673 = 16778.83
 15: 16376.350 + 352.152 = 16728.503
 ----------------------------------------
 ddikick.x: exited gracefully.
unset echo
----- accounting info -----
Files used on the master node gollum054.lsa.umich.edu were:
-rw-r--r-- 1 hazwong frank    17627 Dec  7 17:58 /scratch/hazwong/826098/2LUB_2/usrc/2LUB_2_fmo_input.F05
-rw-r--r-- 1 hazwong frank      634 Dec  8 05:39 /scratch/hazwong/826098/2LUB_2/usrc/2LUB_2_fmo_input.F06.001
-rw-r--r-- 1 hazwong frank      634 Dec  8 05:39 /scratch/hazwong/826098/2LUB_2/usrc/2LUB_2_fmo_input.F06.002
-rw-r--r-- 1 hazwong frank      634 Dec  8 05:39 /scratch/hazwong/826098/2LUB_2/usrc/2LUB_2_fmo_input.F06.003
-rw-r--r-- 1 hazwong frank      634 Dec  8 05:39 /scratch/hazwong/826098/2LUB_2/usrc/2LUB_2_fmo_input.F06.004
-rw-r--r-- 1 hazwong frank      634 Dec  8 05:39 /scratch/hazwong/826098/2LUB_2/usrc/2LUB_2_fmo_input.F06.005
-rw-r--r-- 1 hazwong frank      634 Dec  8 05:39 /scratch/hazwong/826098/2LUB_2/usrc/2LUB_2_fmo_input.F06.006
-rw-r--r-- 1 hazwong frank      634 Dec  8 05:39 /scratch/hazwong/826098/2LUB_2/usrc/2LUB_2_fmo_input.F06.007
-rw-r--r-- 1 hazwong frank      634 Dec  8 05:39 /scratch/hazwong/826098/2LUB_2/usrc/2LUB_2_fmo_input.F06.008
-rw-r--r-- 1 hazwong frank      634 Dec  8 05:39 /scratch/hazwong/826098/2LUB_2/usrc/2LUB_2_fmo_input.F06.009
-rw-r--r-- 1 hazwong frank      634 Dec  8 05:39 /scratch/hazwong/826098/2LUB_2/usrc/2LUB_2_fmo_input.F06.010
-rw-r--r-- 1 hazwong frank      634 Dec  8 05:39 /scratch/hazwong/826098/2LUB_2/usrc/2LUB_2_fmo_input.F06.011
-rw-r--r-- 1 hazwong frank      634 Dec  8 05:39 /scratch/hazwong/826098/2LUB_2/usrc/2LUB_2_fmo_input.F06.012
-rw-r--r-- 1 hazwong frank      634 Dec  8 05:39 /scratch/hazwong/826098/2LUB_2/usrc/2LUB_2_fmo_input.F06.013
-rw-r--r-- 1 hazwong frank      634 Dec  8 05:39 /scratch/hazwong/826098/2LUB_2/usrc/2LUB_2_fmo_input.F06.014
-rw-r--r-- 1 hazwong frank      634 Dec  8 05:39 /scratch/hazwong/826098/2LUB_2/usrc/2LUB_2_fmo_input.F06.015
-rw-r--r-- 1 hazwong frank    10850 Dec  8 05:39 /scratch/hazwong/826098/2LUB_2/usrc/2LUB_2_fmo_input.F07
-rw-r--r-- 1 hazwong frank        0 Dec  7 17:58 /scratch/hazwong/826098/2LUB_2/usrc/2LUB_2_fmo_input.F07.001
-rw-r--r-- 1 hazwong frank        0 Dec  7 17:58 /scratch/hazwong/826098/2LUB_2/usrc/2LUB_2_fmo_input.F07.002
-rw-r--r-- 1 hazwong frank        0 Dec  7 17:58 /scratch/hazwong/826098/2LUB_2/usrc/2LUB_2_fmo_input.F07.003
-rw-r--r-- 1 hazwong frank        0 Dec  7 17:58 /scratch/hazwong/826098/2LUB_2/usrc/2LUB_2_fmo_input.F07.004
-rw-r--r-- 1 hazwong frank        0 Dec  7 17:58 /scratch/hazwong/826098/2LUB_2/usrc/2LUB_2_fmo_input.F07.005
-rw-r--r-- 1 hazwong frank        0 Dec  7 17:58 /scratch/hazwong/826098/2LUB_2/usrc/2LUB_2_fmo_input.F07.006
-rw-r--r-- 1 hazwong frank        0 Dec  7 17:58 /scratch/hazwong/826098/2LUB_2/usrc/2LUB_2_fmo_input.F07.007
-rw-r--r-- 1 hazwong frank        0 Dec  7 17:58 /scratch/hazwong/826098/2LUB_2/usrc/2LUB_2_fmo_input.F07.008
-rw-r--r-- 1 hazwong frank        0 Dec  7 17:58 /scratch/hazwong/826098/2LUB_2/usrc/2LUB_2_fmo_input.F07.009
-rw-r--r-- 1 hazwong frank        0 Dec  7 17:58 /scratch/hazwong/826098/2LUB_2/usrc/2LUB_2_fmo_input.F07.010
-rw-r--r-- 1 hazwong frank        0 Dec  7 17:58 /scratch/hazwong/826098/2LUB_2/usrc/2LUB_2_fmo_input.F07.011
-rw-r--r-- 1 hazwong frank        0 Dec  7 17:58 /scratch/hazwong/826098/2LUB_2/usrc/2LUB_2_fmo_input.F07.012
-rw-r--r-- 1 hazwong frank        0 Dec  7 17:58 /scratch/hazwong/826098/2LUB_2/usrc/2LUB_2_fmo_input.F07.013
-rw-r--r-- 1 hazwong frank        0 Dec  7 17:58 /scratch/hazwong/826098/2LUB_2/usrc/2LUB_2_fmo_input.F07.014
-rw-r--r-- 1 hazwong frank        0 Dec  7 17:58 /scratch/hazwong/826098/2LUB_2/usrc/2LUB_2_fmo_input.F07.015
-rw-r--r-- 1 hazwong frank    65440 Dec  8 05:39 /scratch/hazwong/826098/2LUB_2/usrc/2LUB_2_fmo_input.F10.000
-rw-r--r-- 1 hazwong frank        0 Dec  7 17:58 /scratch/hazwong/826098/2LUB_2/usrc/2LUB_2_fmo_input.F26.000
-rw-r--r-- 1 hazwong frank        0 Dec  7 17:58 /scratch/hazwong/826098/2LUB_2/usrc/2LUB_2_fmo_input.F26.001
-rw-r--r-- 1 hazwong frank        0 Dec  7 17:58 /scratch/hazwong/826098/2LUB_2/usrc/2LUB_2_fmo_input.F26.002
-rw-r--r-- 1 hazwong frank        0 Dec  7 17:58 /scratch/hazwong/826098/2LUB_2/usrc/2LUB_2_fmo_input.F26.003
-rw-r--r-- 1 hazwong frank        0 Dec  7 17:58 /scratch/hazwong/826098/2LUB_2/usrc/2LUB_2_fmo_input.F26.004
-rw-r--r-- 1 hazwong frank        0 Dec  7 17:58 /scratch/hazwong/826098/2LUB_2/usrc/2LUB_2_fmo_input.F26.005
-rw-r--r-- 1 hazwong frank        0 Dec  7 17:58 /scratch/hazwong/826098/2LUB_2/usrc/2LUB_2_fmo_input.F26.006
-rw-r--r-- 1 hazwong frank        0 Dec  7 17:58 /scratch/hazwong/826098/2LUB_2/usrc/2LUB_2_fmo_input.F26.007
-rw-r--r-- 1 hazwong frank        0 Dec  7 17:58 /scratch/hazwong/826098/2LUB_2/usrc/2LUB_2_fmo_input.F26.008
-rw-r--r-- 1 hazwong frank        0 Dec  7 17:58 /scratch/hazwong/826098/2LUB_2/usrc/2LUB_2_fmo_input.F26.009
-rw-r--r-- 1 hazwong frank        0 Dec  7 17:58 /scratch/hazwong/826098/2LUB_2/usrc/2LUB_2_fmo_input.F26.010
-rw-r--r-- 1 hazwong frank        0 Dec  7 17:58 /scratch/hazwong/826098/2LUB_2/usrc/2LUB_2_fmo_input.F26.011
-rw-r--r-- 1 hazwong frank        0 Dec  7 17:58 /scratch/hazwong/826098/2LUB_2/usrc/2LUB_2_fmo_input.F26.012
-rw-r--r-- 1 hazwong frank        0 Dec  7 17:58 /scratch/hazwong/826098/2LUB_2/usrc/2LUB_2_fmo_input.F26.013
-rw-r--r-- 1 hazwong frank        0 Dec  7 17:58 /scratch/hazwong/826098/2LUB_2/usrc/2LUB_2_fmo_input.F26.014
-rw-r--r-- 1 hazwong frank        0 Dec  7 17:58 /scratch/hazwong/826098/2LUB_2/usrc/2LUB_2_fmo_input.F26.015
-rw-r--r-- 1 hazwong frank        0 Dec  7 17:58 /scratch/hazwong/826098/2LUB_2/usrc/2LUB_2_fmo_input.F27.000
-rw-r--r-- 1 hazwong frank        0 Dec  7 17:58 /scratch/hazwong/826098/2LUB_2/usrc/2LUB_2_fmo_input.F27.001
-rw-r--r-- 1 hazwong frank        0 Dec  7 17:58 /scratch/hazwong/826098/2LUB_2/usrc/2LUB_2_fmo_input.F27.002
-rw-r--r-- 1 hazwong frank        0 Dec  7 17:58 /scratch/hazwong/826098/2LUB_2/usrc/2LUB_2_fmo_input.F27.003
-rw-r--r-- 1 hazwong frank        0 Dec  7 17:58 /scratch/hazwong/826098/2LUB_2/usrc/2LUB_2_fmo_input.F27.004
-rw-r--r-- 1 hazwong frank        0 Dec  7 17:58 /scratch/hazwong/826098/2LUB_2/usrc/2LUB_2_fmo_input.F27.005
-rw-r--r-- 1 hazwong frank        0 Dec  7 17:58 /scratch/hazwong/826098/2LUB_2/usrc/2LUB_2_fmo_input.F27.006
-rw-r--r-- 1 hazwong frank        0 Dec  7 17:58 /scratch/hazwong/826098/2LUB_2/usrc/2LUB_2_fmo_input.F27.007
-rw-r--r-- 1 hazwong frank        0 Dec  7 17:58 /scratch/hazwong/826098/2LUB_2/usrc/2LUB_2_fmo_input.F27.008
-rw-r--r-- 1 hazwong frank        0 Dec  7 17:58 /scratch/hazwong/826098/2LUB_2/usrc/2LUB_2_fmo_input.F27.009
-rw-r--r-- 1 hazwong frank        0 Dec  7 17:58 /scratch/hazwong/826098/2LUB_2/usrc/2LUB_2_fmo_input.F27.010
-rw-r--r-- 1 hazwong frank        0 Dec  7 17:58 /scratch/hazwong/826098/2LUB_2/usrc/2LUB_2_fmo_input.F27.011
-rw-r--r-- 1 hazwong frank        0 Dec  7 17:58 /scratch/hazwong/826098/2LUB_2/usrc/2LUB_2_fmo_input.F27.012
-rw-r--r-- 1 hazwong frank        0 Dec  7 17:58 /scratch/hazwong/826098/2LUB_2/usrc/2LUB_2_fmo_input.F27.013
-rw-r--r-- 1 hazwong frank        0 Dec  7 17:58 /scratch/hazwong/826098/2LUB_2/usrc/2LUB_2_fmo_input.F27.014
-rw-r--r-- 1 hazwong frank        0 Dec  7 17:58 /scratch/hazwong/826098/2LUB_2/usrc/2LUB_2_fmo_input.F27.015
-rw-r--r-- 1 hazwong frank 22495232 Dec  7 21:52 /scratch/hazwong/826098/2LUB_2/usrc/2LUB_2_fmo_input.F40.000
-rw-r--r-- 1 hazwong frank 22495232 Dec  7 21:52 /scratch/hazwong/826098/2LUB_2/usrc/2LUB_2_fmo_input.F40.001
-rw-r--r-- 1 hazwong frank 22495232 Dec  7 21:52 /scratch/hazwong/826098/2LUB_2/usrc/2LUB_2_fmo_input.F40.002
-rw-r--r-- 1 hazwong frank 22495232 Dec  7 21:52 /scratch/hazwong/826098/2LUB_2/usrc/2LUB_2_fmo_input.F40.003
-rw-r--r-- 1 hazwong frank 22495232 Dec  7 21:52 /scratch/hazwong/826098/2LUB_2/usrc/2LUB_2_fmo_input.F40.004
-rw-r--r-- 1 hazwong frank 22495232 Dec  7 21:52 /scratch/hazwong/826098/2LUB_2/usrc/2LUB_2_fmo_input.F40.005
-rw-r--r-- 1 hazwong frank 22495232 Dec  7 21:52 /scratch/hazwong/826098/2LUB_2/usrc/2LUB_2_fmo_input.F40.006
-rw-r--r-- 1 hazwong frank 22495232 Dec  7 21:52 /scratch/hazwong/826098/2LUB_2/usrc/2LUB_2_fmo_input.F40.007
-rw-r--r-- 1 hazwong frank 22495232 Dec  7 21:52 /scratch/hazwong/826098/2LUB_2/usrc/2LUB_2_fmo_input.F40.008
-rw-r--r-- 1 hazwong frank 22495232 Dec  7 21:52 /scratch/hazwong/826098/2LUB_2/usrc/2LUB_2_fmo_input.F40.009
-rw-r--r-- 1 hazwong frank 22495232 Dec  7 21:52 /scratch/hazwong/826098/2LUB_2/usrc/2LUB_2_fmo_input.F40.010
-rw-r--r-- 1 hazwong frank 22495232 Dec  7 21:52 /scratch/hazwong/826098/2LUB_2/usrc/2LUB_2_fmo_input.F40.011
-rw-r--r-- 1 hazwong frank 22495232 Dec  7 21:52 /scratch/hazwong/826098/2LUB_2/usrc/2LUB_2_fmo_input.F40.012
-rw-r--r-- 1 hazwong frank 22495232 Dec  7 21:52 /scratch/hazwong/826098/2LUB_2/usrc/2LUB_2_fmo_input.F40.013
-rw-r--r-- 1 hazwong frank 22495232 Dec  7 21:52 /scratch/hazwong/826098/2LUB_2/usrc/2LUB_2_fmo_input.F40.014
-rw-r--r-- 1 hazwong frank 22495232 Dec  7 21:52 /scratch/hazwong/826098/2LUB_2/usrc/2LUB_2_fmo_input.F40.015
ls: No match.
ls: No match.
ls: No match.
Sun Dec  8 05:39:13 EST 2019
0.175u 0.099s 11:40:18.18 0.0%	0+0k 1896+136io 24pf+0w
