‘2LBK_6_fmo_input.inp’ -> ‘/scratch/hazwong/820881/./2LBK_6_fmo_input.inp’
‘rungms’ -> ‘/scratch/hazwong/820881/./rungms’
‘gms-files.csh’ -> ‘/scratch/hazwong/820881/./gms-files.csh’
----- GAMESS execution script 'rungms' -----
This job is running on host gollum051.lsa.umich.edu
under operating system Linux at Fri Dec 6 09:47:18 EST 2019
Available scratch disk space (Kbyte units) at beginning of the job is
Filesystem     1K-blocks   Used Available Use% Mounted on
/dev/sda4      426933580 496756 426436824   1% /scratch
GAMESS temporary binary files will be written to /scratch/hazwong/820881/2LBK_6/usrc
GAMESS supplementary output files will be written to /scratch/hazwong/820881/2LBK_6/src
Copying input file 2LBK_6_fmo_input.inp to your run's scratch directory...
cp 2LBK_6_fmo_input.inp /scratch/hazwong/820881/2LBK_6/usrc/2LBK_6_fmo_input.F05
unset echo
This is a GDDI run, keeping various output files on local disks
setenv OUTPUT /scratch/hazwong/820881/2LBK_6/usrc/2LBK_6_fmo_input.F06
setenv PUNCH /scratch/hazwong/820881/2LBK_6/usrc/2LBK_6_fmo_input.F07
unset echo
 
Assuming a single but multicore node.
 
/export/apps/CentOS7/gamess/src/build//ddikick.x /export/apps/CentOS7/gamess/src/build//gamess.R3.x 2LBK_6_fmo_input -ddi 1 16 gollum051.lsa.umich.edu:cpus=16 -scr /scratch/hazwong/820881/2LBK_6/usrc

 Distributed Data Interface kickoff program.
 Initiating 16 compute processes on 1 nodes to run the following command:
 /export/apps/CentOS7/gamess/src/build//gamess.R3.x 2LBK_6_fmo_input 

          ******************************************************
          *         GAMESS VERSION = 30 SEP 2018 (R3)         *
          *             FROM IOWA STATE UNIVERSITY             *
          * M.W.SCHMIDT, K.K.BALDRIDGE, J.A.BOATZ, S.T.ELBERT, *
          *   M.S.GORDON, J.H.JENSEN, S.KOSEKI, N.MATSUNAGA,   *
          *          K.A.NGUYEN, S.J.SU, T.L.WINDUS,           *
          *       TOGETHER WITH M.DUPUIS, J.A.MONTGOMERY       *
          *         J.COMPUT.CHEM.  14, 1347-1363(1993)        *
          **************** 64 BIT LINUX VERSION ****************

  SINCE 1993, STUDENTS AND POSTDOCS WORKING AT IOWA STATE UNIVERSITY
  AND ALSO IN THEIR VARIOUS JOBS AFTER LEAVING ISU HAVE MADE IMPORTANT
  CONTRIBUTIONS TO THE CODE:
     IVANA ADAMOVIC, CHRISTINE AIKENS, YURI ALEXEEV, POOJA ARORA,
     ANDREY ASADCHEV, ROB BELL, PRADIPTA BANDYOPADHYAY, JONATHAN BENTZ,
     BRETT BODE, KURT BRORSEN, CALEB CARLIN, GALINA CHABAN, WEI CHEN,
     CHEOL HO CHOI, PAUL DAY, ALBERT DEFUSCO, NUWAN DESILVA, TIM DUDLEY,
     DMITRI FEDOROV, ALEX FINDLATER, GRAHAM FLETCHER, MARK FREITAG,
     KURT GLAESEMANN, ANASTASIA GUNINA,
     DAN KEMP, GRANT MERRILL, NORIYUKI MINEZAWA, JONATHAN MULLIN,
     TAKESHI NAGATA, SEAN NEDD, HEATHER NETZLOFF, BOSILJKA NJEGIC, RYAN OLSON,
     MIKE PAK, BUU PHAM,
     SPENCER PRUITT, LUKE ROSKOP, JIM SHOEMAKER, LYUDMILA SLIPCHENKO,
     TONY SMITH, SAROM SOK LEANG, JIE SONG, TETSUYA TAKETSUGU, SIMON WEBB,
     PENG XU, SOOHAENG YOO, FEDERICO ZAHARIEV

  ADDITIONAL CODE HAS BEEN PROVIDED BY COLLABORATORS IN OTHER GROUPS:
     IOWA STATE UNIVERSITY:
          JOE IVANIC, AARON WEST, LAIMUTIS BYTAUTAS, KLAUS RUEDENBERG
     UNIVERSITY OF TOKYO: KIMIHIKO HIRAO, TAKAHITO NAKAJIMA,
          TAKAO TSUNEDA, MUNEAKI KAMIYA, SUSUMU YANAGISAWA,
          KIYOSHI YAGI, MAHITO CHIBA, SEIKEN TOKURA, NAOAKI KAWAKAMI
     UNIVERSITY OF AARHUS: FRANK JENSEN
     UNIVERSITY OF IOWA: VISVALDAS KAIRYS, HUI LI
     NATIONAL INST. OF STANDARDS AND TECHNOLOGY: WALT STEVENS, DAVID GARMER
     UNIVERSITY OF PISA: BENEDETTA MENNUCCI, JACOPO TOMASI
     UNIVERSITY OF MEMPHIS: HENRY KURTZ, PRAKASHAN KORAMBATH
     UNIVERSITY OF ALBERTA: TOBY ZENG, MARIUSZ KLOBUKOWSKI
     UNIVERSITY OF NEW ENGLAND: MARK SPACKMAN
     MIE UNIVERSITY: HIROAKI UMEDA
     NAT. INST. OF ADVANCED INDUSTRIAL SCIENCE AND TECHNOLOGY: KAZUO KITAURA
     MICHIGAN STATE UNIVERSITY:
          KAROL KOWALSKI, MARTA WLOCH, JEFFREY GOUR, JESSE LUTZ,
          WEI LI, JUN SHEN, J. EMILIANO DEUSTUA, PIOTR PIECUCH
     UNIVERSITY OF MINNESOTA:
          YINAN SHU
     UNIVERSITY OF SILESIA: MONIKA MUSIAL, STANISLAW KUCHARSKI
     FACULTES UNIVERSITAIRES NOTRE-DAME DE LA PAIX:
          OLIVIER QUINET, BENOIT CHAMPAGNE
     UNIVERSITY OF CALIFORNIA - SANTA BARBARA: BERNARD KIRTMAN
     INSTITUTE FOR MOLECULAR SCIENCE:
          KAZUYA ISHIMURA, MICHIO KATOUDA, AND SHIGERU NAGASE
     UNIVERSITY OF NOTRE DAME: ANNA POMOGAEVA, DAN CHIPMAN
     KYUSHU UNIVERSITY:
          HARUYUKI NAKANO,
          FENG LONG GU, JACEK KORCHOWIEC, MARCIN MAKOWSKI, AND YURIKO AOKI,
          HIROTOSHI MORI AND EISAKU MIYOSHI
     PENNSYLVANIA STATE UNIVERSITY:
          TZVETELIN IORDANOV, CHET SWALINA, JONATHAN SKONE,
          SHARON HAMMES-SCHIFFER
     WASEDA UNIVERSITY:
          MASATO KOBAYASHI, TOMOKO AKAMA, TSUGUKI TOUMA,
          TAKESHI YOSHIKAWA, YASUHIRO IKABATA, JUNJI SEINO,
          YUYA NAKAJIMA, HIROMI NAKAI
     NANJING UNIVERSITY: SHUHUA LI
     UNIVERSITY OF NEBRASKA:
          PEIFENG SU, DEJUN SI, NANDUN THELLAMUREGE, YALI WANG, HUI LI
     UNIVERSITY OF ZURICH: ROBERTO PEVERATI, KIM BALDRIDGE
     N. COPERNICUS UNIVERSITY AND JACKSON STATE UNIVERSITY:
          MARIA BARYSZ
     UNIVERSITY OF COPENHAGEN: Jimmy Kromann, CASPER STEINMANN
     TOKYO INSTITUTE OF TECHNOLOGY: HIROYA NAKATA
     NAGOYA UNIVERSITY: YOSHIO NISHIMOTO, STEPHAN IRLE
     MOSCOW STATE UNIVERSITY: VLADIMIR MIRONOV


 PARALLEL VERSION RUNNING ON       16 PROCESSORS IN        1 NODES.

 EXECUTION OF GAMESS BEGUN Fri Dec  6 09:47:19 2019

            ECHO OF THE FIRST FEW INPUT CARDS -
 INPUT CARD>!*** FMO 5.3 (Gamess) INPUT generated by Facio 22.1.1.32 ***                    
 INPUT CARD> $CONTRL RUNTYP=ENERGY NPRINT=-5 ISPHER=1 MAXIT=200 $END                        
 INPUT CARD> $SYSTEM MWORDS=63 MEMDDI=63 $END                                               
 INPUT CARD> $GDDI NGROUP=1 $END                                                            
 INPUT CARD> $SCF DIRSCF=.TRUE. NPUNCH=0 $END                                               
 INPUT CARD>!*** NumCPU : 2  MemPerNode : 512MB                                             
 INPUT CARD> $PCM SOLVNT=WATER IEF=-10 ICOMP=2 ICAV=1 IDISP=1 IFMO=-1 $END                  
 INPUT CARD> $PCMCAV RADII=SUAHF $END                                                       
 INPUT CARD> $TESCAV NTSALL=60 $END                                                         
 INPUT CARD> $FMOPRP                                                                        
 INPUT CARD>    NAODIR=200                                                                  
 INPUT CARD>    NGRFMO(1)=1, 1, 0, 0, 0,   0, 0, 0, 0, 0                                    
 INPUT CARD>    IPIEDA=1                                                                    
 INPUT CARD>    NPRINT=9                                                                    
 INPUT CARD> $END                                                                           
 INPUT CARD> $FMO                                                                           
 INPUT CARD>      SCFTYP(1)=RHF                                                             
 INPUT CARD>      MODGRD=10                                                                 
 INPUT CARD>      MODMUL=0                                                                  
 INPUT CARD>      MAXCAO=5                                                                  
 INPUT CARD>      MAXBND=13                                                                 
 INPUT CARD>      NLAYER=1                                                                  
 INPUT CARD>      MPLEVL(1)=2                                                               
 INPUT CARD>      NFRAG=11                                                                  
 INPUT CARD>      ICHARG(1)=-1, -1, -1, -1, -1, -1, -1, -1, -1, -1, 0                       
 INPUT CARD>      FRGNAM(1)=F1, F2, F3, F4, F5, F6, F7, F8, F9, F10, F11                    
 INPUT CARD>      indat(1)=0                                                                
 INPUT CARD>               1   -35   0                                                      
 INPUT CARD>               36   -66   0                                                     
 INPUT CARD>               67   -97   0                                                     
 INPUT CARD>               98   -127   0                                                    
 INPUT CARD>               128   -157   0                                                   
 INPUT CARD>               158   -188   0                                                   
 INPUT CARD>               189   -219   0                                                   
 INPUT CARD>               220   -250   0                                                   
 INPUT CARD>               251   -284   0                                                   
 INPUT CARD>               285   -318   0                                                   
 INPUT CARD>               319   -345   0                                                   
 INPUT CARD> $END                                                                           
 INPUT CARD>                                                                                
 INPUT CARD> $FMOBND                                                                        
 INPUT CARD>   -36   35       6-31G*    MINI                                                
 INPUT CARD>   -67   66       6-31G*    MINI                                                
 INPUT CARD>   -98   97       6-31G*    MINI                                                
 INPUT CARD>   -128   127       6-31G*    MINI                                              
 INPUT CARD>   -158   157       6-31G*    MINI                                              
 INPUT CARD>   -189   188       6-31G*    MINI                                              
 INPUT CARD>   -220   219       6-31G*    MINI                                              
 INPUT CARD>   -251   250       6-31G*    MINI                                              
 INPUT CARD>   -285   284       6-31G*    MINI                                              


 -------------------------------------------------------------
 GROUP DDI, PROGRAMMED BY: RYAN M. OLSON AND DMITRI G. FEDOROV
        FEDOROV ET AL., J. COMPUT. CHEM., 25 (2004) 872.
 -------------------------------------------------------------

 -------------------------------------------------------
 GDDI: INITIALIZATION COMPLETED FOR GROUP     1 OF     1
 WITH    16 PROCESSES BALTYP=DLB   global rank=        0
 -------------------------------------------------------

   63000000 WORDS OF MEMORY AVAILABLE


     RUN TITLE
     ---------
  FMO calculation                                                                

 THE POINT GROUP OF THE MOLECULE IS C1      
 THE ORDER OF THE PRINCIPAL AXIS IS     0

 ATOM   ATOMIC CHARGE
 H.1-1       1.0
 O.1-1       8.0
 C.1-1       6.0
 N.1-1       7.0
 P.1-1      15.0

     ATOMIC BASIS SET LIBRARY
     ----------------
 THE CONTRACTED PRIMITIVE FUNCTIONS HAVE BEEN UNNORMALIZED
 THE CONTRACTED BASIS FUNCTIONS ARE NOW NORMALIZED TO UNITY

  SHELL TYPE  PRIMITIVE        EXPONENT          CONTRACTION COEFFICIENT(S)

 H.1-1     

      1   S       1            18.7311370    0.033494604338
      1   S       2             2.8253944    0.234726953484
      1   S       3             0.6401217    0.813757326146

      2   S       4             0.1612778    1.000000000000

 O.1-1     

      3   S       5          5484.6716600    0.001831074430
      3   S       6           825.2349460    0.013950172200
      3   S       7           188.0469580    0.068445078098
      3   S       8            52.9645000    0.232714335992
      3   S       9            16.8975704    0.470192897984
      3   S      10             5.7996353    0.358520852987

      4   L      11            15.5396162   -0.110777549525    0.070874268231
      4   L      12             3.5999336   -0.148026262701    0.339752839147
      4   L      13             1.0137618    1.130767015354    0.727158577316

      5   L      14             0.2700058    1.000000000000    1.000000000000

      6   D      15             0.8000000    1.000000000000

 C.1-1     

      7   S      16          3047.5248800    0.001834737132
      7   S      17           457.3695180    0.014037322813
      7   S      18           103.9486850    0.068842622264
      7   S      19            29.2101553    0.232184443216
      7   S      20             9.2866630    0.467941348435
      7   S      21             3.1639270    0.362311985337

      8   L      22             7.8682723   -0.119332419775    0.068999066591
      8   L      23             1.8812885   -0.160854151696    0.316423960957
      8   L      24             0.5442493    1.143456437840    0.744308290898

      9   L      25             0.1687145    1.000000000000    1.000000000000

     10   D      26             0.8000000    1.000000000000

 N.1-1     

     11   S      27          4173.5114600    0.001834772160
     11   S      28           627.4579110    0.013994627002
     11   S      29           142.9020930    0.068586551812
     11   S      30            40.2343293    0.232240873040
     11   S      31            12.8202129    0.469069948082
     11   S      32             4.3904370    0.360455199063

     12   L      33            11.6263619   -0.114961181702    0.067579743878
     12   L      34             2.7162798   -0.169117478561    0.323907295893
     12   L      35             0.7722184    1.145851947027    0.740895139755

     13   L      36             0.2120315    1.000000000000    1.000000000000

     14   D      37             0.8000000    1.000000000000

 P.1-1     

     15   S      38         19413.3000000    0.001851598923
     15   S      39          2909.4200000    0.014206191735
     15   S      40           661.3640000    0.069999459277
     15   S      41           185.7590000    0.240078860331
     15   S      42            59.1943000    0.484761717984
     15   S      43            20.0310000    0.335199804993

     16   L      44           339.4780000   -0.002782170105    0.004564616191
     16   L      45            81.0101000   -0.036049901354    0.033693571881
     16   L      46            25.8780000   -0.116631004382    0.139754883368
     16   L      47             9.4522100    0.096832803638    0.339361716786
     16   L      48             3.6656600    0.614418023082    0.450920623685
     16   L      49             1.4674600    0.403798015170    0.238585800889

     17   L      50             2.1562300   -0.252924113863   -0.017765312733
     17   L      51             0.7489970    0.032851844678    0.274058196433
     17   L      52             0.2831450    1.081254761783    0.785421562957

     18   L      53             0.0998317    1.000000000000    1.000000000000

     19   D      54             0.5500000    1.000000000000

 TOTAL NUMBER OF BASIS SET SHELLS             =   19
 NUMBER OF CARTESIAN GAUSSIAN BASIS FUNCTIONS =   66

     $CONTRL OPTIONS
     ---------------
 SCFTYP=RHF          RUNTYP=ENERGY       EXETYP=RUN     
 MPLEVL=       0     CITYP =NONE         CCTYP =NONE         VBTYP =NONE    
 DFTTYP=NONE         TDDFT =NONE    
 MULT  =       1     ICHARG=       0     NZVAR =       0     COORD =UNIQUE  
 PP    =NONE         RELWFN=NONE         LOCAL =NONE         NUMGRD=       F
 ISPHER=       1     NOSYM =       0     MAXIT =     200     UNITS =ANGS    
 PLTORB=       F     MOLPLT=       F     AIMPAC=       F     FRIEND=        
 NPRINT=      -5     IREST =       0     GEOM  =INPUT   
 NORMF =       0     NORMP =       0     ITOL  =      24     ICUT  =      12
 INTTYP=BEST         GRDTYP=BEST         QMTTOL= 1.0E-06

     $SYSTEM OPTIONS
     ---------------
  REPLICATED MEMORY=    63000000 WORDS (ON EVERY NODE).
 DISTRIBUTED MEMDDI=          63 MILLION WORDS IN AGGREGATE,
 MEMDDI DISTRIBUTED OVER  16 PROCESSORS IS     3937500 WORDS/PROCESSOR.
 TOTAL MEMORY REQUESTED ON EACH PROCESSOR=    66937500 WORDS.
 TIMLIM=      525600.00 MINUTES, OR     365.0 DAYS.
 PARALL= T  BALTYP=  DLB     KDIAG=    0  COREFL= F
 MXSEQ2=     300 MXSEQ3=     150  mem10=         0

 ** LOOKING UP INTERNALLY STORED DATA FOR SOLVENT=WATER    **
 OPTICAL AND PHYSICAL CONSTANTS:
 EPS= 78.390; EPSINF=  1.776; RSOLV=  1.385 A; VMOL=  18.070 ML/MOL;
 TCE= .25700E-03 1/K; STEN= 71.810 DYN/CM;  DSTEN=  0.6500; CMF=  1.2770


     -----------------------------------
     INPUT FOR PCM SOLVATION CALCULATION 
     -----------------------------------
     IEF   =     -10
     ICOMP =       2     IFIELD=       0     ICAV  =       1
     IDISP =       1     IREP  =       0     IDP   =       0

     SOLVNT=WATER        EPS   = 78.3900     EPSINF=  1.7760
     VMOL  = 18.0700     TCE   =  0.00025700 STEN  = 71.8100
     DSTEN =  0.6500     CMF   =  1.2770     RSOLV =  1.3850

     NESFP =       0
     OMEGA = 40.0000     RET   =100.0000     FRO   =  0.7000

     TABS  =298.0000     IPRINT=       0

     --------------------------------
     INPUT FOR ITERATIVE C-PCM METHOD 
     --------------------------------
     IPCMIT  =         1     MXDIIS  =        50
     MXITR1  =       200     MXITR2  =       200
     THRES   = 0.100E-09     IMUL    =         3
     RCUT(1) =   20.0000     RCUT(2) =   50.0000

     IDIRCT  =         1
     IMGABI  =         0     RABI    =    4.0000
     IMGASC  =         0     RASC    =   20.0000
     THRSLS  = 0.500E-03     DENSLS  =    0.0100
     IEFPOL  =         1     REFPOL  =    0.0000

     INPUT FOR ISOTROPIC DIELECTRICS
     -------------------------------
     EPS=    78.39

          ----------------
          PROPERTIES INPUT
          ----------------

     MOMENTS            FIELD           POTENTIAL          DENSITY
 IEMOM =       1   IEFLD =       0   IEPOT =       0   IEDEN =       0
 WHERE =COMASS     WHERE =NUCLEI     WHERE =NUCLEI     WHERE =NUCLEI  
 OUTPUT=BOTH       OUTPUT=BOTH       OUTPUT=NONE       OUTPUT=BOTH    
 IEMINT=       0   IEFINT=       0                     IEDINT=       0
                                                       MORB  =       0
          EXTRAPOLATION IN EFFECT
          SOSCF IN EFFECT
 ORBITAL PRINTING OPTION: NPREO=     1 32767     2     1

     -------------------------------
     INTEGRAL TRANSFORMATION OPTIONS
     -------------------------------
     NWORD  =            0
     CUTOFF = 1.0E-10     MPTRAN =       0
     DIRTRF =       T     AOINTS =DUP     

          ----------------------
          INTEGRAL INPUT OPTIONS
          ----------------------
 NOPK  =       1 NORDER=       0 SCHWRZ=       T

 ..... DONE SETTING UP THE RUN .....
 CPU     0: STEP CPU TIME=     0.03 TOTAL CPU TIME=          0.0 (      0.0 MIN)
 TOTAL WALL CLOCK TIME=          0.1 SECONDS, CPU UTILIZATION IS    50.00%
 CPU     0: STEP CPU TIME=     0.00 TOTAL CPU TIME=          0.0 (      0.0 MIN)
 TOTAL WALL CLOCK TIME=          0.1 SECONDS, CPU UTILIZATION IS    50.00%

                    ----------------------
                    AO INTEGRAL TECHNOLOGY
                    ----------------------
     S,P,L SHELL ROTATED AXIS INTEGRALS, REPROGRAMMED BY
        KAZUYA ISHIMURA (IMS) AND JOSE SIERRA (SYNSTAR).
     S,P,D,L SHELL ROTATED AXIS INTEGRALS PROGRAMMED BY
        KAZUYA ISHIMURA (INSTITUTE FOR MOLECULAR SCIENCE).
     S,P,D,F,G SHELL TO TOTAL QUARTET ANGULAR MOMENTUM SUM 5,
        ERIC PROGRAM BY GRAHAM FLETCHER (ELORET AND NASA ADVANCED
        SUPERCOMPUTING DIVISION, AMES RESEARCH CENTER).
     S,P,D,F,G,L SHELL GENERAL RYS QUADRATURE PROGRAMMED BY
        MICHEL DUPUIS (PACIFIC NORTHWEST NATIONAL LABORATORY).
 Setting modorb=1 flag...
 Setting modorb=1 flag...

          -----------------------
          MP2 CONTROL INFORMATION
          -----------------------
          NACORE =        8  NBCORE =        8
          LMOMP2 =        F  AOINTS = DUP     
          METHOD =        2  NWORD  =               0
          MP2PRP =        F  OSPT   = NONE    
          CUTOFF = 1.00E-12  CPHFBS = BASISAO 
          CODE   = IMS     

          NUMBER OF CORE -A-  ORBITALS =     8
          NUMBER OF CORE -B-  ORBITALS =     8
          NUMBER OF OCC. -A-  ORBITALS =    18
          NUMBER OF OCC. -B-  ORBITALS =    18
          NUMBER OF MOLECULAR ORBITALS =    66
          NUMBER OF   BASIS  FUNCTIONS =    66

 CPU     0: STEP CPU TIME=     0.04 TOTAL CPU TIME=          0.1 (      0.0 MIN)
 TOTAL WALL CLOCK TIME=          0.1 SECONDS, CPU UTILIZATION IS    70.00%
 CPU     0: STEP CPU TIME=     0.00 TOTAL CPU TIME=          0.1 (      0.0 MIN)
 TOTAL WALL CLOCK TIME=          0.1 SECONDS, CPU UTILIZATION IS    70.00%

     INPUT FOR CAVITY DEFINITION 
     ---------------------------
   ATOM               COORDINATES                RADIUS       EPS
      1     10.8710     -0.0750     11.4910      0.0100     78.3900
      2     10.1220     -0.2510     10.8910      1.5900     78.3900
      3      8.9260     -0.1740     11.6800      1.7700     78.3900
      4      8.8930      0.8170     12.1870      0.0100     78.3900
      5      8.9620     -0.9600     12.4660      0.0100     78.3900
      6      7.6270     -0.3610     10.8770      1.7700     78.3900
      7      6.7490     -0.0310     11.4750      0.0100     78.3900
      8      7.6440      0.4270      9.6500      1.5900     78.3900
      9      7.1070     -0.3470      8.5930      1.7700     78.3900
     10      6.2850      0.2590      8.1450      0.0100     78.3900
     11      8.1170     -0.6250      7.5700      1.6800     78.3900
     12      9.0920     -1.1330      5.6710      1.7700     78.3900
     13     10.1180     -0.8700      6.5690      1.6800     78.3900
     14      9.4870     -0.5750      7.6800      1.7700     78.3900
     15      9.9700     -0.2880      8.6140      0.0100     78.3900
     16      7.8820     -1.6490      3.7000      1.6800     78.3900
     17      6.7760     -1.4880      4.4280      1.7700     78.3900
     18      5.8360     -1.6410      3.8900      0.0100     78.3900
     19      6.6510     -1.1500      5.7120      1.6800     78.3900
     20      7.8570     -0.9860      6.2780      1.7700     78.3900
     21      9.0900     -1.4840      4.3070      1.7700     78.3900
     22     10.2150     -1.6480      3.5900      1.6800     78.3900
     23     11.1290     -1.4430      3.9460      0.0100     78.3900
     24     10.0980     -1.9200      2.6300      0.0100     78.3900
     25      6.5270     -1.6150      9.1820      1.7700     78.3900
     26      6.6320     -2.4860      8.4980      0.0100     78.3900
     27      5.1630     -1.4330      9.5030      1.5900     78.3900
     28      4.8660     -2.2890      9.8410      0.0100     78.3900
     29      7.3740     -1.8070     10.4380      1.7700     78.3900
     30      8.3670     -2.2390     10.1800      0.0100     78.3900
     31      6.7340     -2.5130     11.5170      1.5900     78.3900
     32      6.6320     -4.0780     11.5690      2.1000     78.3900
     33      5.8380     -4.4490     12.7600      1.5900     78.3900
     34      8.0010     -4.6310     11.4730      1.5900     78.3900
     35      5.8350     -4.4800     10.2760      1.5900     78.3900
     36      4.3940     -4.5190     10.1930      1.7700     78.3900
     37      3.9490     -3.5460     10.4960      0.0100     78.3900
     38      3.9870     -5.2980     10.8790      0.0100     78.3900
     39      3.9030     -4.8380      8.7640      1.7700     78.3900
     40      2.8220     -4.5950      8.6550      0.0100     78.3900
     41      4.6210     -4.0500      7.7790      1.5900     78.3900
     42      4.8930     -4.8420      6.6360      1.7700     78.3900
     43      4.3990     -4.3060      5.7920      0.0100     78.3900
     44      6.3520     -4.9650      6.3650      1.6800     78.3900
     45      7.2450     -4.9980      7.4040      1.7700     78.3900
     46      6.8200     -4.9100      8.3960      0.0100     78.3900
     47      8.5620     -5.1000      7.1990      1.7700     78.3900
     48      9.2770     -5.1140      8.0200      0.0100     78.3900
     49      6.8140     -5.0920      5.0620      1.7700     78.3900
     50      5.9880     -5.0840      4.1380      1.5900     78.3900
     51      8.1460     -5.2250      4.8250      1.6800     78.3900
     52      9.0150     -5.2170      5.8550      1.7700     78.3900
     53     10.3240     -5.3270      5.6210      1.6800     78.3900
     54     10.6830     -5.3940      4.6950      0.0100     78.3900
     55     10.9820     -5.3310      6.3770      0.0100     78.3900
     56      4.2160     -6.1930      6.8190      1.7700     78.3900
     57      4.8310     -7.0220      6.4120      0.0100     78.3900
     58      2.9410     -6.2160      6.2050      1.5900     78.3900
     59      2.5940     -7.1170      6.3130      0.0100     78.3900
     60      4.1120     -6.2960      8.3420      1.7700     78.3900
     61      5.0900     -6.6100      8.7750      0.0100     78.3900
     62      3.0140     -7.0820      8.8450      1.5900     78.3900
     63      3.0700     -8.6470      8.8590      2.1000     78.3900
     64      1.8960     -9.1460      9.6070      1.5900     78.3900
     65      4.4060     -9.0640      9.3260      1.5900     78.3900
     66      2.9310     -9.0380      7.3450      1.5900     78.3900
     67      1.6720     -9.2880      6.6890      1.7700     78.3900
     68      1.0710     -8.3500      6.6330      0.0100     78.3900
     69      1.0840    -10.0370      7.2620      0.0100     78.3900
     70      1.8330     -9.8260      5.2450      1.7700     78.3900
     71      0.8490     -9.8120      4.7290      0.0100     78.3900
     72      2.7210     -8.9620      4.4780      1.5900     78.3900
     73      3.5660     -9.7540      3.6480      1.7700     78.3900
     74      3.3880     -9.3870      2.6100      0.0100     78.3900
     75      5.0040     -9.5820      3.9890      1.6800     78.3900
     76      5.3530     -9.4080      5.3040      1.7700     78.3900
     77      4.5350     -9.4010      6.0040      0.0100     78.3900
     78      6.6170     -9.2180      5.6850      1.7700     78.3900
     79      6.8950     -9.0430      6.7230      0.0100     78.3900
     80      6.0030     -9.6660      3.0240      1.7700     78.3900
     81      5.6920     -9.9100      1.8460      1.5900     78.3900
     82      7.2890     -9.4750      3.3850      1.6800     78.3900
     83      7.6080     -9.2390      4.6720      1.7700     78.3900
     84      8.8750     -9.0340      4.9980      1.6800     78.3900
     85      9.5360     -9.1950      4.2580      0.0100     78.3900
     86      9.1930     -9.0100      5.9470      0.0100     78.3900
     87      3.1080    -11.2020      3.7340      1.7700     78.3900
     88      3.9580    -11.9160      3.7040      0.0100     78.3900
     89      2.2130    -11.5000      2.6800      1.5900     78.3900
     90      1.8590    -12.3830      2.8610      0.0100     78.3900
     91      2.4110    -11.2480      5.0930      1.7700     78.3900
     92      3.1750    -11.3530      5.8950      0.0100     78.3900
     93      1.3520    -12.2320      5.1800      1.5900     78.3900
     94      1.5360    -13.5740      5.9700      2.1000     78.3900
     95      0.2250    -14.2560      6.0500      1.5900     78.3900
     96      2.2190    -13.2790      7.2480      1.5900     78.3900
     97      2.5090    -14.4350      5.0870      1.5900     78.3900
     98      2.0690    -15.2170      3.9560      1.7700     78.3900
     99      1.3180    -14.6590      3.3520      0.0100     78.3900
    100      1.5960    -16.1600      4.3130      0.0100     78.3900
    101      3.2150    -15.6080      2.9970      1.7700     78.3900
    102      2.8010    -15.9980      2.0440      0.0100     78.3900
    103      4.0260    -14.4490      2.6710      1.5900     78.3900
    104      5.3910    -14.8200      2.5870      1.7700     78.3900
    105      5.7080    -14.5360      1.5530      0.0100     78.3900
    106      6.2090    -14.1070      3.6090      1.6800     78.3900
    107      5.6610    -13.7290      4.8080      1.7700     78.3900
    108      4.6190    -13.9860      4.9380      0.0100     78.3900
    109      7.5140    -13.8090      3.3140      1.7700     78.3900
    110      8.0180    -14.1060      2.2380      1.5900     78.3900
    111      8.2050    -13.1510      4.3060      1.6800     78.3900
    112      9.1650    -12.9300      4.1130      0.0100     78.3900
    113      7.7070    -12.7200      5.5180      1.7700     78.3900
    114      8.4250    -12.1040      6.3020      1.5900     78.3900
    115      6.3340    -13.0460      5.7390      1.7700     78.3900
    116      5.8610    -12.7270      6.6640      0.0100     78.3900
    117      5.4730    -16.3340      2.7300      1.7700     78.3900
    118      6.3760    -16.6510      3.2940      0.0100     78.3900
    119      5.4690    -16.9600      1.4590      1.5900     78.3900
    120      5.4480    -17.9100      1.6340      0.0100     78.3900
    121      4.2040    -16.6600      3.5170      1.7700     78.3900
    122      4.3580    -16.4340      4.5990      0.0100     78.3900
    123      3.6740    -17.9820      3.2700      1.5900     78.3900
    124      3.8230    -19.1400      4.3140      2.1000     78.3900
    125      2.9270    -20.2550      3.9410      1.5900     78.3900
    126      3.6900    -18.5850      5.6750      1.5900     78.3900
    127      5.2930    -19.6300      4.1070      1.5900     78.3900
    128      5.7750    -20.2270      2.8880      1.7700     78.3900
    129      5.3800    -19.7140      1.9790      0.0100     78.3900
    130      5.4470    -21.2910      2.8400      0.0100     78.3900
    131      7.3110    -20.2010      2.8220      1.7700     78.3900
    132      7.6730    -20.6480      1.8690      0.0100     78.3900
    133      7.8020    -18.8230      2.8570      1.5900     78.3900
    134      8.9840    -18.7690      3.6520      1.7700     78.3900
    135      9.7830    -18.3320      3.0120      0.0100     78.3900
    136      8.7940    -17.9200      4.8750      1.6800     78.3900
    137      7.5610    -17.8530      5.4690      1.7700     78.3900
    138      6.7930    -18.4020      4.9570      0.0100     78.3900
    139      9.8300    -17.1460      5.3560      1.7700     78.3900
    140     10.9320    -17.1020      4.8290      1.5900     78.3900
    141      9.5310    -16.3840      6.4590      1.6800     78.3900
    142     10.3120    -15.8870      6.8610      0.0100     78.3900
    143      8.3140    -16.2760      7.0960      1.7700     78.3900
    144      8.1760    -15.5200      8.0550      1.5900     78.3900
    145      7.2810    -17.0760      6.5210      1.7700     78.3900
    146      6.2760    -17.0140      6.9300      0.0100     78.3900
    147      9.3640    -20.2130      3.9560      1.7700     78.3900
    148      9.9260    -20.3120      4.9090      0.0100     78.3900
    149     10.0960    -20.7640      2.8830      1.5900     78.3900
    150     10.3170    -21.6600      3.1640      0.0100     78.3900
    151      8.0210    -20.9080      3.9910      1.7700     78.3900
    152      7.4680    -20.6550      4.9210      0.0100     78.3900
    153      8.0610    -22.3380      3.7520      1.5900     78.3900
    154      8.7150    -23.2980      4.8160      2.1000     78.3900
    155      8.0010    -24.5870      4.7010      1.5900     78.3900
    156      8.7040    -22.6500      6.1460      1.5900     78.3900
    157     10.2010    -23.4660      4.3020      1.5900     78.3900
    158     11.3500    -23.3620      5.1760      1.7700     78.3900
    159     11.3490    -24.2240      5.8860      0.0100     78.3900
    160     11.3110    -22.4200      5.7800      0.0100     78.3900
    161     12.7100    -23.3540      4.4140      1.7700     78.3900
    162     13.5430    -23.6360      5.0910      0.0100     78.3900
    163     12.7090    -24.2940      3.2920      1.5900     78.3900
    164     13.3070    -23.6840      2.1430      1.7700     78.3900
    165     14.1580    -24.3510      1.8740      0.0100     78.3900
    166     12.3670    -23.5940      0.9870      1.6800     78.3900
    167     11.0280    -23.4240      1.2220      1.7700     78.3900
    168     10.7390    -23.3760      2.2550      0.0100     78.3900
    169     10.1340    -23.3360      0.2340      1.7700     78.3900
    170      9.0690    -23.2090      0.4230      0.0100     78.3900
    171     12.8240    -23.6640     -0.3270      1.7700     78.3900
    172     14.0380    -23.8230     -0.5330      1.5900     78.3900
    173     11.9360    -23.5730     -1.3510      1.6800     78.3900
    174     10.6210    -23.4240     -1.0960      1.7700     78.3900
    175      9.7590    -23.3510     -2.1080      1.6800     78.3900
    176     10.0990    -23.4540     -3.0460      0.0100     78.3900
    177      8.7750    -23.2410     -1.9620      0.0100     78.3900
    178     13.8740    -22.3270      2.5440      1.7700     78.3900
    179     13.6990    -21.5510      1.7650      0.0100     78.3900
    180     15.2570    -22.4040      2.8260      1.5900     78.3900
    181     15.5200    -21.5620      3.2280      0.0100     78.3900
    182     13.0610    -21.9980      3.7870      1.7700     78.3900
    183     12.0950    -21.6020      3.4440      0.0100     78.3900
    184     13.7120    -21.1390      4.7540      1.5900     78.3900
    185     13.4730    -19.5820      4.6680      2.1000     78.3900
    186     13.4610    -19.0520      6.0470      1.5900     78.3900
    187     12.3060    -19.3450      3.8160      1.5900     78.3900
    188     14.7410    -19.0530      3.9170      1.5900     78.3900
    189     16.0310    -19.0140      4.5510      1.7700     78.3900
    190     16.3170    -20.0310      4.9130      0.0100     78.3900
    191     16.0240    -18.3110      5.4240      0.0100     78.3900
    192     17.1060    -18.5540      3.5600      1.7700     78.3900
    193     18.1190    -18.6310      4.0050      0.0100     78.3900
    194     17.0790    -19.4090      2.3710      1.5900     78.3900
    195     17.2990    -18.6140      1.2140      1.7700     78.3900
    196     18.1680    -19.0650      0.6780      0.0100     78.3900
    197     16.1210    -18.5640      0.2840      1.6800     78.3900
    198     14.9230    -19.1210      0.6540      1.7700     78.3900
    199     14.8560    -19.4950      1.6750      0.0100     78.3900
    200     13.8750    -19.1450     -0.1770      1.7700     78.3900
    201     12.9270    -19.5920      0.1040      0.0100     78.3900
    202     16.2540    -18.0380     -1.0020      1.7700     78.3900
    203     17.3690    -17.6410     -1.3730      1.5900     78.3900
    204     15.1910    -18.0190     -1.8520      1.6800     78.3900
    205     14.0260    -18.5710     -1.4690      1.7700     78.3900
    206     12.9990    -18.5910     -2.3190      1.6800     78.3900
    207     13.1060    -18.1760     -3.2230      0.0100     78.3900
    208     12.1030    -18.9500     -2.0620      0.0100     78.3900
    209     17.6940    -17.2440      1.7190      1.7700     78.3900
    210     17.3650    -16.4900      1.0290      0.0100     78.3900
    211     19.0950    -17.1170      1.8780      1.5900     78.3900
    212     19.2520    -16.2600      2.2970      0.0100     78.3900
    213     16.9420    -17.1220      3.0320      1.7700     78.3900
    214     15.8550    -16.9460      2.8630      0.0100     78.3900
    215     17.5230    -16.1810      3.9520      1.5900     78.3900
    216     17.1330    -14.6610      4.0340      2.1000     78.3900
    217     18.2960    -13.9280      4.5830      1.5900     78.3900
    218     15.8630    -14.5570      4.7820      1.5900     78.3900
    219     16.8790    -14.1620      2.5600      1.5900     78.3900
    220     17.9520    -13.8160      1.6530      1.7700     78.3900
    221     18.8010    -14.5280      1.7370      0.0100     78.3900
    222     18.3450    -12.8050      1.8960      0.0100     78.3900
    223     17.5120    -13.7890      0.1740      1.7700     78.3900
    224     18.3810    -13.8720     -0.5120      0.0100     78.3900
    225     16.6160    -14.8900     -0.1180      1.5900     78.3900
    226     15.5540    -14.5000     -0.9190      1.7700     78.3900
    227     15.5820    -15.1870     -1.7950      0.0100     78.3900
    228     14.2200    -14.6250     -0.2630      1.6800     78.3900
    229     14.1290    -14.8480      1.0890      1.7700     78.3900
    230     15.0700    -14.9980      1.6110      0.0100     78.3900
    231     12.9470    -14.9410      1.7020      1.7700     78.3900
    232     12.8530    -15.1250      2.7710      0.0100     78.3900
    233     13.0570    -14.5580     -1.0240      1.7700     78.3900
    234     13.1600    -14.4250     -2.2550      1.5900     78.3900
    235     11.8420    -14.6550     -0.4310      1.6800     78.3900
    236     11.7770    -14.8400      0.9020      1.7700     78.3900
    237     10.5980    -14.9740      1.4900      1.6800     78.3900
    238      9.7620    -14.8730      0.9550      0.0100     78.3900
    239     10.5100    -15.2350      2.4460      0.0100     78.3900
    240     15.8750    -13.1020     -1.3400      1.7700     78.3900
    241     14.9730    -12.4880     -1.3320      0.0100     78.3900
    242     16.5440    -13.1260     -2.5920      1.5900     78.3900
    243     15.9060    -13.3980     -3.2690      0.0100     78.3900
    244     16.7250    -12.5540     -0.2040      1.7700     78.3900
    245     16.0880    -12.3010      0.6740      0.0100     78.3900
    246     17.6150    -11.4760     -0.5560      1.5900     78.3900
    247     17.1120     -9.9910     -0.7140      2.1000     78.3900
    248     18.1590     -9.2250     -1.4270      1.5900     78.3900
    249     16.7560     -9.4990      0.6340      1.5900     78.3900
    250     15.8090    -10.0040     -1.5980      1.5900     78.3900
    251     15.8250    -10.1530     -3.0350      1.7700     78.3900
    252     16.6130    -10.8650     -3.3630      0.0100     78.3900
    253     16.0700     -9.1760     -3.4950      0.0100     78.3900
    254     14.4690    -10.6060     -3.6470      1.7700     78.3900
    255     14.6320    -11.0810     -4.6410      0.0100     78.3900
    256     13.7730    -11.5730     -2.8240      1.5900     78.3900
    257     12.4190    -11.2400     -2.6340      1.7700     78.3900
    258     11.8300    -12.1600     -2.8520      0.0100     78.3900
    259     12.1320    -10.8180     -1.2450      1.6800     78.3900
    260     10.8960    -10.6630     -0.6650      1.7700     78.3900
    261      7.4320    -10.8250     -0.8200      1.6800     78.3900
    262      7.2710    -11.1410     -1.7540      0.0100     78.3900
    263      6.6570    -10.6620     -0.2150      0.0100     78.3900
    264      9.7030    -10.8800     -1.2520      1.6800     78.3900
    265      8.6810    -10.6600     -0.4190      1.7700     78.3900
    266      8.8440    -10.2560      0.8850      1.6800     78.3900
    267      8.0290    -10.0840      1.4520      0.0100     78.3900
    268     10.0670    -10.0200      1.5050      1.7700     78.3900
    269     10.1870     -9.6570      2.6790      1.5900     78.3900
    270     11.1500    -10.2630      0.6340      1.7700     78.3900
    271     12.5110    -10.1830      0.8760      1.6800     78.3900
    272     13.0490    -10.5320     -0.2600      1.7700     78.3900
    273     14.1140    -10.6300     -0.4210      0.0100     78.3900
    274     12.1130    -10.1760     -3.6420      1.7700     78.3900
    275     11.3590     -9.4680     -3.2530      0.0100     78.3900
    276     11.6710    -10.7650     -4.8510      1.5900     78.3900
    277     11.7420    -10.0770     -5.5260      0.0100     78.3900
    278     13.4630     -9.4800     -3.8120      1.7700     78.3900
    279     13.6380     -8.7810     -2.9600      0.0100     78.3900
    280     13.6510     -8.8810     -5.1030      1.5900     78.3900
    281     13.7850     -7.3400     -5.2950      2.1000     78.3900
    282     13.9350     -7.0920     -6.7510      1.5900     78.3900
    283     14.8360     -6.7960     -4.4090      1.5900     78.3900
    284     12.3790     -6.8100     -4.8200      1.5900     78.3900
    285     11.2420     -6.9950     -5.7040      1.7700     78.3900
    286     11.2840     -7.9760     -6.2410      0.0100     78.3900
    287     11.2550     -6.1980     -6.4770      0.0100     78.3900
    288      9.8900     -6.9360     -4.9640      1.7700     78.3900
    289      9.0870     -7.3480     -5.6080      0.0100     78.3900
    290      9.9310     -7.7520     -3.7650      1.5900     78.3900
    291      9.2750     -7.0960     -2.7000      1.7700     78.3900
    292      8.5080     -7.8100     -2.3240      0.0100     78.3900
    293     10.1990     -6.7730     -1.5950      1.6800     78.3900
    294      9.8120     -6.5250     -0.3070      1.7700     78.3900
    295      7.2990     -6.1920      2.0140      1.6800     78.3900
    296      6.4830     -6.3920      1.4780      0.0100     78.3900
    297      7.1920     -5.8430      2.9490      0.0100     78.3900
    298      8.5490     -6.5320      0.1370      1.6800     78.3900
    299      8.4680     -6.2340      1.4250      1.7700     78.3900
    300      9.5550     -5.9480      2.2110      1.6800     78.3900
    301      9.3760     -5.7060      3.1700      0.0100     78.3900
    302     10.8780     -5.9420      1.7820      1.7700     78.3900
    303     11.8030     -5.6790      2.5590      1.5900     78.3900
    304     10.9720     -6.2590      0.3940      1.7700     78.3900
    305     12.0790     -6.3450     -0.4430      1.6800     78.3900
    306     11.5730     -6.6530     -1.6160      1.7700     78.3900
    307     12.1490     -6.8260     -2.5260      0.0100     78.3900
    308      8.5850     -5.8670     -3.2670      1.7700     78.3900
    309      8.6070     -5.0230     -2.5480      0.0100     78.3900
    310      7.2410     -6.1570     -3.6110      1.5900     78.3900
    311      6.8510     -5.3620     -4.0070      0.0100     78.3900
    312      9.4400     -5.5510     -4.4930      1.7700     78.3900
    313     10.3720     -5.0290     -4.1790      0.0100     78.3900
    314      8.7420     -4.8850     -5.5690      1.5900     78.3900
    315      8.7860     -3.3290     -5.7450      2.1000     78.3900
    316      8.6660     -3.0350     -7.1870      1.5900     78.3900
    317      9.9700     -2.7860     -5.0480      1.5900     78.3900
    318      7.4950     -2.8230     -5.0070      1.5900     78.3900
    319      6.1920     -2.8720     -5.6230      1.7700     78.3900
    320      6.0490     -3.8160     -6.1990      0.0100     78.3900
    321      6.0890     -2.0180     -6.3330      0.0100     78.3900
    322      5.0450     -2.7980     -4.5880      1.7700     78.3900
    323      4.0850     -3.1020     -5.0630      0.0100     78.3900
    324      5.2770     -3.7110     -3.4690      1.5900     78.3900
    325      4.8860     -3.0780     -2.2480      1.7700     78.3900
    326      4.1370     -3.7630     -1.7820      0.0100     78.3900
    327      6.0480     -2.8780     -1.3240      1.6800     78.3900
    328      7.3330     -2.8610     -1.8100      1.7700     78.3900
    329      7.4340     -3.1030     -2.8580      0.0100     78.3900
    330      5.8120     -2.6910      0.0220      1.7700     78.3900
    331      4.6770     -2.6670      0.4860      1.5900     78.3900
    332      6.9440     -2.5400      0.7990      1.6800     78.3900
    333      6.8180     -2.3990      1.7870      0.0100     78.3900
    334      8.2570     -2.5660      0.3650      1.7700     78.3900
    335      9.1910     -2.4890      1.1560      1.5900     78.3900
    336      8.4130     -2.7120     -1.0390      1.7700     78.3900
    337      9.4220     -2.7660     -1.4420      0.0100     78.3900
    338      4.1920     -1.7640     -2.6060      1.7700     78.3900
    339      4.4120     -0.9760     -1.8530      0.0100     78.3900
    340      2.7860     -1.9500     -2.7050      1.5900     78.3900
    341      2.3840     -1.1420     -3.0640      0.0100     78.3900
    342      4.8360     -1.4210     -3.9470      1.7700     78.3900
    343      5.8400     -0.9690     -3.7950      0.0100     78.3900
    344      4.0250     -0.5980     -4.8050      1.5900     78.3900
    345      3.8520      0.2610     -4.3810      0.0100     78.3900

     ----------------------------
     INPUT FOR TESSERA DEFINITION
     ----------------------------
     NTSALL  =        60     MTHALL  =         4
     MTHAUT  =         0     AUTFRE  =    2.0000
     NTSFRZ  =        60     KEEPSM  =         0
     AREAKP  =   10.0000     BONDRY  =    1.0000
     AREATL  =    0.0100

     SPHERE     INITS       METHOD
          1        60       FIXPVA
          2        60       FIXPVA
          3        60       FIXPVA
          4        60       FIXPVA
          5        60       FIXPVA
          6        60       FIXPVA
          7        60       FIXPVA
          8        60       FIXPVA
          9        60       FIXPVA
         10        60       FIXPVA
         11        60       FIXPVA
         12        60       FIXPVA
         13        60       FIXPVA
         14        60       FIXPVA
         15        60       FIXPVA
         16        60       FIXPVA
         17        60       FIXPVA
         18        60       FIXPVA
         19        60       FIXPVA
         20        60       FIXPVA
         21        60       FIXPVA
         22        60       FIXPVA
         23        60       FIXPVA
         24        60       FIXPVA
         25        60       FIXPVA
         26        60       FIXPVA
         27        60       FIXPVA
         28        60       FIXPVA
         29        60       FIXPVA
         30        60       FIXPVA
         31        60       FIXPVA
         32        60       FIXPVA
         33        60       FIXPVA
         34        60       FIXPVA
         35        60       FIXPVA
         36        60       FIXPVA
         37        60       FIXPVA
         38        60       FIXPVA
         39        60       FIXPVA
         40        60       FIXPVA
         41        60       FIXPVA
         42        60       FIXPVA
         43        60       FIXPVA
         44        60       FIXPVA
         45        60       FIXPVA
         46        60       FIXPVA
         47        60       FIXPVA
         48        60       FIXPVA
         49        60       FIXPVA
         50        60       FIXPVA
         51        60       FIXPVA
         52        60       FIXPVA
         53        60       FIXPVA
         54        60       FIXPVA
         55        60       FIXPVA
         56        60       FIXPVA
         57        60       FIXPVA
         58        60       FIXPVA
         59        60       FIXPVA
         60        60       FIXPVA
         61        60       FIXPVA
         62        60       FIXPVA
         63        60       FIXPVA
         64        60       FIXPVA
         65        60       FIXPVA
         66        60       FIXPVA
         67        60       FIXPVA
         68        60       FIXPVA
         69        60       FIXPVA
         70        60       FIXPVA
         71        60       FIXPVA
         72        60       FIXPVA
         73        60       FIXPVA
         74        60       FIXPVA
         75        60       FIXPVA
         76        60       FIXPVA
         77        60       FIXPVA
         78        60       FIXPVA
         79        60       FIXPVA
         80        60       FIXPVA
         81        60       FIXPVA
         82        60       FIXPVA
         83        60       FIXPVA
         84        60       FIXPVA
         85        60       FIXPVA
         86        60       FIXPVA
         87        60       FIXPVA
         88        60       FIXPVA
         89        60       FIXPVA
         90        60       FIXPVA
         91        60       FIXPVA
         92        60       FIXPVA
         93        60       FIXPVA
         94        60       FIXPVA
         95        60       FIXPVA
         96        60       FIXPVA
         97        60       FIXPVA
         98        60       FIXPVA
         99        60       FIXPVA
        100        60       FIXPVA
        101        60       FIXPVA
        102        60       FIXPVA
        103        60       FIXPVA
        104        60       FIXPVA
        105        60       FIXPVA
        106        60       FIXPVA
        107        60       FIXPVA
        108        60       FIXPVA
        109        60       FIXPVA
        110        60       FIXPVA
        111        60       FIXPVA
        112        60       FIXPVA
        113        60       FIXPVA
        114        60       FIXPVA
        115        60       FIXPVA
        116        60       FIXPVA
        117        60       FIXPVA
        118        60       FIXPVA
        119        60       FIXPVA
        120        60       FIXPVA
        121        60       FIXPVA
        122        60       FIXPVA
        123        60       FIXPVA
        124        60       FIXPVA
        125        60       FIXPVA
        126        60       FIXPVA
        127        60       FIXPVA
        128        60       FIXPVA
        129        60       FIXPVA
        130        60       FIXPVA
        131        60       FIXPVA
        132        60       FIXPVA
        133        60       FIXPVA
        134        60       FIXPVA
        135        60       FIXPVA
        136        60       FIXPVA
        137        60       FIXPVA
        138        60       FIXPVA
        139        60       FIXPVA
        140        60       FIXPVA
        141        60       FIXPVA
        142        60       FIXPVA
        143        60       FIXPVA
        144        60       FIXPVA
        145        60       FIXPVA
        146        60       FIXPVA
        147        60       FIXPVA
        148        60       FIXPVA
        149        60       FIXPVA
        150        60       FIXPVA
        151        60       FIXPVA
        152        60       FIXPVA
        153        60       FIXPVA
        154        60       FIXPVA
        155        60       FIXPVA
        156        60       FIXPVA
        157        60       FIXPVA
        158        60       FIXPVA
        159        60       FIXPVA
        160        60       FIXPVA
        161        60       FIXPVA
        162        60       FIXPVA
        163        60       FIXPVA
        164        60       FIXPVA
        165        60       FIXPVA
        166        60       FIXPVA
        167        60       FIXPVA
        168        60       FIXPVA
        169        60       FIXPVA
        170        60       FIXPVA
        171        60       FIXPVA
        172        60       FIXPVA
        173        60       FIXPVA
        174        60       FIXPVA
        175        60       FIXPVA
        176        60       FIXPVA
        177        60       FIXPVA
        178        60       FIXPVA
        179        60       FIXPVA
        180        60       FIXPVA
        181        60       FIXPVA
        182        60       FIXPVA
        183        60       FIXPVA
        184        60       FIXPVA
        185        60       FIXPVA
        186        60       FIXPVA
        187        60       FIXPVA
        188        60       FIXPVA
        189        60       FIXPVA
        190        60       FIXPVA
        191        60       FIXPVA
        192        60       FIXPVA
        193        60       FIXPVA
        194        60       FIXPVA
        195        60       FIXPVA
        196        60       FIXPVA
        197        60       FIXPVA
        198        60       FIXPVA
        199        60       FIXPVA
        200        60       FIXPVA
        201        60       FIXPVA
        202        60       FIXPVA
        203        60       FIXPVA
        204        60       FIXPVA
        205        60       FIXPVA
        206        60       FIXPVA
        207        60       FIXPVA
        208        60       FIXPVA
        209        60       FIXPVA
        210        60       FIXPVA
        211        60       FIXPVA
        212        60       FIXPVA
        213        60       FIXPVA
        214        60       FIXPVA
        215        60       FIXPVA
        216        60       FIXPVA
        217        60       FIXPVA
        218        60       FIXPVA
        219        60       FIXPVA
        220        60       FIXPVA
        221        60       FIXPVA
        222        60       FIXPVA
        223        60       FIXPVA
        224        60       FIXPVA
        225        60       FIXPVA
        226        60       FIXPVA
        227        60       FIXPVA
        228        60       FIXPVA
        229        60       FIXPVA
        230        60       FIXPVA
        231        60       FIXPVA
        232        60       FIXPVA
        233        60       FIXPVA
        234        60       FIXPVA
        235        60       FIXPVA
        236        60       FIXPVA
        237        60       FIXPVA
        238        60       FIXPVA
        239        60       FIXPVA
        240        60       FIXPVA
        241        60       FIXPVA
        242        60       FIXPVA
        243        60       FIXPVA
        244        60       FIXPVA
        245        60       FIXPVA
        246        60       FIXPVA
        247        60       FIXPVA
        248        60       FIXPVA
        249        60       FIXPVA
        250        60       FIXPVA
        251        60       FIXPVA
        252        60       FIXPVA
        253        60       FIXPVA
        254        60       FIXPVA
        255        60       FIXPVA
        256        60       FIXPVA
        257        60       FIXPVA
        258        60       FIXPVA
        259        60       FIXPVA
        260        60       FIXPVA
        261        60       FIXPVA
        262        60       FIXPVA
        263        60       FIXPVA
        264        60       FIXPVA
        265        60       FIXPVA
        266        60       FIXPVA
        267        60       FIXPVA
        268        60       FIXPVA
        269        60       FIXPVA
        270        60       FIXPVA
        271        60       FIXPVA
        272        60       FIXPVA
        273        60       FIXPVA
        274        60       FIXPVA
        275        60       FIXPVA
        276        60       FIXPVA
        277        60       FIXPVA
        278        60       FIXPVA
        279        60       FIXPVA
        280        60       FIXPVA
        281        60       FIXPVA
        282        60       FIXPVA
        283        60       FIXPVA
        284        60       FIXPVA
        285        60       FIXPVA
        286        60       FIXPVA
        287        60       FIXPVA
        288        60       FIXPVA
        289        60       FIXPVA
        290        60       FIXPVA
        291        60       FIXPVA
        292        60       FIXPVA
        293        60       FIXPVA
        294        60       FIXPVA
        295        60       FIXPVA
        296        60       FIXPVA
        297        60       FIXPVA
        298        60       FIXPVA
        299        60       FIXPVA
        300        60       FIXPVA
        301        60       FIXPVA
        302        60       FIXPVA
        303        60       FIXPVA
        304        60       FIXPVA
        305        60       FIXPVA
        306        60       FIXPVA
        307        60       FIXPVA
        308        60       FIXPVA
        309        60       FIXPVA
        310        60       FIXPVA
        311        60       FIXPVA
        312        60       FIXPVA
        313        60       FIXPVA
        314        60       FIXPVA
        315        60       FIXPVA
        316        60       FIXPVA
        317        60       FIXPVA
        318        60       FIXPVA
        319        60       FIXPVA
        320        60       FIXPVA
        321        60       FIXPVA
        322        60       FIXPVA
        323        60       FIXPVA
        324        60       FIXPVA
        325        60       FIXPVA
        326        60       FIXPVA
        327        60       FIXPVA
        328        60       FIXPVA
        329        60       FIXPVA
        330        60       FIXPVA
        331        60       FIXPVA
        332        60       FIXPVA
        333        60       FIXPVA
        334        60       FIXPVA
        335        60       FIXPVA
        336        60       FIXPVA
        337        60       FIXPVA
        338        60       FIXPVA
        339        60       FIXPVA
        340        60       FIXPVA
        341        60       FIXPVA
        342        60       FIXPVA
        343        60       FIXPVA
        344        60       FIXPVA
        345        60       FIXPVA

     ------------------------------
      FIXPVA TESSELLATION FOR PCM
         PEIFENG SU AND HUI LI
     UNIVERSITY OF NEBRASKA-LINCOLN
     ------------------------------


 PCM DIMENSIONS: MXSP=   345, MXTS=     13800, MEMORY=        141798

     INPUT FOR CAVITY DEFINITION 
     ---------------------------
   ATOM               COORDINATES                RADIUS       EPS
      1     10.8710     -0.0750     11.4910      0.0100     78.3900
      2     10.1220     -0.2510     10.8910      1.5900     78.3900
      3      8.9260     -0.1740     11.6800      1.7700     78.3900
      4      8.8930      0.8170     12.1870      0.0100     78.3900
      5      8.9620     -0.9600     12.4660      0.0100     78.3900
      6      7.6270     -0.3610     10.8770      1.7700     78.3900
      7      6.7490     -0.0310     11.4750      0.0100     78.3900
      8      7.6440      0.4270      9.6500      1.5900     78.3900
      9      7.1070     -0.3470      8.5930      1.7700     78.3900
     10      6.2850      0.2590      8.1450      0.0100     78.3900
     11      8.1170     -0.6250      7.5700      1.6800     78.3900
     12      9.0920     -1.1330      5.6710      1.7700     78.3900
     13     10.1180     -0.8700      6.5690      1.6800     78.3900
     14      9.4870     -0.5750      7.6800      1.7700     78.3900
     15      9.9700     -0.2880      8.6140      0.0100     78.3900
     16      7.8820     -1.6490      3.7000      1.6800     78.3900
     17      6.7760     -1.4880      4.4280      1.7700     78.3900
     18      5.8360     -1.6410      3.8900      0.0100     78.3900
     19      6.6510     -1.1500      5.7120      1.6800     78.3900
     20      7.8570     -0.9860      6.2780      1.7700     78.3900
     21      9.0900     -1.4840      4.3070      1.7700     78.3900
     22     10.2150     -1.6480      3.5900      1.6800     78.3900
     23     11.1290     -1.4430      3.9460      0.0100     78.3900
     24     10.0980     -1.9200      2.6300      0.0100     78.3900
     25      6.5270     -1.6150      9.1820      1.7700     78.3900
     26      6.6320     -2.4860      8.4980      0.0100     78.3900
     27      5.1630     -1.4330      9.5030      1.5900     78.3900
     28      4.8660     -2.2890      9.8410      0.0100     78.3900
     29      7.3740     -1.8070     10.4380      1.7700     78.3900
     30      8.3670     -2.2390     10.1800      0.0100     78.3900
     31      6.7340     -2.5130     11.5170      1.5900     78.3900
     32      6.6320     -4.0780     11.5690      2.1000     78.3900
     33      5.8380     -4.4490     12.7600      1.5900     78.3900
     34      8.0010     -4.6310     11.4730      1.5900     78.3900
     35      5.8350     -4.4800     10.2760      1.5900     78.3900
     36      4.3940     -4.5190     10.1930      1.7700     78.3900
     37      3.9490     -3.5460     10.4960      0.0100     78.3900
     38      3.9870     -5.2980     10.8790      0.0100     78.3900
     39      3.9030     -4.8380      8.7640      1.7700     78.3900
     40      2.8220     -4.5950      8.6550      0.0100     78.3900
     41      4.6210     -4.0500      7.7790      1.5900     78.3900
     42      4.8930     -4.8420      6.6360      1.7700     78.3900
     43      4.3990     -4.3060      5.7920      0.0100     78.3900
     44      6.3520     -4.9650      6.3650      1.6800     78.3900
     45      7.2450     -4.9980      7.4040      1.7700     78.3900
     46      6.8200     -4.9100      8.3960      0.0100     78.3900
     47      8.5620     -5.1000      7.1990      1.7700     78.3900
     48      9.2770     -5.1140      8.0200      0.0100     78.3900
     49      6.8140     -5.0920      5.0620      1.7700     78.3900
     50      5.9880     -5.0840      4.1380      1.5900     78.3900
     51      8.1460     -5.2250      4.8250      1.6800     78.3900
     52      9.0150     -5.2170      5.8550      1.7700     78.3900
     53     10.3240     -5.3270      5.6210      1.6800     78.3900
     54     10.6830     -5.3940      4.6950      0.0100     78.3900
     55     10.9820     -5.3310      6.3770      0.0100     78.3900
     56      4.2160     -6.1930      6.8190      1.7700     78.3900
     57      4.8310     -7.0220      6.4120      0.0100     78.3900
     58      2.9410     -6.2160      6.2050      1.5900     78.3900
     59      2.5940     -7.1170      6.3130      0.0100     78.3900
     60      4.1120     -6.2960      8.3420      1.7700     78.3900
     61      5.0900     -6.6100      8.7750      0.0100     78.3900
     62      3.0140     -7.0820      8.8450      1.5900     78.3900
     63      3.0700     -8.6470      8.8590      2.1000     78.3900
     64      1.8960     -9.1460      9.6070      1.5900     78.3900
     65      4.4060     -9.0640      9.3260      1.5900     78.3900
     66      2.9310     -9.0380      7.3450      1.5900     78.3900
     67      1.6720     -9.2880      6.6890      1.7700     78.3900
     68      1.0710     -8.3500      6.6330      0.0100     78.3900
     69      1.0840    -10.0370      7.2620      0.0100     78.3900
     70      1.8330     -9.8260      5.2450      1.7700     78.3900
     71      0.8490     -9.8120      4.7290      0.0100     78.3900
     72      2.7210     -8.9620      4.4780      1.5900     78.3900
     73      3.5660     -9.7540      3.6480      1.7700     78.3900
     74      3.3880     -9.3870      2.6100      0.0100     78.3900
     75      5.0040     -9.5820      3.9890      1.6800     78.3900
     76      5.3530     -9.4080      5.3040      1.7700     78.3900
     77      4.5350     -9.4010      6.0040      0.0100     78.3900
     78      6.6170     -9.2180      5.6850      1.7700     78.3900
     79      6.8950     -9.0430      6.7230      0.0100     78.3900
     80      6.0030     -9.6660      3.0240      1.7700     78.3900
     81      5.6920     -9.9100      1.8460      1.5900     78.3900
     82      7.2890     -9.4750      3.3850      1.6800     78.3900
     83      7.6080     -9.2390      4.6720      1.7700     78.3900
     84      8.8750     -9.0340      4.9980      1.6800     78.3900
     85      9.5360     -9.1950      4.2580      0.0100     78.3900
     86      9.1930     -9.0100      5.9470      0.0100     78.3900
     87      3.1080    -11.2020      3.7340      1.7700     78.3900
     88      3.9580    -11.9160      3.7040      0.0100     78.3900
     89      2.2130    -11.5000      2.6800      1.5900     78.3900
     90      1.8590    -12.3830      2.8610      0.0100     78.3900
     91      2.4110    -11.2480      5.0930      1.7700     78.3900
     92      3.1750    -11.3530      5.8950      0.0100     78.3900
     93      1.3520    -12.2320      5.1800      1.5900     78.3900
     94      1.5360    -13.5740      5.9700      2.1000     78.3900
     95      0.2250    -14.2560      6.0500      1.5900     78.3900
     96      2.2190    -13.2790      7.2480      1.5900     78.3900
     97      2.5090    -14.4350      5.0870      1.5900     78.3900
     98      2.0690    -15.2170      3.9560      1.7700     78.3900
     99      1.3180    -14.6590      3.3520      0.0100     78.3900
    100      1.5960    -16.1600      4.3130      0.0100     78.3900
    101      3.2150    -15.6080      2.9970      1.7700     78.3900
    102      2.8010    -15.9980      2.0440      0.0100     78.3900
    103      4.0260    -14.4490      2.6710      1.5900     78.3900
    104      5.3910    -14.8200      2.5870      1.7700     78.3900
    105      5.7080    -14.5360      1.5530      0.0100     78.3900
    106      6.2090    -14.1070      3.6090      1.6800     78.3900
    107      5.6610    -13.7290      4.8080      1.7700     78.3900
    108      4.6190    -13.9860      4.9380      0.0100     78.3900
    109      7.5140    -13.8090      3.3140      1.7700     78.3900
    110      8.0180    -14.1060      2.2380      1.5900     78.3900
    111      8.2050    -13.1510      4.3060      1.6800     78.3900
    112      9.1650    -12.9300      4.1130      0.0100     78.3900
    113      7.7070    -12.7200      5.5180      1.7700     78.3900
    114      8.4250    -12.1040      6.3020      1.5900     78.3900
    115      6.3340    -13.0460      5.7390      1.7700     78.3900
    116      5.8610    -12.7270      6.6640      0.0100     78.3900
    117      5.4730    -16.3340      2.7300      1.7700     78.3900
    118      6.3760    -16.6510      3.2940      0.0100     78.3900
    119      5.4690    -16.9600      1.4590      1.5900     78.3900
    120      5.4480    -17.9100      1.6340      0.0100     78.3900
    121      4.2040    -16.6600      3.5170      1.7700     78.3900
    122      4.3580    -16.4340      4.5990      0.0100     78.3900
    123      3.6740    -17.9820      3.2700      1.5900     78.3900
    124      3.8230    -19.1400      4.3140      2.1000     78.3900
    125      2.9270    -20.2550      3.9410      1.5900     78.3900
    126      3.6900    -18.5850      5.6750      1.5900     78.3900
    127      5.2930    -19.6300      4.1070      1.5900     78.3900
    128      5.7750    -20.2270      2.8880      1.7700     78.3900
    129      5.3800    -19.7140      1.9790      0.0100     78.3900
    130      5.4470    -21.2910      2.8400      0.0100     78.3900
    131      7.3110    -20.2010      2.8220      1.7700     78.3900
    132      7.6730    -20.6480      1.8690      0.0100     78.3900
    133      7.8020    -18.8230      2.8570      1.5900     78.3900
    134      8.9840    -18.7690      3.6520      1.7700     78.3900
    135      9.7830    -18.3320      3.0120      0.0100     78.3900
    136      8.7940    -17.9200      4.8750      1.6800     78.3900
    137      7.5610    -17.8530      5.4690      1.7700     78.3900
    138      6.7930    -18.4020      4.9570      0.0100     78.3900
    139      9.8300    -17.1460      5.3560      1.7700     78.3900
    140     10.9320    -17.1020      4.8290      1.5900     78.3900
    141      9.5310    -16.3840      6.4590      1.6800     78.3900
    142     10.3120    -15.8870      6.8610      0.0100     78.3900
    143      8.3140    -16.2760      7.0960      1.7700     78.3900
    144      8.1760    -15.5200      8.0550      1.5900     78.3900
    145      7.2810    -17.0760      6.5210      1.7700     78.3900
    146      6.2760    -17.0140      6.9300      0.0100     78.3900
    147      9.3640    -20.2130      3.9560      1.7700     78.3900
    148      9.9260    -20.3120      4.9090      0.0100     78.3900
    149     10.0960    -20.7640      2.8830      1.5900     78.3900
    150     10.3170    -21.6600      3.1640      0.0100     78.3900
    151      8.0210    -20.9080      3.9910      1.7700     78.3900
    152      7.4680    -20.6550      4.9210      0.0100     78.3900
    153      8.0610    -22.3380      3.7520      1.5900     78.3900
    154      8.7150    -23.2980      4.8160      2.1000     78.3900
    155      8.0010    -24.5870      4.7010      1.5900     78.3900
    156      8.7040    -22.6500      6.1460      1.5900     78.3900
    157     10.2010    -23.4660      4.3020      1.5900     78.3900
    158     11.3500    -23.3620      5.1760      1.7700     78.3900
    159     11.3490    -24.2240      5.8860      0.0100     78.3900
    160     11.3110    -22.4200      5.7800      0.0100     78.3900
    161     12.7100    -23.3540      4.4140      1.7700     78.3900
    162     13.5430    -23.6360      5.0910      0.0100     78.3900
    163     12.7090    -24.2940      3.2920      1.5900     78.3900
    164     13.3070    -23.6840      2.1430      1.7700     78.3900
    165     14.1580    -24.3510      1.8740      0.0100     78.3900
    166     12.3670    -23.5940      0.9870      1.6800     78.3900
    167     11.0280    -23.4240      1.2220      1.7700     78.3900
    168     10.7390    -23.3760      2.2550      0.0100     78.3900
    169     10.1340    -23.3360      0.2340      1.7700     78.3900
    170      9.0690    -23.2090      0.4230      0.0100     78.3900
    171     12.8240    -23.6640     -0.3270      1.7700     78.3900
    172     14.0380    -23.8230     -0.5330      1.5900     78.3900
    173     11.9360    -23.5730     -1.3510      1.6800     78.3900
    174     10.6210    -23.4240     -1.0960      1.7700     78.3900
    175      9.7590    -23.3510     -2.1080      1.6800     78.3900
    176     10.0990    -23.4540     -3.0460      0.0100     78.3900
    177      8.7750    -23.2410     -1.9620      0.0100     78.3900
    178     13.8740    -22.3270      2.5440      1.7700     78.3900
    179     13.6990    -21.5510      1.7650      0.0100     78.3900
    180     15.2570    -22.4040      2.8260      1.5900     78.3900
    181     15.5200    -21.5620      3.2280      0.0100     78.3900
    182     13.0610    -21.9980      3.7870      1.7700     78.3900
    183     12.0950    -21.6020      3.4440      0.0100     78.3900
    184     13.7120    -21.1390      4.7540      1.5900     78.3900
    185     13.4730    -19.5820      4.6680      2.1000     78.3900
    186     13.4610    -19.0520      6.0470      1.5900     78.3900
    187     12.3060    -19.3450      3.8160      1.5900     78.3900
    188     14.7410    -19.0530      3.9170      1.5900     78.3900
    189     16.0310    -19.0140      4.5510      1.7700     78.3900
    190     16.3170    -20.0310      4.9130      0.0100     78.3900
    191     16.0240    -18.3110      5.4240      0.0100     78.3900
    192     17.1060    -18.5540      3.5600      1.7700     78.3900
    193     18.1190    -18.6310      4.0050      0.0100     78.3900
    194     17.0790    -19.4090      2.3710      1.5900     78.3900
    195     17.2990    -18.6140      1.2140      1.7700     78.3900
    196     18.1680    -19.0650      0.6780      0.0100     78.3900
    197     16.1210    -18.5640      0.2840      1.6800     78.3900
    198     14.9230    -19.1210      0.6540      1.7700     78.3900
    199     14.8560    -19.4950      1.6750      0.0100     78.3900
    200     13.8750    -19.1450     -0.1770      1.7700     78.3900
    201     12.9270    -19.5920      0.1040      0.0100     78.3900
    202     16.2540    -18.0380     -1.0020      1.7700     78.3900
    203     17.3690    -17.6410     -1.3730      1.5900     78.3900
    204     15.1910    -18.0190     -1.8520      1.6800     78.3900
    205     14.0260    -18.5710     -1.4690      1.7700     78.3900
    206     12.9990    -18.5910     -2.3190      1.6800     78.3900
    207     13.1060    -18.1760     -3.2230      0.0100     78.3900
    208     12.1030    -18.9500     -2.0620      0.0100     78.3900
    209     17.6940    -17.2440      1.7190      1.7700     78.3900
    210     17.3650    -16.4900      1.0290      0.0100     78.3900
    211     19.0950    -17.1170      1.8780      1.5900     78.3900
    212     19.2520    -16.2600      2.2970      0.0100     78.3900
    213     16.9420    -17.1220      3.0320      1.7700     78.3900
    214     15.8550    -16.9460      2.8630      0.0100     78.3900
    215     17.5230    -16.1810      3.9520      1.5900     78.3900
    216     17.1330    -14.6610      4.0340      2.1000     78.3900
    217     18.2960    -13.9280      4.5830      1.5900     78.3900
    218     15.8630    -14.5570      4.7820      1.5900     78.3900
    219     16.8790    -14.1620      2.5600      1.5900     78.3900
    220     17.9520    -13.8160      1.6530      1.7700     78.3900
    221     18.8010    -14.5280      1.7370      0.0100     78.3900
    222     18.3450    -12.8050      1.8960      0.0100     78.3900
    223     17.5120    -13.7890      0.1740      1.7700     78.3900
    224     18.3810    -13.8720     -0.5120      0.0100     78.3900
    225     16.6160    -14.8900     -0.1180      1.5900     78.3900
    226     15.5540    -14.5000     -0.9190      1.7700     78.3900
    227     15.5820    -15.1870     -1.7950      0.0100     78.3900
    228     14.2200    -14.6250     -0.2630      1.6800     78.3900
    229     14.1290    -14.8480      1.0890      1.7700     78.3900
    230     15.0700    -14.9980      1.6110      0.0100     78.3900
    231     12.9470    -14.9410      1.7020      1.7700     78.3900
    232     12.8530    -15.1250      2.7710      0.0100     78.3900
    233     13.0570    -14.5580     -1.0240      1.7700     78.3900
    234     13.1600    -14.4250     -2.2550      1.5900     78.3900
    235     11.8420    -14.6550     -0.4310      1.6800     78.3900
    236     11.7770    -14.8400      0.9020      1.7700     78.3900
    237     10.5980    -14.9740      1.4900      1.6800     78.3900
    238      9.7620    -14.8730      0.9550      0.0100     78.3900
    239     10.5100    -15.2350      2.4460      0.0100     78.3900
    240     15.8750    -13.1020     -1.3400      1.7700     78.3900
    241     14.9730    -12.4880     -1.3320      0.0100     78.3900
    242     16.5440    -13.1260     -2.5920      1.5900     78.3900
    243     15.9060    -13.3980     -3.2690      0.0100     78.3900
    244     16.7250    -12.5540     -0.2040      1.7700     78.3900
    245     16.0880    -12.3010      0.6740      0.0100     78.3900
    246     17.6150    -11.4760     -0.5560      1.5900     78.3900
    247     17.1120     -9.9910     -0.7140      2.1000     78.3900
    248     18.1590     -9.2250     -1.4270      1.5900     78.3900
    249     16.7560     -9.4990      0.6340      1.5900     78.3900
    250     15.8090    -10.0040     -1.5980      1.5900     78.3900
    251     15.8250    -10.1530     -3.0350      1.7700     78.3900
    252     16.6130    -10.8650     -3.3630      0.0100     78.3900
    253     16.0700     -9.1760     -3.4950      0.0100     78.3900
    254     14.4690    -10.6060     -3.6470      1.7700     78.3900
    255     14.6320    -11.0810     -4.6410      0.0100     78.3900
    256     13.7730    -11.5730     -2.8240      1.5900     78.3900
    257     12.4190    -11.2400     -2.6340      1.7700     78.3900
    258     11.8300    -12.1600     -2.8520      0.0100     78.3900
    259     12.1320    -10.8180     -1.2450      1.6800     78.3900
    260     10.8960    -10.6630     -0.6650      1.7700     78.3900
    261      7.4320    -10.8250     -0.8200      1.6800     78.3900
    262      7.2710    -11.1410     -1.7540      0.0100     78.3900
    263      6.6570    -10.6620     -0.2150      0.0100     78.3900
    264      9.7030    -10.8800     -1.2520      1.6800     78.3900
    265      8.6810    -10.6600     -0.4190      1.7700     78.3900
    266      8.8440    -10.2560      0.8850      1.6800     78.3900
    267      8.0290    -10.0840      1.4520      0.0100     78.3900
    268     10.0670    -10.0200      1.5050      1.7700     78.3900
    269     10.1870     -9.6570      2.6790      1.5900     78.3900
    270     11.1500    -10.2630      0.6340      1.7700     78.3900
    271     12.5110    -10.1830      0.8760      1.6800     78.3900
    272     13.0490    -10.5320     -0.2600      1.7700     78.3900
    273     14.1140    -10.6300     -0.4210      0.0100     78.3900
    274     12.1130    -10.1760     -3.6420      1.7700     78.3900
    275     11.3590     -9.4680     -3.2530      0.0100     78.3900
    276     11.6710    -10.7650     -4.8510      1.5900     78.3900
    277     11.7420    -10.0770     -5.5260      0.0100     78.3900
    278     13.4630     -9.4800     -3.8120      1.7700     78.3900
    279     13.6380     -8.7810     -2.9600      0.0100     78.3900
    280     13.6510     -8.8810     -5.1030      1.5900     78.3900
    281     13.7850     -7.3400     -5.2950      2.1000     78.3900
    282     13.9350     -7.0920     -6.7510      1.5900     78.3900
    283     14.8360     -6.7960     -4.4090      1.5900     78.3900
    284     12.3790     -6.8100     -4.8200      1.5900     78.3900
    285     11.2420     -6.9950     -5.7040      1.7700     78.3900
    286     11.2840     -7.9760     -6.2410      0.0100     78.3900
    287     11.2550     -6.1980     -6.4770      0.0100     78.3900
    288      9.8900     -6.9360     -4.9640      1.7700     78.3900
    289      9.0870     -7.3480     -5.6080      0.0100     78.3900
    290      9.9310     -7.7520     -3.7650      1.5900     78.3900
    291      9.2750     -7.0960     -2.7000      1.7700     78.3900
    292      8.5080     -7.8100     -2.3240      0.0100     78.3900
    293     10.1990     -6.7730     -1.5950      1.6800     78.3900
    294      9.8120     -6.5250     -0.3070      1.7700     78.3900
    295      7.2990     -6.1920      2.0140      1.6800     78.3900
    296      6.4830     -6.3920      1.4780      0.0100     78.3900
    297      7.1920     -5.8430      2.9490      0.0100     78.3900
    298      8.5490     -6.5320      0.1370      1.6800     78.3900
    299      8.4680     -6.2340      1.4250      1.7700     78.3900
    300      9.5550     -5.9480      2.2110      1.6800     78.3900
    301      9.3760     -5.7060      3.1700      0.0100     78.3900
    302     10.8780     -5.9420      1.7820      1.7700     78.3900
    303     11.8030     -5.6790      2.5590      1.5900     78.3900
    304     10.9720     -6.2590      0.3940      1.7700     78.3900
    305     12.0790     -6.3450     -0.4430      1.6800     78.3900
    306     11.5730     -6.6530     -1.6160      1.7700     78.3900
    307     12.1490     -6.8260     -2.5260      0.0100     78.3900
    308      8.5850     -5.8670     -3.2670      1.7700     78.3900
    309      8.6070     -5.0230     -2.5480      0.0100     78.3900
    310      7.2410     -6.1570     -3.6110      1.5900     78.3900
    311      6.8510     -5.3620     -4.0070      0.0100     78.3900
    312      9.4400     -5.5510     -4.4930      1.7700     78.3900
    313     10.3720     -5.0290     -4.1790      0.0100     78.3900
    314      8.7420     -4.8850     -5.5690      1.5900     78.3900
    315      8.7860     -3.3290     -5.7450      2.1000     78.3900
    316      8.6660     -3.0350     -7.1870      1.5900     78.3900
    317      9.9700     -2.7860     -5.0480      1.5900     78.3900
    318      7.4950     -2.8230     -5.0070      1.5900     78.3900
    319      6.1920     -2.8720     -5.6230      1.7700     78.3900
    320      6.0490     -3.8160     -6.1990      0.0100     78.3900
    321      6.0890     -2.0180     -6.3330      0.0100     78.3900
    322      5.0450     -2.7980     -4.5880      1.7700     78.3900
    323      4.0850     -3.1020     -5.0630      0.0100     78.3900
    324      5.2770     -3.7110     -3.4690      1.5900     78.3900
    325      4.8860     -3.0780     -2.2480      1.7700     78.3900
    326      4.1370     -3.7630     -1.7820      0.0100     78.3900
    327      6.0480     -2.8780     -1.3240      1.6800     78.3900
    328      7.3330     -2.8610     -1.8100      1.7700     78.3900
    329      7.4340     -3.1030     -2.8580      0.0100     78.3900
    330      5.8120     -2.6910      0.0220      1.7700     78.3900
    331      4.6770     -2.6670      0.4860      1.5900     78.3900
    332      6.9440     -2.5400      0.7990      1.6800     78.3900
    333      6.8180     -2.3990      1.7870      0.0100     78.3900
    334      8.2570     -2.5660      0.3650      1.7700     78.3900
    335      9.1910     -2.4890      1.1560      1.5900     78.3900
[...]
   293   10   7.0   0.00    0.0    0.000000   -0.803004   -0.811661
   294   10   6.0   0.00    0.0    0.000016    0.704288    0.706165
   295   10   7.0   5.09   10.0   -0.085238   -0.924919   -1.037020
   296   10   1.0   0.00    0.0    0.000000    0.436522    0.429698
   297   10   1.0   0.00    0.0    0.000000    0.451158    0.546472
   298   10   7.0   3.77    7.4    0.063168   -0.754666   -0.758258
   299   10   6.0   0.00    0.0    0.000000    0.997977    0.997166
   300   10   7.0   0.00    0.0   -0.000005   -0.931789   -1.009916
   301   10   1.0   0.00    0.0    0.000000    0.446400    0.505032
   302   10   6.0   0.00    0.0    0.000799    0.880603    0.884975
   303   10   8.0  16.12   35.2    0.253651   -0.744293   -0.744396
   304   10   6.0   0.30    0.5    0.004953   -0.048791   -0.046927
   305   10   7.0  12.00   23.5    0.187968   -0.605490   -0.610740
   306   10   6.0   4.67    8.2    0.011456    0.266244    0.254401
   307   10   1.0   0.00    0.0    0.000000    0.281598    0.298573
   308   10   6.0   0.49    0.9   -0.006433    0.136526    0.108532
   309   10   1.0   0.00    0.0    0.000000    0.191693    0.217515
   310   10   8.0  12.84   28.1    0.130911   -0.823951   -0.840366
   311   10   1.0   0.00    0.0    0.000000    0.494573    0.505445
   312   10   6.0   2.82    5.0   -0.030409    0.146740    0.116538
   313   10   1.0   0.00    0.0    0.000000    0.241246    0.245638
   314   10   8.0   4.64   10.1    0.058217   -0.790084   -0.796519
   315   10  15.0   8.67   10.9    0.121380    1.588434    1.642805
   316   10   8.0  17.58   38.4    0.356431   -0.896740   -0.889706
   317   10   8.0  14.62   32.0    0.313852   -0.894949   -0.893537
   318   10   8.0   1.75    3.8    0.022782   -0.972800   -0.790941
   319   11   6.0  14.92   26.3   -0.105152    0.164862   -0.026399
   320   11   1.0   0.00    0.0    0.000000    0.231005    0.209513
   321   11   1.0   0.00    0.0    0.000000    0.232679    0.221057
   322   11   6.0   5.72   10.1   -0.048232    0.101485    0.156545
   323   11   1.0   0.00    0.0    0.000000    0.250656    0.226416
   324   11   8.0   4.04    8.8    0.032940   -0.741439   -0.747562
   325   11   6.0   6.12   10.8   -0.057190    0.413978    0.415845
   326   11   1.0   0.00    0.0    0.000000    0.266202    0.263085
   327   11   7.0   0.58    1.1   -0.000246   -0.831080   -0.836908
   328   11   6.0   2.84    5.0    0.001027    0.185886    0.170513
   329   11   1.0   0.00    0.0    0.000000    0.312247    0.342635
   330   11   6.0   3.27    5.8   -0.018001    1.122676    1.119928
   331   11   8.0  16.76   36.6    0.201272   -0.685426   -0.688027
   332   11   7.0   3.26    6.4   -0.007645   -0.945496   -0.980627
   333   11   1.0   0.00    0.0    0.000000    0.467896    0.496583
   334   11   6.0   2.83    5.0    0.005399    0.890586    0.893142
   335   11   8.0   7.36   16.1    0.095532   -0.715252   -0.698978
   336   11   6.0  10.77   19.0   -0.033894   -0.450118   -0.456020
   337   11   1.0   0.00    0.0    0.000000    0.274036    0.274094
   338   11   6.0   5.78   10.2   -0.066820    0.121633    0.119924
   339   11   1.0   0.00    0.0    0.000000    0.229278    0.229609
   340   11   8.0  21.93   47.9    0.045107   -0.839685   -0.840926
   341   11   1.0   0.00    0.0    0.000000    0.507289    0.508113
   342   11   6.0   6.24   11.0   -0.073029    0.156574    0.141597
   343   11   1.0   0.00    0.0    0.000000    0.215649    0.221357
   344   11   8.0  21.36   46.7   -0.012375   -0.848215   -0.850723
   345   11   1.0   0.00    0.0    0.000000    0.507146    0.507951

 Done with FMO properties.
 CPU     0: STEP CPU TIME=     0.01 TOTAL CPU TIME=      16983.8 (    283.1 MIN)
 TOTAL WALL CLOCK TIME=      36576.8 SECONDS, CPU UTILIZATION IS    46.43%
 CPU     0: STEP CPU TIME=     0.00 TOTAL CPU TIME=      16983.8 (    283.1 MIN)
 TOTAL WALL CLOCK TIME=      36576.8 SECONDS, CPU UTILIZATION IS    46.43%

 Total timing statistics in pairs (CPU,wall) for each rank, sec

    Rank   total     SCF    corr     DFT    CPHF     EFP    solv     ESP    geom
 -------------------------------------------------------------------------------
       1   16983.8   4796.0   6346.6      0.0    0.0   0.0  162.2  5345.8    0.0
       1   36576.9  10577.7  14153.8      0.0    0.0   0.0  460.6 10637.3    0.0
       2   16794.4   4799.4   6170.8      0.0    0.0   0.0  162.3  5333.2    0.0
       2   36576.9  10551.9  14153.6      0.0    0.0   0.0  460.5 10636.6    0.0
       3   16785.3   4796.7   6198.9      0.0    0.0   0.0  163.4  5296.1    0.0
       3   36576.9  10551.7  14153.6      0.0    0.0   0.0  460.4 10636.9    0.0
       4   16811.2   4763.9   6251.0      0.0    0.0   0.0  163.4  5312.2    0.0
       4   36576.9  10552.8  14153.6      0.0    0.0   0.0  459.3 10636.7    0.0
       5   16999.9   4822.4   6386.1      0.0    0.0   0.0  162.4  5311.5    0.0
       5   36576.9  10552.9  14153.9      0.0    0.0   0.0  459.9 10636.7    0.0
       6   16833.1   4805.0   6194.9      0.0    0.0   0.0  162.1  5331.3    0.0
       6   36576.9  10553.5  14153.6      0.0    0.0   0.0  459.0 10636.5    0.0
       7   16901.7   4868.9   6236.7      0.0    0.0   0.0  163.8  5311.7    0.0
       7   36576.9  10553.0  14153.5      0.0    0.0   0.0  459.4 10636.6    0.0
       8   17035.7   4757.0   6449.3      0.0    0.0   0.0  163.1  5348.8    0.0
       8   36576.9  10553.2  14153.5      0.0    0.0   0.0  458.8 10636.5    0.0
       9   16684.2   4805.7   6128.2      0.0    0.0   0.0  159.7  5277.7    0.0
       9   36576.9  10553.7  14153.5      0.0    0.0   0.0  458.5 10636.8    0.0
      10   16819.6   4831.3   6224.4      0.0    0.0   0.0  161.2  5278.3    0.0
      10   36576.9  10553.3  14153.5      0.0    0.0   0.0  458.9 10636.7    0.0
      11   16723.2   4801.2   6250.9      0.0    0.0   0.0  160.5  5188.6    0.0
      11   36576.9  10553.9  14153.5      0.0    0.0   0.0  458.4 10636.6    0.0
      12   16605.9   4797.4   6084.3      0.0    0.0   0.0  160.2  5254.4    0.0
      12   36576.9  10554.4  14153.5      0.0    0.0   0.0  457.4 10636.6    0.0
      13   16762.0   4826.9   6301.6      0.0    0.0   0.0  160.5  5155.4    0.0
      13   36576.9  10554.2  14153.4      0.0    0.0   0.0  458.5 10636.5    0.0
      14   16617.6   4792.1   6114.0      0.0    0.0   0.0  161.4  5234.8    0.0
      14   36576.9  10554.3  14153.4      0.0    0.0   0.0  457.9 10636.5    0.0
      15   16912.0   4773.3   6414.6      0.0    0.0   0.0  161.1  5236.9    0.0
      15   36576.9  10554.8  14153.4      0.0    0.0   0.0  457.5 10636.4    0.0
      16   16732.0   4820.4   6215.0      0.0    0.0   0.0  160.8  5224.3    0.0
      16   36576.9  10554.9  14153.5      0.0    0.0   0.0  456.7 10636.4    0.0
averaged   16812.6   4803.6   6248.0      0.0    0.0   0.0  161.8  5277.6    0.0
averaged   36576.9  10555.0  14153.6      0.0    0.0   0.0  458.9 10636.6    0.0

  FMO  timing statistics in pairs (CPU,wall) for each rank, sec

    Rank  FMOini FMOscf1  FMOdm1 FMOsyn1 FMOscf2  FMOes2 FMOsyn2 FMOscf3 FMOsyn3
 -------------------------------------------------------------------------------
       1    2.1    6630.0    0.4    0.0   10118.1     233.1    0.0    0.0    0.0
       1    5.4   14204.7    4.5    0.1   21904.2     457.8    0.0    0.0    0.0
       2    1.6    6614.7    0.1    0.0    9945.1     232.9    0.0    0.0    0.0
       2    5.4   14204.7    4.5    0.1   21903.5     458.4    0.0    0.0    0.0
       3    1.8    6638.5    0.1    0.0    9912.5     232.3    0.0    0.0    0.0
       3    5.4   14204.7    4.5    0.1   21903.7     458.2    0.0    0.0    0.0
       4    1.6    6642.2    0.1    0.0    9942.8     224.5    0.0    0.0    0.0
       4    5.4   14204.7    4.5    0.1   21903.9     458.0    0.0    0.0    0.0
       5    1.9    6584.1    0.2    0.0   10193.4     220.3    0.0    0.0    0.0
       5    5.4   14204.7    4.5    0.1   21903.5     458.4    0.0    0.0    0.0
       6    1.6    6672.8    0.1    0.0    9914.0     244.6    0.0    0.0    0.0
       6    5.4   14204.7    4.5    0.1   21904.0     458.0    0.0    0.0    0.0
       7    1.7    6686.3    0.2    0.0    9990.4     223.0    0.0    0.0    0.0
       7    5.4   14204.7    4.5    0.1   21904.1     457.9    0.0    0.0    0.0
       8    1.5    6615.2    0.1    0.0   10197.2     221.7    0.0    0.0    0.0
       8    5.4   14204.7    4.5    0.1   21904.0     457.9    0.0    0.0    0.0
       9    1.9    6583.4    0.3    0.0    9881.8     216.8    0.0    0.0    0.0
       9    5.4   14204.7    4.5    0.1   21904.4     457.5    0.0    0.0    0.0
      10    1.5    6610.4    0.1    0.0    9977.6     230.0    0.0    0.0    0.0
      10    5.4   14204.7    4.5    0.1   21904.6     457.3    0.0    0.0    0.0
      11    1.6    6556.3    0.1    0.0    9937.7     227.5    0.0    0.0    0.0
      11    5.4   14204.7    4.5    0.1   21904.0     457.9    0.0    0.0    0.0
      12    1.4    6561.1    0.1    0.0    9826.8     216.6    0.0    0.0    0.0
      12    5.4   14204.7    4.5    0.1   21904.7     457.3    0.0    0.0    0.0
      13    1.7    6599.7    0.2    0.0    9938.1     222.3    0.0    0.0    0.0
      13    5.4   14204.7    4.5    0.1   21903.6     458.3    0.0    0.0    0.0
      14    1.4    6627.9    0.1    0.0    9767.0     221.2    0.0    0.0    0.0
      14    5.4   14204.7    4.5    0.1   21904.1     457.9    0.0    0.0    0.0
      15    1.5    6588.4    0.2    0.0   10090.2     231.7    0.0    0.0    0.0
      15    5.4   14204.7    4.5    0.1   21903.8     458.1    0.0    0.0    0.0
      16    1.5    6582.1    0.1    0.0    9929.6     218.6    0.0    0.0    0.0
      16    5.4   14204.7    4.5    0.1   21904.5     457.5    0.0    0.0    0.0
averaged    1.6    6612.1    0.1    0.0    9972.6     226.1    0.0    0.0    0.0
averaged    5.4   14204.7    4.5    0.1   21904.0     457.9    0.0    0.0    0.0
             62769567  WORDS OF DYNAMIC MEMORY USED
 EXECUTION OF GAMESS TERMINATED NORMALLY Fri Dec  6 19:56:56 2019
 DDI: 263640 bytes (0.3 MB / 0 MWords) used by master data server.

 ----------------------------------------
 CPU timing information for all processes
 ========================================
 0: 16572.96 + 411.742 = 16983.838
 1: 16432.719 + 361.775 = 16794.495
 2: 16408.201 + 377.135 = 16785.337
 3: 16444.773 + 366.499 = 16811.272
 4: 16590.299 + 409.617 = 16999.917
 5: 16468.853 + 364.259 = 16833.112
 6: 16518.308 + 383.366 = 16901.675
 7: 16655.915 + 379.826 = 17035.742
 8: 16294.935 + 389.338 = 16684.273
 9: 16459.134 + 360.461 = 16819.595
 10: 16341.164 + 382.78 = 16723.242
 11: 16256.03 + 349.981 = 16605.985
 12: 16371.878 + 390.141 = 16762.19
 13: 16260.133 + 357.431 = 16617.564
 14: 16535.137 + 376.926 = 16912.63
 15: 16371.495 + 360.514 = 16732.09
 ----------------------------------------
 ddikick.x: exited gracefully.
unset echo
----- accounting info -----
Files used on the master node gollum051.lsa.umich.edu were:
-rw-r--r-- 1 hazwong frank    17498 Dec  6 09:47 /scratch/hazwong/820881/2LBK_6/usrc/2LBK_6_fmo_input.F05
-rw-r--r-- 1 hazwong frank      634 Dec  6 19:56 /scratch/hazwong/820881/2LBK_6/usrc/2LBK_6_fmo_input.F06.001
-rw-r--r-- 1 hazwong frank      634 Dec  6 19:56 /scratch/hazwong/820881/2LBK_6/usrc/2LBK_6_fmo_input.F06.002
-rw-r--r-- 1 hazwong frank      634 Dec  6 19:56 /scratch/hazwong/820881/2LBK_6/usrc/2LBK_6_fmo_input.F06.003
-rw-r--r-- 1 hazwong frank      634 Dec  6 19:56 /scratch/hazwong/820881/2LBK_6/usrc/2LBK_6_fmo_input.F06.004
-rw-r--r-- 1 hazwong frank      634 Dec  6 19:56 /scratch/hazwong/820881/2LBK_6/usrc/2LBK_6_fmo_input.F06.005
-rw-r--r-- 1 hazwong frank      634 Dec  6 19:56 /scratch/hazwong/820881/2LBK_6/usrc/2LBK_6_fmo_input.F06.006
-rw-r--r-- 1 hazwong frank      634 Dec  6 19:56 /scratch/hazwong/820881/2LBK_6/usrc/2LBK_6_fmo_input.F06.007
-rw-r--r-- 1 hazwong frank      634 Dec  6 19:56 /scratch/hazwong/820881/2LBK_6/usrc/2LBK_6_fmo_input.F06.008
-rw-r--r-- 1 hazwong frank      634 Dec  6 19:56 /scratch/hazwong/820881/2LBK_6/usrc/2LBK_6_fmo_input.F06.009
-rw-r--r-- 1 hazwong frank      634 Dec  6 19:56 /scratch/hazwong/820881/2LBK_6/usrc/2LBK_6_fmo_input.F06.010
-rw-r--r-- 1 hazwong frank      634 Dec  6 19:56 /scratch/hazwong/820881/2LBK_6/usrc/2LBK_6_fmo_input.F06.011
-rw-r--r-- 1 hazwong frank      634 Dec  6 19:56 /scratch/hazwong/820881/2LBK_6/usrc/2LBK_6_fmo_input.F06.012
-rw-r--r-- 1 hazwong frank      634 Dec  6 19:56 /scratch/hazwong/820881/2LBK_6/usrc/2LBK_6_fmo_input.F06.013
-rw-r--r-- 1 hazwong frank      634 Dec  6 19:56 /scratch/hazwong/820881/2LBK_6/usrc/2LBK_6_fmo_input.F06.014
-rw-r--r-- 1 hazwong frank      634 Dec  6 19:56 /scratch/hazwong/820881/2LBK_6/usrc/2LBK_6_fmo_input.F06.015
-rw-r--r-- 1 hazwong frank    10850 Dec  6 19:56 /scratch/hazwong/820881/2LBK_6/usrc/2LBK_6_fmo_input.F07
-rw-r--r-- 1 hazwong frank        0 Dec  6 09:47 /scratch/hazwong/820881/2LBK_6/usrc/2LBK_6_fmo_input.F07.001
-rw-r--r-- 1 hazwong frank        0 Dec  6 09:47 /scratch/hazwong/820881/2LBK_6/usrc/2LBK_6_fmo_input.F07.002
-rw-r--r-- 1 hazwong frank        0 Dec  6 09:47 /scratch/hazwong/820881/2LBK_6/usrc/2LBK_6_fmo_input.F07.003
-rw-r--r-- 1 hazwong frank        0 Dec  6 09:47 /scratch/hazwong/820881/2LBK_6/usrc/2LBK_6_fmo_input.F07.004
-rw-r--r-- 1 hazwong frank        0 Dec  6 09:47 /scratch/hazwong/820881/2LBK_6/usrc/2LBK_6_fmo_input.F07.005
-rw-r--r-- 1 hazwong frank        0 Dec  6 09:47 /scratch/hazwong/820881/2LBK_6/usrc/2LBK_6_fmo_input.F07.006
-rw-r--r-- 1 hazwong frank        0 Dec  6 09:47 /scratch/hazwong/820881/2LBK_6/usrc/2LBK_6_fmo_input.F07.007
-rw-r--r-- 1 hazwong frank        0 Dec  6 09:47 /scratch/hazwong/820881/2LBK_6/usrc/2LBK_6_fmo_input.F07.008
-rw-r--r-- 1 hazwong frank        0 Dec  6 09:47 /scratch/hazwong/820881/2LBK_6/usrc/2LBK_6_fmo_input.F07.009
-rw-r--r-- 1 hazwong frank        0 Dec  6 09:47 /scratch/hazwong/820881/2LBK_6/usrc/2LBK_6_fmo_input.F07.010
-rw-r--r-- 1 hazwong frank        0 Dec  6 09:47 /scratch/hazwong/820881/2LBK_6/usrc/2LBK_6_fmo_input.F07.011
-rw-r--r-- 1 hazwong frank        0 Dec  6 09:47 /scratch/hazwong/820881/2LBK_6/usrc/2LBK_6_fmo_input.F07.012
-rw-r--r-- 1 hazwong frank        0 Dec  6 09:47 /scratch/hazwong/820881/2LBK_6/usrc/2LBK_6_fmo_input.F07.013
-rw-r--r-- 1 hazwong frank        0 Dec  6 09:47 /scratch/hazwong/820881/2LBK_6/usrc/2LBK_6_fmo_input.F07.014
-rw-r--r-- 1 hazwong frank        0 Dec  6 09:47 /scratch/hazwong/820881/2LBK_6/usrc/2LBK_6_fmo_input.F07.015
-rw-r--r-- 1 hazwong frank    65440 Dec  6 19:56 /scratch/hazwong/820881/2LBK_6/usrc/2LBK_6_fmo_input.F10.000
-rw-r--r-- 1 hazwong frank        0 Dec  6 09:47 /scratch/hazwong/820881/2LBK_6/usrc/2LBK_6_fmo_input.F26.000
-rw-r--r-- 1 hazwong frank        0 Dec  6 09:47 /scratch/hazwong/820881/2LBK_6/usrc/2LBK_6_fmo_input.F26.001
-rw-r--r-- 1 hazwong frank        0 Dec  6 09:47 /scratch/hazwong/820881/2LBK_6/usrc/2LBK_6_fmo_input.F26.002
-rw-r--r-- 1 hazwong frank        0 Dec  6 09:47 /scratch/hazwong/820881/2LBK_6/usrc/2LBK_6_fmo_input.F26.003
-rw-r--r-- 1 hazwong frank        0 Dec  6 09:47 /scratch/hazwong/820881/2LBK_6/usrc/2LBK_6_fmo_input.F26.004
-rw-r--r-- 1 hazwong frank        0 Dec  6 09:47 /scratch/hazwong/820881/2LBK_6/usrc/2LBK_6_fmo_input.F26.005
-rw-r--r-- 1 hazwong frank        0 Dec  6 09:47 /scratch/hazwong/820881/2LBK_6/usrc/2LBK_6_fmo_input.F26.006
-rw-r--r-- 1 hazwong frank        0 Dec  6 09:47 /scratch/hazwong/820881/2LBK_6/usrc/2LBK_6_fmo_input.F26.007
-rw-r--r-- 1 hazwong frank        0 Dec  6 09:47 /scratch/hazwong/820881/2LBK_6/usrc/2LBK_6_fmo_input.F26.008
-rw-r--r-- 1 hazwong frank        0 Dec  6 09:47 /scratch/hazwong/820881/2LBK_6/usrc/2LBK_6_fmo_input.F26.009
-rw-r--r-- 1 hazwong frank        0 Dec  6 09:47 /scratch/hazwong/820881/2LBK_6/usrc/2LBK_6_fmo_input.F26.010
-rw-r--r-- 1 hazwong frank        0 Dec  6 09:47 /scratch/hazwong/820881/2LBK_6/usrc/2LBK_6_fmo_input.F26.011
-rw-r--r-- 1 hazwong frank        0 Dec  6 09:47 /scratch/hazwong/820881/2LBK_6/usrc/2LBK_6_fmo_input.F26.012
-rw-r--r-- 1 hazwong frank        0 Dec  6 09:47 /scratch/hazwong/820881/2LBK_6/usrc/2LBK_6_fmo_input.F26.013
-rw-r--r-- 1 hazwong frank        0 Dec  6 09:47 /scratch/hazwong/820881/2LBK_6/usrc/2LBK_6_fmo_input.F26.014
-rw-r--r-- 1 hazwong frank        0 Dec  6 09:47 /scratch/hazwong/820881/2LBK_6/usrc/2LBK_6_fmo_input.F26.015
-rw-r--r-- 1 hazwong frank        0 Dec  6 09:47 /scratch/hazwong/820881/2LBK_6/usrc/2LBK_6_fmo_input.F27.000
-rw-r--r-- 1 hazwong frank        0 Dec  6 09:47 /scratch/hazwong/820881/2LBK_6/usrc/2LBK_6_fmo_input.F27.001
-rw-r--r-- 1 hazwong frank        0 Dec  6 09:47 /scratch/hazwong/820881/2LBK_6/usrc/2LBK_6_fmo_input.F27.002
-rw-r--r-- 1 hazwong frank        0 Dec  6 09:47 /scratch/hazwong/820881/2LBK_6/usrc/2LBK_6_fmo_input.F27.003
-rw-r--r-- 1 hazwong frank        0 Dec  6 09:47 /scratch/hazwong/820881/2LBK_6/usrc/2LBK_6_fmo_input.F27.004
-rw-r--r-- 1 hazwong frank        0 Dec  6 09:47 /scratch/hazwong/820881/2LBK_6/usrc/2LBK_6_fmo_input.F27.005
-rw-r--r-- 1 hazwong frank        0 Dec  6 09:47 /scratch/hazwong/820881/2LBK_6/usrc/2LBK_6_fmo_input.F27.006
-rw-r--r-- 1 hazwong frank        0 Dec  6 09:47 /scratch/hazwong/820881/2LBK_6/usrc/2LBK_6_fmo_input.F27.007
-rw-r--r-- 1 hazwong frank        0 Dec  6 09:47 /scratch/hazwong/820881/2LBK_6/usrc/2LBK_6_fmo_input.F27.008
-rw-r--r-- 1 hazwong frank        0 Dec  6 09:47 /scratch/hazwong/820881/2LBK_6/usrc/2LBK_6_fmo_input.F27.009
-rw-r--r-- 1 hazwong frank        0 Dec  6 09:47 /scratch/hazwong/820881/2LBK_6/usrc/2LBK_6_fmo_input.F27.010
-rw-r--r-- 1 hazwong frank        0 Dec  6 09:47 /scratch/hazwong/820881/2LBK_6/usrc/2LBK_6_fmo_input.F27.011
-rw-r--r-- 1 hazwong frank        0 Dec  6 09:47 /scratch/hazwong/820881/2LBK_6/usrc/2LBK_6_fmo_input.F27.012
-rw-r--r-- 1 hazwong frank        0 Dec  6 09:47 /scratch/hazwong/820881/2LBK_6/usrc/2LBK_6_fmo_input.F27.013
-rw-r--r-- 1 hazwong frank        0 Dec  6 09:47 /scratch/hazwong/820881/2LBK_6/usrc/2LBK_6_fmo_input.F27.014
-rw-r--r-- 1 hazwong frank        0 Dec  6 09:47 /scratch/hazwong/820881/2LBK_6/usrc/2LBK_6_fmo_input.F27.015
-rw-r--r-- 1 hazwong frank 21413888 Dec  6 13:44 /scratch/hazwong/820881/2LBK_6/usrc/2LBK_6_fmo_input.F40.000
-rw-r--r-- 1 hazwong frank 21413888 Dec  6 13:44 /scratch/hazwong/820881/2LBK_6/usrc/2LBK_6_fmo_input.F40.001
-rw-r--r-- 1 hazwong frank 21413888 Dec  6 13:44 /scratch/hazwong/820881/2LBK_6/usrc/2LBK_6_fmo_input.F40.002
-rw-r--r-- 1 hazwong frank 21413888 Dec  6 13:44 /scratch/hazwong/820881/2LBK_6/usrc/2LBK_6_fmo_input.F40.003
-rw-r--r-- 1 hazwong frank 21413888 Dec  6 13:44 /scratch/hazwong/820881/2LBK_6/usrc/2LBK_6_fmo_input.F40.004
-rw-r--r-- 1 hazwong frank 21413888 Dec  6 13:44 /scratch/hazwong/820881/2LBK_6/usrc/2LBK_6_fmo_input.F40.005
-rw-r--r-- 1 hazwong frank 21413888 Dec  6 13:44 /scratch/hazwong/820881/2LBK_6/usrc/2LBK_6_fmo_input.F40.006
-rw-r--r-- 1 hazwong frank 21413888 Dec  6 13:44 /scratch/hazwong/820881/2LBK_6/usrc/2LBK_6_fmo_input.F40.007
-rw-r--r-- 1 hazwong frank 21413888 Dec  6 13:44 /scratch/hazwong/820881/2LBK_6/usrc/2LBK_6_fmo_input.F40.008
-rw-r--r-- 1 hazwong frank 21413888 Dec  6 13:44 /scratch/hazwong/820881/2LBK_6/usrc/2LBK_6_fmo_input.F40.009
-rw-r--r-- 1 hazwong frank 21413888 Dec  6 13:44 /scratch/hazwong/820881/2LBK_6/usrc/2LBK_6_fmo_input.F40.010
-rw-r--r-- 1 hazwong frank 21413888 Dec  6 13:44 /scratch/hazwong/820881/2LBK_6/usrc/2LBK_6_fmo_input.F40.011
-rw-r--r-- 1 hazwong frank 21413888 Dec  6 13:44 /scratch/hazwong/820881/2LBK_6/usrc/2LBK_6_fmo_input.F40.012
-rw-r--r-- 1 hazwong frank 21413888 Dec  6 13:44 /scratch/hazwong/820881/2LBK_6/usrc/2LBK_6_fmo_input.F40.013
-rw-r--r-- 1 hazwong frank 21413888 Dec  6 13:44 /scratch/hazwong/820881/2LBK_6/usrc/2LBK_6_fmo_input.F40.014
-rw-r--r-- 1 hazwong frank 21413888 Dec  6 13:44 /scratch/hazwong/820881/2LBK_6/usrc/2LBK_6_fmo_input.F40.015
ls: No match.
ls: No match.
ls: No match.
Fri Dec  6 19:56:59 EST 2019
0.181u 0.092s 10:09:40.49 0.0%	0+0k 1824+136io 32pf+0w
