‘1P5M_6_fmo_input.inp’ -> ‘/scratch/hazwong/824321/./1P5M_6_fmo_input.inp’
‘rungms’ -> ‘/scratch/hazwong/824321/./rungms’
‘gms-files.csh’ -> ‘/scratch/hazwong/824321/./gms-files.csh’
----- GAMESS execution script 'rungms' -----
This job is running on host gollum051.lsa.umich.edu
under operating system Linux at Sat Dec 7 08:13:51 EST 2019
Available scratch disk space (Kbyte units) at beginning of the job is
Filesystem     1K-blocks   Used Available Use% Mounted on
/dev/sda4      426933580 434920 426498660   1% /scratch
GAMESS temporary binary files will be written to /scratch/hazwong/824321/1P5M_6/usrc
GAMESS supplementary output files will be written to /scratch/hazwong/824321/1P5M_6/src
Copying input file 1P5M_6_fmo_input.inp to your run's scratch directory...
cp 1P5M_6_fmo_input.inp /scratch/hazwong/824321/1P5M_6/usrc/1P5M_6_fmo_input.F05
unset echo
setenv OUTPUT /scratch/hazwong/824321/1P5M_6/usrc/1P5M_6_fmo_input.F06
This is a GDDI run, keeping various output files on local disks
setenv PUNCH /scratch/hazwong/824321/1P5M_6/usrc/1P5M_6_fmo_input.F07
unset echo
 
Assuming a single but multicore node.
 
/export/apps/CentOS7/gamess/src/build//ddikick.x /export/apps/CentOS7/gamess/src/build//gamess.R3.x 1P5M_6_fmo_input -ddi 1 16 gollum051.lsa.umich.edu:cpus=16 -scr /scratch/hazwong/824321/1P5M_6/usrc

 Distributed Data Interface kickoff program.
 Initiating 16 compute processes on 1 nodes to run the following command:
 /export/apps/CentOS7/gamess/src/build//gamess.R3.x 1P5M_6_fmo_input 

          ******************************************************
          *         GAMESS VERSION = 30 SEP 2018 (R3)         *
          *             FROM IOWA STATE UNIVERSITY             *
          * M.W.SCHMIDT, K.K.BALDRIDGE, J.A.BOATZ, S.T.ELBERT, *
          *   M.S.GORDON, J.H.JENSEN, S.KOSEKI, N.MATSUNAGA,   *
          *          K.A.NGUYEN, S.J.SU, T.L.WINDUS,           *
          *       TOGETHER WITH M.DUPUIS, J.A.MONTGOMERY       *
          *         J.COMPUT.CHEM.  14, 1347-1363(1993)        *
          **************** 64 BIT LINUX VERSION ****************

  SINCE 1993, STUDENTS AND POSTDOCS WORKING AT IOWA STATE UNIVERSITY
  AND ALSO IN THEIR VARIOUS JOBS AFTER LEAVING ISU HAVE MADE IMPORTANT
  CONTRIBUTIONS TO THE CODE:
     IVANA ADAMOVIC, CHRISTINE AIKENS, YURI ALEXEEV, POOJA ARORA,
     ANDREY ASADCHEV, ROB BELL, PRADIPTA BANDYOPADHYAY, JONATHAN BENTZ,
     BRETT BODE, KURT BRORSEN, CALEB CARLIN, GALINA CHABAN, WEI CHEN,
     CHEOL HO CHOI, PAUL DAY, ALBERT DEFUSCO, NUWAN DESILVA, TIM DUDLEY,
     DMITRI FEDOROV, ALEX FINDLATER, GRAHAM FLETCHER, MARK FREITAG,
     KURT GLAESEMANN, ANASTASIA GUNINA,
     DAN KEMP, GRANT MERRILL, NORIYUKI MINEZAWA, JONATHAN MULLIN,
     TAKESHI NAGATA, SEAN NEDD, HEATHER NETZLOFF, BOSILJKA NJEGIC, RYAN OLSON,
     MIKE PAK, BUU PHAM,
     SPENCER PRUITT, LUKE ROSKOP, JIM SHOEMAKER, LYUDMILA SLIPCHENKO,
     TONY SMITH, SAROM SOK LEANG, JIE SONG, TETSUYA TAKETSUGU, SIMON WEBB,
     PENG XU, SOOHAENG YOO, FEDERICO ZAHARIEV

  ADDITIONAL CODE HAS BEEN PROVIDED BY COLLABORATORS IN OTHER GROUPS:
     IOWA STATE UNIVERSITY:
          JOE IVANIC, AARON WEST, LAIMUTIS BYTAUTAS, KLAUS RUEDENBERG
     UNIVERSITY OF TOKYO: KIMIHIKO HIRAO, TAKAHITO NAKAJIMA,
          TAKAO TSUNEDA, MUNEAKI KAMIYA, SUSUMU YANAGISAWA,
          KIYOSHI YAGI, MAHITO CHIBA, SEIKEN TOKURA, NAOAKI KAWAKAMI
     UNIVERSITY OF AARHUS: FRANK JENSEN
     UNIVERSITY OF IOWA: VISVALDAS KAIRYS, HUI LI
     NATIONAL INST. OF STANDARDS AND TECHNOLOGY: WALT STEVENS, DAVID GARMER
     UNIVERSITY OF PISA: BENEDETTA MENNUCCI, JACOPO TOMASI
     UNIVERSITY OF MEMPHIS: HENRY KURTZ, PRAKASHAN KORAMBATH
     UNIVERSITY OF ALBERTA: TOBY ZENG, MARIUSZ KLOBUKOWSKI
     UNIVERSITY OF NEW ENGLAND: MARK SPACKMAN
     MIE UNIVERSITY: HIROAKI UMEDA
     NAT. INST. OF ADVANCED INDUSTRIAL SCIENCE AND TECHNOLOGY: KAZUO KITAURA
     MICHIGAN STATE UNIVERSITY:
          KAROL KOWALSKI, MARTA WLOCH, JEFFREY GOUR, JESSE LUTZ,
          WEI LI, JUN SHEN, J. EMILIANO DEUSTUA, PIOTR PIECUCH
     UNIVERSITY OF MINNESOTA:
          YINAN SHU
     UNIVERSITY OF SILESIA: MONIKA MUSIAL, STANISLAW KUCHARSKI
     FACULTES UNIVERSITAIRES NOTRE-DAME DE LA PAIX:
          OLIVIER QUINET, BENOIT CHAMPAGNE
     UNIVERSITY OF CALIFORNIA - SANTA BARBARA: BERNARD KIRTMAN
     INSTITUTE FOR MOLECULAR SCIENCE:
          KAZUYA ISHIMURA, MICHIO KATOUDA, AND SHIGERU NAGASE
     UNIVERSITY OF NOTRE DAME: ANNA POMOGAEVA, DAN CHIPMAN
     KYUSHU UNIVERSITY:
          HARUYUKI NAKANO,
          FENG LONG GU, JACEK KORCHOWIEC, MARCIN MAKOWSKI, AND YURIKO AOKI,
          HIROTOSHI MORI AND EISAKU MIYOSHI
     PENNSYLVANIA STATE UNIVERSITY:
          TZVETELIN IORDANOV, CHET SWALINA, JONATHAN SKONE,
          SHARON HAMMES-SCHIFFER
     WASEDA UNIVERSITY:
          MASATO KOBAYASHI, TOMOKO AKAMA, TSUGUKI TOUMA,
          TAKESHI YOSHIKAWA, YASUHIRO IKABATA, JUNJI SEINO,
          YUYA NAKAJIMA, HIROMI NAKAI
     NANJING UNIVERSITY: SHUHUA LI
     UNIVERSITY OF NEBRASKA:
          PEIFENG SU, DEJUN SI, NANDUN THELLAMUREGE, YALI WANG, HUI LI
     UNIVERSITY OF ZURICH: ROBERTO PEVERATI, KIM BALDRIDGE
     N. COPERNICUS UNIVERSITY AND JACKSON STATE UNIVERSITY:
          MARIA BARYSZ
     UNIVERSITY OF COPENHAGEN: Jimmy Kromann, CASPER STEINMANN
     TOKYO INSTITUTE OF TECHNOLOGY: HIROYA NAKATA
     NAGOYA UNIVERSITY: YOSHIO NISHIMOTO, STEPHAN IRLE
     MOSCOW STATE UNIVERSITY: VLADIMIR MIRONOV


 PARALLEL VERSION RUNNING ON       16 PROCESSORS IN        1 NODES.

 EXECUTION OF GAMESS BEGUN Sat Dec  7 08:13:51 2019

            ECHO OF THE FIRST FEW INPUT CARDS -
 INPUT CARD>!*** FMO 5.3 (Gamess) INPUT generated by Facio 22.1.1.32 ***                    
 INPUT CARD> $CONTRL RUNTYP=ENERGY NPRINT=-5 ISPHER=1 MAXIT=200 $END                        
 INPUT CARD> $SYSTEM MWORDS=63 MEMDDI=63 $END                                               
 INPUT CARD> $GDDI NGROUP=1 $END                                                            
 INPUT CARD> $SCF DIRSCF=.TRUE. NPUNCH=0 $END                                               
 INPUT CARD>!*** NumCPU : 2  MemPerNode : 512MB                                             
 INPUT CARD> $PCM SOLVNT=WATER IEF=-10 ICOMP=2 ICAV=1 IDISP=1 IFMO=-1 $END                  
 INPUT CARD> $PCMCAV RADII=SUAHF $END                                                       
 INPUT CARD> $TESCAV NTSALL=60 $END                                                         
 INPUT CARD> $FMOPRP                                                                        
 INPUT CARD>    NAODIR=200                                                                  
 INPUT CARD>    NGRFMO(1)=1, 1, 0, 0, 0,   0, 0, 0, 0, 0                                    
 INPUT CARD>    IPIEDA=1                                                                    
 INPUT CARD>    NPRINT=9                                                                    
 INPUT CARD> $END                                                                           
 INPUT CARD> $FMO                                                                           
 INPUT CARD>      SCFTYP(1)=RHF                                                             
 INPUT CARD>      MODGRD=10                                                                 
 INPUT CARD>      MODMUL=0                                                                  
 INPUT CARD>      MAXCAO=5                                                                  
 INPUT CARD>      MAXBND=19                                                                 
 INPUT CARD>      NLAYER=1                                                                  
 INPUT CARD>      MPLEVL(1)=2                                                               
 INPUT CARD>      NFRAG=17                                                                  
 INPUT CARD>      ICHARG(1)=-1, -1, -1, -1, -1, -1, -1, -1, -1, -1, 0, -1, -1, -1,          
 INPUT CARD>-1, -1, 0                                                                       
 INPUT CARD>      FRGNAM(1)=F1, F2, F3, F4, F5, F6, F7, F8, F9, F10, F11, F12, F13,         
 INPUT CARD>F14, F15, F16, F17                                                              
 INPUT CARD>      indat(1)=0                                                                
 INPUT CARD>               1   -35   0                                                      
 INPUT CARD>               36   -69   0                                                     
 INPUT CARD>               70   -103   0                                                    
 INPUT CARD>               104   -136   0                                                   
 INPUT CARD>               137   -169   0                                                   
 INPUT CARD>               170   -200   0                                                   
 INPUT CARD>               201   -230   0                                                   
 INPUT CARD>               231   -263   0                                                   
 INPUT CARD>               264   -294   0                                                   
 INPUT CARD>               295   -324   0                                                   
 INPUT CARD>               325   -357   0                                                   
 INPUT CARD>               358   -388   0                                                   
 INPUT CARD>               389   -421   0                                                   
 INPUT CARD>               422   -455   0                                                   
 INPUT CARD>               456   -486   0                                                   
 INPUT CARD>               487   -517   0                                                   
 INPUT CARD>               518   -544   0                                                   
 INPUT CARD> $END                                                                           
 INPUT CARD>                                                                                
 INPUT CARD> $FMOBND                                                                        
 INPUT CARD>   -36   35       6-31G*    MINI                                                


 -------------------------------------------------------------
 GROUP DDI, PROGRAMMED BY: RYAN M. OLSON AND DMITRI G. FEDOROV
        FEDOROV ET AL., J. COMPUT. CHEM., 25 (2004) 872.
 -------------------------------------------------------------

 -------------------------------------------------------
 GDDI: INITIALIZATION COMPLETED FOR GROUP     1 OF     1
 WITH    16 PROCESSES BALTYP=DLB   global rank=        0
 -------------------------------------------------------

   63000000 WORDS OF MEMORY AVAILABLE


     RUN TITLE
     ---------
  FMO calculation                                                                

 THE POINT GROUP OF THE MOLECULE IS C1      
 THE ORDER OF THE PRINCIPAL AXIS IS     0

 ATOM   ATOMIC CHARGE
 H.1-1       1.0
 O.1-1       8.0
 C.1-1       6.0
 N.1-1       7.0
 P.1-1      15.0

     ATOMIC BASIS SET LIBRARY
     ----------------
 THE CONTRACTED PRIMITIVE FUNCTIONS HAVE BEEN UNNORMALIZED
 THE CONTRACTED BASIS FUNCTIONS ARE NOW NORMALIZED TO UNITY

  SHELL TYPE  PRIMITIVE        EXPONENT          CONTRACTION COEFFICIENT(S)

 H.1-1     

      1   S       1            18.7311370    0.033494604338
      1   S       2             2.8253944    0.234726953484
      1   S       3             0.6401217    0.813757326146

      2   S       4             0.1612778    1.000000000000

 O.1-1     

      3   S       5          5484.6716600    0.001831074430
      3   S       6           825.2349460    0.013950172200
      3   S       7           188.0469580    0.068445078098
      3   S       8            52.9645000    0.232714335992
      3   S       9            16.8975704    0.470192897984
      3   S      10             5.7996353    0.358520852987

      4   L      11            15.5396162   -0.110777549525    0.070874268231
      4   L      12             3.5999336   -0.148026262701    0.339752839147
      4   L      13             1.0137618    1.130767015354    0.727158577316

      5   L      14             0.2700058    1.000000000000    1.000000000000

      6   D      15             0.8000000    1.000000000000

 C.1-1     

      7   S      16          3047.5248800    0.001834737132
      7   S      17           457.3695180    0.014037322813
      7   S      18           103.9486850    0.068842622264
      7   S      19            29.2101553    0.232184443216
      7   S      20             9.2866630    0.467941348435
      7   S      21             3.1639270    0.362311985337

      8   L      22             7.8682723   -0.119332419775    0.068999066591
      8   L      23             1.8812885   -0.160854151696    0.316423960957
      8   L      24             0.5442493    1.143456437840    0.744308290898

      9   L      25             0.1687145    1.000000000000    1.000000000000

     10   D      26             0.8000000    1.000000000000

 N.1-1     

     11   S      27          4173.5114600    0.001834772160
     11   S      28           627.4579110    0.013994627002
     11   S      29           142.9020930    0.068586551812
     11   S      30            40.2343293    0.232240873040
     11   S      31            12.8202129    0.469069948082
     11   S      32             4.3904370    0.360455199063

     12   L      33            11.6263619   -0.114961181702    0.067579743878
     12   L      34             2.7162798   -0.169117478561    0.323907295893
     12   L      35             0.7722184    1.145851947027    0.740895139755

     13   L      36             0.2120315    1.000000000000    1.000000000000

     14   D      37             0.8000000    1.000000000000

 P.1-1     

     15   S      38         19413.3000000    0.001851598923
     15   S      39          2909.4200000    0.014206191735
     15   S      40           661.3640000    0.069999459277
     15   S      41           185.7590000    0.240078860331
     15   S      42            59.1943000    0.484761717984
     15   S      43            20.0310000    0.335199804993

     16   L      44           339.4780000   -0.002782170105    0.004564616191
     16   L      45            81.0101000   -0.036049901354    0.033693571881
     16   L      46            25.8780000   -0.116631004382    0.139754883368
     16   L      47             9.4522100    0.096832803638    0.339361716786
     16   L      48             3.6656600    0.614418023082    0.450920623685
     16   L      49             1.4674600    0.403798015170    0.238585800889

     17   L      50             2.1562300   -0.252924113863   -0.017765312733
     17   L      51             0.7489970    0.032851844678    0.274058196433
     17   L      52             0.2831450    1.081254761783    0.785421562957

     18   L      53             0.0998317    1.000000000000    1.000000000000

     19   D      54             0.5500000    1.000000000000

 TOTAL NUMBER OF BASIS SET SHELLS             =   19
 NUMBER OF CARTESIAN GAUSSIAN BASIS FUNCTIONS =   66

     $CONTRL OPTIONS
     ---------------
 SCFTYP=RHF          RUNTYP=ENERGY       EXETYP=RUN     
 MPLEVL=       0     CITYP =NONE         CCTYP =NONE         VBTYP =NONE    
 DFTTYP=NONE         TDDFT =NONE    
 MULT  =       1     ICHARG=       0     NZVAR =       0     COORD =UNIQUE  
 PP    =NONE         RELWFN=NONE         LOCAL =NONE         NUMGRD=       F
 ISPHER=       1     NOSYM =       0     MAXIT =     200     UNITS =ANGS    
 PLTORB=       F     MOLPLT=       F     AIMPAC=       F     FRIEND=        
 NPRINT=      -5     IREST =       0     GEOM  =INPUT   
 NORMF =       0     NORMP =       0     ITOL  =      24     ICUT  =      12
 INTTYP=BEST         GRDTYP=BEST         QMTTOL= 1.0E-06

     $SYSTEM OPTIONS
     ---------------
  REPLICATED MEMORY=    63000000 WORDS (ON EVERY NODE).
 DISTRIBUTED MEMDDI=          63 MILLION WORDS IN AGGREGATE,
 MEMDDI DISTRIBUTED OVER  16 PROCESSORS IS     3937500 WORDS/PROCESSOR.
 TOTAL MEMORY REQUESTED ON EACH PROCESSOR=    66937500 WORDS.
 TIMLIM=      525600.00 MINUTES, OR     365.0 DAYS.
 PARALL= T  BALTYP=  DLB     KDIAG=    0  COREFL= F
 MXSEQ2=     300 MXSEQ3=     150  mem10=         0

 ** LOOKING UP INTERNALLY STORED DATA FOR SOLVENT=WATER    **
 OPTICAL AND PHYSICAL CONSTANTS:
 EPS= 78.390; EPSINF=  1.776; RSOLV=  1.385 A; VMOL=  18.070 ML/MOL;
 TCE= .25700E-03 1/K; STEN= 71.810 DYN/CM;  DSTEN=  0.6500; CMF=  1.2770


     -----------------------------------
     INPUT FOR PCM SOLVATION CALCULATION 
     -----------------------------------
     IEF   =     -10
     ICOMP =       2     IFIELD=       0     ICAV  =       1
     IDISP =       1     IREP  =       0     IDP   =       0

     SOLVNT=WATER        EPS   = 78.3900     EPSINF=  1.7760
     VMOL  = 18.0700     TCE   =  0.00025700 STEN  = 71.8100
     DSTEN =  0.6500     CMF   =  1.2770     RSOLV =  1.3850

     NESFP =       0
     OMEGA = 40.0000     RET   =100.0000     FRO   =  0.7000

     TABS  =298.0000     IPRINT=       0

     --------------------------------
     INPUT FOR ITERATIVE C-PCM METHOD 
     --------------------------------
     IPCMIT  =         1     MXDIIS  =        50
     MXITR1  =       200     MXITR2  =       200
     THRES   = 0.100E-09     IMUL    =         3
     RCUT(1) =   20.0000     RCUT(2) =   50.0000

     IDIRCT  =         1
     IMGABI  =         0     RABI    =    4.0000
     IMGASC  =         0     RASC    =   20.0000
     THRSLS  = 0.500E-03     DENSLS  =    0.0100
     IEFPOL  =         1     REFPOL  =    0.0000

     INPUT FOR ISOTROPIC DIELECTRICS
     -------------------------------
     EPS=    78.39

          ----------------
          PROPERTIES INPUT
          ----------------

     MOMENTS            FIELD           POTENTIAL          DENSITY
 IEMOM =       1   IEFLD =       0   IEPOT =       0   IEDEN =       0
 WHERE =COMASS     WHERE =NUCLEI     WHERE =NUCLEI     WHERE =NUCLEI  
 OUTPUT=BOTH       OUTPUT=BOTH       OUTPUT=NONE       OUTPUT=BOTH    
 IEMINT=       0   IEFINT=       0                     IEDINT=       0
                                                       MORB  =       0
          EXTRAPOLATION IN EFFECT
          SOSCF IN EFFECT
 ORBITAL PRINTING OPTION: NPREO=     1 32767     2     1

     -------------------------------
     INTEGRAL TRANSFORMATION OPTIONS
     -------------------------------
     NWORD  =            0
     CUTOFF = 1.0E-10     MPTRAN =       0
     DIRTRF =       T     AOINTS =DUP     

          ----------------------
          INTEGRAL INPUT OPTIONS
          ----------------------
 NOPK  =       1 NORDER=       0 SCHWRZ=       T

 ..... DONE SETTING UP THE RUN .....
 CPU     0: STEP CPU TIME=     0.05 TOTAL CPU TIME=          0.0 (      0.0 MIN)
 TOTAL WALL CLOCK TIME=          0.1 SECONDS, CPU UTILIZATION IS    71.43%
 CPU     0: STEP CPU TIME=     0.00 TOTAL CPU TIME=          0.0 (      0.0 MIN)
 TOTAL WALL CLOCK TIME=          0.1 SECONDS, CPU UTILIZATION IS    71.43%

                    ----------------------
                    AO INTEGRAL TECHNOLOGY
                    ----------------------
     S,P,L SHELL ROTATED AXIS INTEGRALS, REPROGRAMMED BY
        KAZUYA ISHIMURA (IMS) AND JOSE SIERRA (SYNSTAR).
     S,P,D,L SHELL ROTATED AXIS INTEGRALS PROGRAMMED BY
        KAZUYA ISHIMURA (INSTITUTE FOR MOLECULAR SCIENCE).
     S,P,D,F,G SHELL TO TOTAL QUARTET ANGULAR MOMENTUM SUM 5,
        ERIC PROGRAM BY GRAHAM FLETCHER (ELORET AND NASA ADVANCED
        SUPERCOMPUTING DIVISION, AMES RESEARCH CENTER).
     S,P,D,F,G,L SHELL GENERAL RYS QUADRATURE PROGRAMMED BY
        MICHEL DUPUIS (PACIFIC NORTHWEST NATIONAL LABORATORY).
 Setting modorb=1 flag...
 Setting modorb=1 flag...

          -----------------------
          MP2 CONTROL INFORMATION
          -----------------------
          NACORE =        8  NBCORE =        8
          LMOMP2 =        F  AOINTS = DUP     
          METHOD =        2  NWORD  =               0
          MP2PRP =        F  OSPT   = NONE    
          CUTOFF = 1.00E-12  CPHFBS = BASISAO 
          CODE   = IMS     

          NUMBER OF CORE -A-  ORBITALS =     8
          NUMBER OF CORE -B-  ORBITALS =     8
          NUMBER OF OCC. -A-  ORBITALS =    18
          NUMBER OF OCC. -B-  ORBITALS =    18
          NUMBER OF MOLECULAR ORBITALS =    66
          NUMBER OF   BASIS  FUNCTIONS =    66

 CPU     0: STEP CPU TIME=     0.03 TOTAL CPU TIME=          0.1 (      0.0 MIN)
 TOTAL WALL CLOCK TIME=          0.1 SECONDS, CPU UTILIZATION IS    80.00%
 CPU     0: STEP CPU TIME=     0.00 TOTAL CPU TIME=          0.1 (      0.0 MIN)
 TOTAL WALL CLOCK TIME=          0.1 SECONDS, CPU UTILIZATION IS    80.00%

     INPUT FOR CAVITY DEFINITION 
     ---------------------------
   ATOM               COORDINATES                RADIUS       EPS
      1     16.7930      7.6690      2.6680      0.0100     78.3900
      2     17.1470      8.3080      2.0190      1.5900     78.3900
      3     18.5670      8.3630      2.2040      1.7700     78.3900
      4     19.0090      7.3700      1.9570      0.0100     78.3900
      5     18.7840      8.5720      3.2750      0.0100     78.3900
      6     19.2340      9.4470      1.3520      1.7700     78.3900
      7     20.2170      9.7410      1.7800      0.0100     78.3900
      8     19.5080      8.9140      0.0290      1.5900     78.3900
      9     19.2990      9.9270     -0.9320      1.7700     78.3900
     10     20.2480     10.0280     -1.5100      0.0100     78.3900
     11     18.2130      9.5520     -1.8390      1.6800     78.3900
     12     16.9330      9.3560     -3.6100      1.7700     78.3900
     13     16.4150      8.4780     -2.6670      1.6800     78.3900
     14     17.2070      8.6340     -1.6310      1.7700     78.3900
     15     17.1200      8.0900     -0.6850      0.0100     78.3900
     16     17.3180     10.5590     -5.6060      1.6800     78.3900
     17     18.3180     11.1690     -4.9620      1.7700     78.3900
     18     18.8660     11.9270     -5.5310      0.0100     78.3900
     19     18.7790     10.9540     -3.7290      1.6800     78.3900
     20     18.0330     10.0300     -3.1040      1.7700     78.3900
     21     16.5880      9.6220     -4.9490      1.7700     78.3900
     22     15.5850      9.0080     -5.6060      1.6800     78.3900
     23     14.9410      8.3970     -5.1270      0.0100     78.3900
     24     15.3820      9.2590     -6.5490      0.0100     78.3900
     25     19.0210     11.2170     -0.1950      1.7700     78.3900
     26     18.3170     11.8640     -0.7500      0.0100     78.3900
     27     20.2150     11.9300      0.0500      1.5900     78.3900
     28     19.9320     12.7600      0.4570      0.0100     78.3900
     29     18.4000     10.7150      1.0980      1.7700     78.3900
     30     17.3500     10.4020      0.9020      0.0100     78.3900
     31     18.5200     11.6070      2.2270      1.5900     78.3900
     32     17.3510     12.5900      2.6060      2.1000     78.3900
     33     17.6670     13.1830      3.9220      1.5900     78.3900
     34     16.0450     11.9100      2.4560      1.5900     78.3900
     35     17.4420     13.7070      1.5040      1.5900     78.3900
     36     18.5690     14.6050      1.4130      1.7700     78.3900
     37     19.5410     14.0850      1.5900      0.0100     78.3900
     38     18.4790     15.4010      2.1810      0.0100     78.3900
     39     18.6330     15.2840      0.0380      1.7700     78.3900
     40     19.5350     15.9280     -0.0340      0.0100     78.3900
     41     18.7510     14.2860     -1.0010      1.5900     78.3900
     42     18.0760     14.7320     -2.1620      1.7700     78.3900
     43     18.8360     14.7620     -2.9770      0.0100     78.3900
     44     17.0020     13.8120     -2.5470      1.6800     78.3900
     45     16.5040     13.6750     -3.8080      1.7700     78.3900
     46     16.4840     14.6270     -7.1210      1.6800     78.3900
     47     17.1660     15.3510     -7.1460      0.0100     78.3900
     48     15.9700     14.4220     -7.9610      0.0100     78.3900
     49     16.9080     14.3690     -4.8820      1.6800     78.3900
     50     16.2680     14.0060     -5.9850      1.7700     78.3900
     51     15.3410     13.0050     -6.0150      1.6800     78.3900
     52     14.9260     12.7970     -6.9110      0.0100     78.3900
     53     14.9140     12.2580     -4.9240      1.7700     78.3900
     54     14.0640     11.3720     -5.0630      1.5900     78.3900
     55     15.5570     12.6760     -3.7280      1.7700     78.3900
     56     15.4330     12.2150     -2.4260      1.6800     78.3900
     57     16.3020     12.9320     -1.7540      1.7700     78.3900
     58     16.4950     12.8610     -0.6810      0.0100     78.3900
     59     17.5690     16.1280     -1.8960      1.7700     78.3900
     60     16.6010     16.3230     -2.3940      0.0100     78.3900
     61     18.5170     17.0870     -2.3250      1.5900     78.3900
     62     18.1460     17.9540     -2.0990      0.0100     78.3900
     63     17.4220     16.1280     -0.3820      1.7700     78.3900
     64     16.5120     15.5610     -0.0730      0.0100     78.3900
     65     17.5110     17.4420      0.2050      1.5900     78.3900
     66     16.2500     18.1710      0.7770      2.1000     78.3900
     67     16.7250     19.4000      1.4550      1.5900     78.3900
     68     15.4670     17.2300      1.6010      1.5900     78.3900
     69     15.4280     18.5620     -0.5150      1.5900     78.3900
     70     15.6290     19.8720     -1.1140      1.7700     78.3900
     71     16.6620     20.2650     -0.9300      0.0100     78.3900
     72     14.9070     20.5970     -0.6740      0.0100     78.3900
     73     15.4470     19.8870     -2.6440      1.7700     78.3900
     74     16.0390     20.7210     -3.0780      0.0100     78.3900
     75     15.9550     18.6610     -3.2400      1.5900     78.3900
     76     15.1290     18.2940     -4.3310      1.7700     78.3900
     77     15.7940     18.1670     -5.2140      0.0100     78.3900
     78     14.4120     17.0390     -4.0810      1.6800     78.3900
     79     13.8140     16.2550     -5.0300      1.7700     78.3900
     80     12.9100     15.6710     -8.3290      1.6800     78.3900
     81     13.3550     16.4160     -8.8190      0.0100     78.3900
     82     12.4340     14.9590     -8.8530      0.0100     78.3900
     83     13.7660     16.5070     -6.3530      1.6800     78.3900
     84     13.1120     15.5660     -7.0300      1.7700     78.3900
     85     12.6020     14.4480     -6.4350      1.6800     78.3900
     86     12.0690     13.8140     -7.0140      0.0100     78.3900
     87     12.6260     14.1780     -5.0690      1.7700     78.3900
     88     12.1460     13.1450     -4.6030      1.5900     78.3900
     89     13.2890     15.1870     -4.3410      1.7700     78.3900
     90     13.5060     15.3120     -2.9750      1.6800     78.3900
     91     14.1600     16.4400     -2.8650      1.7700     78.3900
     92     14.5150     16.8780     -1.9290      0.0100     78.3900
     93     14.1700     19.4270     -4.5790      1.7700     78.3900
     94     13.1960     19.0610     -4.9530      0.0100     78.3900
     95     14.7160     20.3490     -5.5030      1.5900     78.3900
     96     14.1080     21.1020     -5.5160      0.0100     78.3900
     97     14.0220     20.0270     -3.1890      1.7700     78.3900
     98     13.3730     19.3830     -2.5500      0.0100     78.3900
     99     13.6330     21.4140     -3.2060      1.5900     78.3900
    100     12.2520     21.8940     -2.6410      2.1000     78.3900
    101     12.2890     23.3730     -2.5440      1.5900     78.3900
    102     11.9470     21.1460     -1.4070      1.5900     78.3900
    103     11.2150     21.4820     -3.7580      1.5900     78.3900
    104     11.0360     22.3190     -4.9340      1.7700     78.3900
    105     11.9170     22.9800     -5.1210      0.0100     78.3900
    106     10.1520     22.9790     -4.7890      0.0100     78.3900
    107     10.8130     21.5180     -6.2290      1.7700     78.3900
    108     11.1200     22.1270     -7.1120      0.0100     78.3900
    109     11.6180     20.3080     -6.2290      1.5900     78.3900
    110     10.9480     19.2760     -6.9140      1.7700     78.3900
    111     11.6030     18.9810     -7.7670      0.0100     78.3900
    112     10.6970     18.0960     -6.0670      1.6800     78.3900
    113     10.1160     16.0780     -5.4110      1.7700     78.3900
    114     10.5470     16.7490     -4.2760      1.6800     78.3900
    115     10.8630     17.9460     -4.7090      1.7700     78.3900
    116     11.2320     18.7670     -4.0870      0.0100     78.3900
    117      9.3020     14.4170     -6.8870      1.6800     78.3900
    118      9.4240     15.3190     -7.8550      1.7700     78.3900
    119      9.1240     14.9830     -8.8540      0.0100     78.3900
    120      9.8640     16.5780     -7.7780      1.6800     78.3900
    121     10.2020     16.8970     -6.5190      1.7700     78.3900
    122      9.6360     14.7660     -5.6240      1.7700     78.3900
    123      9.5220     13.8390     -4.6650      1.6800     78.3900
    124      9.7980     13.9940     -3.7130      0.0100     78.3900
    125      9.0960     12.9610     -4.8780      0.0100     78.3900
    126      9.6600     19.8560     -7.4290      1.7700     78.3900
    127      8.8700     19.1060     -7.3370      0.0100     78.3900
    128      9.7870     20.2570     -8.7750      1.5900     78.3900
    129      8.9880     20.7630     -8.9870      0.0100     78.3900
    130      9.3920     21.0310     -6.4980      1.7700     78.3900
    131      8.9880     20.6840     -5.5170      0.0100     78.3900
    132      8.6060     22.0760     -7.1140      1.5900     78.3900
    133      7.1730     22.4640     -6.6140      2.1000     78.3900
    134      6.6400     23.5180     -7.5030      1.5900     78.3900
    135      7.2560     22.7930     -5.1730      1.5900     78.3900
    136      6.3180     21.1410     -6.8050      1.5900     78.3900
    137      5.7300     20.8520     -8.1090      1.7700     78.3900
    138      6.3100     21.3240     -8.9410      0.0100     78.3900
    139      4.7000     21.2720     -8.1580      0.0100     78.3900
    140      5.6590     19.3410     -8.4470      1.7700     78.3900
    141      5.6320     19.1950     -9.5510      0.0100     78.3900
    142      6.8340     18.6730     -7.9500      1.5900     78.3900
    143      6.5420     17.3730     -7.5100      1.7700     78.3900
    144      7.1830     16.6920     -8.1110      0.0100     78.3900
    145      6.8430     17.1820     -6.0740      1.6800     78.3900
    146      7.1920     16.2820     -4.0870      1.7700     78.3900
    147      7.4810     17.6390     -3.9650      1.6800     78.3900
    148      7.2470     18.1250     -5.1600      1.7700     78.3900
    149      7.3650     19.1740     -5.4440      0.0100     78.3900
    150      6.7890     13.9930     -3.6070      1.6800     78.3900
    151      6.4280     13.8700     -4.8890      1.7700     78.3900
    152      6.1100     12.8660     -5.1930      0.0100     78.3900
    153      6.4500     14.7870     -5.8640      1.6800     78.3900
    154      6.7900     15.9930     -5.3810      1.7700     78.3900
    155      7.2290     15.2030     -3.1680      1.7700     78.3900
    156      7.7390     15.2710     -1.9220      1.6800     78.3900
    157      7.9470     16.1500     -1.4910      0.0100     78.3900
    158      7.6230     14.4830     -1.3130      0.0100     78.3900
    159      5.1050     17.1330     -7.8360      1.7700     78.3900
    160      4.6250     16.5330     -7.0720      0.0100     78.3900
    161      4.9620     16.4720     -9.0760      1.5900     78.3900
    162      4.0130     16.4230     -9.2450      0.0100     78.3900
    163      4.5120     18.5380     -7.8410      1.7700     78.3900
    164      4.3660     18.9310     -6.8150      0.0100     78.3900
    165      3.3380     18.6740     -8.6420      1.5900     78.3900
    166      1.9140     18.1380     -8.2510      2.1000     78.3900
    167      1.3460     17.4880     -9.4390      1.5900     78.3900
    168      1.1680     19.2840     -7.6900      1.5900     78.3900
    169      2.1050     17.0770     -7.1060      1.5900     78.3900
    170      2.1160     15.6430     -7.2330      1.7700     78.3900
    171      2.7920     15.3360     -8.0620      0.0100     78.3900
    172      1.0990     15.2880     -7.4660      0.0100     78.3900
    173      2.5620     14.8670     -5.9610      1.7700     78.3900
    174      2.8410     13.8270     -6.2330      0.0100     78.3900
    175      3.7270     15.4780     -5.4150      1.5900     78.3900
    176      3.6650     15.6520     -4.0340      1.7700     78.3900
    177      4.5360     15.0750     -3.6650      0.0100     78.3900
    178      3.8880     17.0600     -3.6240      1.6800     78.3900
    179      3.5190     18.0580     -4.4730      1.7700     78.3900
    180      3.0230     17.7390     -5.3660      0.0100     78.3900
    181      3.7640     19.3440     -4.2160      1.7700     78.3900
    182      3.4710     20.1370     -4.9000      0.0100     78.3900
    183      4.5400     17.3770     -2.4380      1.7700     78.3900
    184      4.8950     16.4620     -1.6840      1.5900     78.3900
    185      4.7890     18.6770     -2.1390      1.6800     78.3900
    186      4.4340     19.6440     -3.0060      1.7700     78.3900
    187      4.7140     20.9080     -2.7200      1.6800     78.3900
    188      5.1660     21.1200     -1.8550      0.0100     78.3900
    189      4.4330     21.6580     -3.3190      0.0100     78.3900
    190      2.4200     14.9970     -3.5220      1.7700     78.3900
    191      1.8760     15.6140     -2.7770      0.0100     78.3900
    192      2.8020     13.7620     -2.9520      1.5900     78.3900
    193      2.9540     13.1410     -3.6760      0.0100     78.3900
    194      1.5700     14.8100     -4.8000      1.7700     78.3900
    195      0.9010     15.6850     -4.9440      0.0100     78.3900
    196      0.8450     13.5720     -4.8870      1.5900     78.3900
    197     -0.3100     13.1850     -3.8990      2.1000     78.3900
    198      0.1680     13.0560     -2.5080      1.5900     78.3900
    199     -1.0400     12.0190     -4.4280      1.5900     78.3900
    200     -1.2190     14.4560     -3.9800      1.5900     78.3900
    201     -2.2730     14.5770     -4.9510      1.7700     78.3900
    202     -2.6790     13.5880     -5.2760      0.0100     78.3900
    203     -1.8630     15.0870     -5.8460      0.0100     78.3900
    204     -3.4610     15.3670     -4.3790      1.7700     78.3900
    205     -4.0800     14.6920     -3.7530      0.0100     78.3900
    206     -3.0320     16.4920     -3.5570      1.5900     78.3900
    207     -3.2700     17.7010     -4.2430      1.7700     78.3900
    208     -4.1540     18.1460     -3.7260      0.0100     78.3900
    209     -2.0690     18.5560     -4.1850      1.6800     78.3900
    210     -0.8930     18.1140     -4.7450      1.7700     78.3900
    211     -0.9260     17.1140     -5.1850      0.0100     78.3900
    212     -2.1550     19.7870     -3.5810      1.7700     78.3900
    213     -3.1990     20.2160     -3.0920      1.5900     78.3900
    214     -0.9880     20.5040     -3.5670      1.6800     78.3900
    215     -1.0270     21.4020     -3.1060      0.0100     78.3900
    216      0.2190     20.1450     -4.1270      1.7700     78.3900
    217      1.1770     20.9130     -4.0650      1.5900     78.3900
    218      0.2240     18.8540     -4.7480      1.7700     78.3900
    219      1.1320     18.5120     -5.2340      0.0100     78.3900
    220     -3.6690     17.3640     -5.6620      1.7700     78.3900
    221     -2.7710     17.2640     -6.3080      0.0100     78.3900
    222     -4.5480     18.3220     -6.2190      1.5900     78.3900
    223     -4.8120     17.9950     -7.0960      0.0100     78.3900
    224     -4.3220     15.9990     -5.4750      1.7700     78.3900
    225     -4.1720     15.3640     -6.3750      0.0100     78.3900
    226     -5.7040     16.0500     -5.0870      1.5900     78.3900
    227     -6.8730     15.9090     -6.1220      2.1000     78.3900
    228     -7.7810     17.0620     -5.9350      1.5900     78.3900
    229     -7.4630     14.5690     -5.9260      1.5900     78.3900
    230     -6.1680     15.9850     -7.5470      1.5900     78.3900
    231     -6.6490     16.9190     -8.5430      1.7700     78.3900
    232     -7.0410     17.8570     -8.0850      0.0100     78.3900
    233     -7.4900     16.4570     -9.1070      0.0100     78.3900
    234     -5.5790     17.3740     -9.5570      1.7700     78.3900
    235     -5.8530     18.3770     -9.9500      0.0100     78.3900
    236     -4.2520     17.5010     -8.9730      1.5900     78.3900
    237     -3.2810     17.3570    -10.0100      1.7700     78.3900
    238     -2.8170     18.3610    -10.1300      0.0100     78.3900
    239     -2.2300     16.4020     -9.6600      1.6800     78.3900
    240     -0.4350     15.1370     -9.6600      1.7700     78.3900
    241     -1.0710     14.9270     -8.4390      1.6800     78.3900
    242     -2.1110     15.7070     -8.4920      1.7700     78.3900
    243     -2.8620     15.8020     -7.7150      0.0100     78.3900
    244      1.0230     14.9310    -11.5200      1.6800     78.3900
    245      0.2070     15.7830    -12.1440      1.7700     78.3900
    246      0.4920     16.0290    -13.1720      0.0100     78.3900
    247     -0.8870     16.4010    -11.6910      1.6800     78.3900
    248     -1.1490     16.0360    -10.4260      1.7700     78.3900
    249      0.7240     14.5790    -10.2470      1.7700     78.3900
    250      1.5330     13.6880     -9.6510      1.6800     78.3900
    251      1.3390     13.2990     -8.7500      0.0100     78.3900
    252      2.3570     13.3870    -10.1340      0.0100     78.3900
    253     -4.0140     16.9640    -11.2860      1.7700     78.3900
    254     -3.5090     16.1470    -11.8430      0.0100     78.3900
    255     -4.1360     18.0860    -12.1340      1.5900     78.3900
    256     -4.7790     17.8500    -12.8170      0.0100     78.3900
    257     -5.3690     16.4890    -10.7720      1.7700     78.3900
    258     -5.3000     15.4420    -10.3920      0.0100     78.3900
    259     -6.4400     16.7040    -11.7080      1.5900     78.3900
    260     -7.3120     15.5330    -12.2540      2.1000     78.3900
    261     -8.4490     16.1170    -12.9970      1.5900     78.3900
    262     -7.6450     14.6150    -11.1410      1.5900     78.3900
    263     -6.3160     14.8130    -13.2330      1.5900     78.3900
    264     -5.7590     15.5100    -14.3680      1.7700     78.3900
    265     -5.3570     16.5120    -14.0860      0.0100     78.3900
    266     -6.5510     15.6730    -15.1330      0.0100     78.3900
    267     -4.6300     14.7010    -15.0190      1.7700     78.3900
    268     -4.4400     15.0460    -16.0580      0.0100     78.3900
    269     -3.4030     14.9350    -14.2810      1.5900     78.3900
    270     -2.6190     13.7520    -14.2830      1.7700     78.3900
    271     -1.6750     14.0350    -14.8070      0.0100     78.3900
    272     -2.3100     13.2790    -12.9200      1.6800     78.3900
    273     -3.2030     13.4960    -11.8990      1.7700     78.3900
    274     -4.1070     14.0520    -12.1690      0.0100     78.3900
    275     -2.9410     13.0860    -10.6530      1.7700     78.3900
    276     -3.6150     13.2790     -9.8170      0.0100     78.3900
    277     -1.1460     12.5470    -12.6920      1.7700     78.3900
    278     -0.3820     12.3130    -13.6340      1.5900     78.3900
    279     -0.8820     12.1070    -11.4450      1.6800     78.3900
    280     -1.7170     12.3830    -10.4340      1.7700     78.3900
    281     -1.3730     12.0120     -9.2070      1.6800     78.3900
    282     -0.4400     11.7000     -9.0330      0.0100     78.3900
    283     -1.9320     12.2700     -8.4220      0.0100     78.3900
    284     -3.3380     12.6990    -15.1080      1.7700     78.3900
    285     -3.2300     11.6830    -14.6770      0.0100     78.3900
    286     -2.8700     12.6820    -16.4410      1.5900     78.3900
    287     -3.4630     12.0860    -16.9170      0.0100     78.3900
    288     -4.7830     13.1700    -15.0310      1.7700     78.3900
    289     -5.2100     12.8650    -14.0470      0.0100     78.3900
    290     -5.5860     12.7720    -16.1590      1.5900     78.3900
    291     -6.7690     11.7600    -16.0050      2.1000     78.3900
    292     -7.6420     11.8380    -17.1940      1.5900     78.3900
    293     -7.4040     11.9270    -14.6800      1.5900     78.3900
    294     -6.0410     10.3680    -16.0050      1.5900     78.3900
    295     -5.3650      9.8930    -17.1920      1.7700     78.3900
    296     -4.7830     10.7030    -17.6950      0.0100     78.3900
    297     -6.1150      9.5080    -17.9220      0.0100     78.3900
    298     -4.3920      8.7500    -16.8700      1.7700     78.3900
    299     -3.9630      8.3220    -17.8030      0.0100     78.3900
    300     -3.2850      9.2760    -16.0880      1.5900     78.3900
    301     -2.8760      8.3110    -15.1360      1.7700     78.3900
    302     -1.7990      8.1130    -15.3590      0.0100     78.3900
    303     -3.0550      8.8100    -13.7500      1.6800     78.3900
    304     -4.0970      9.6420    -13.4210      1.7700     78.3900
    305     -4.7130      9.9640    -14.2560      0.0100     78.3900
    306     -2.1950      8.3310    -12.7920      1.7700     78.3900
    307     -1.3140      7.5320    -13.0390      1.5900     78.3900
    308     -2.4260      8.8310    -11.5350      1.6800     78.3900
    309     -1.7780      8.4650    -10.8490      0.0100     78.3900
    310     -3.4260      9.6800    -11.1280      1.7700     78.3900
    311     -3.4960     10.0430     -9.9560      1.5900     78.3900
    312     -4.2960     10.1070    -12.1800      1.7700     78.3900
    313     -5.0880     10.8150    -11.9570      0.0100     78.3900
    314     -3.6840      7.0500    -15.3880      1.7700     78.3900
    315     -3.9060      6.5090    -14.4500      0.0100     78.3900
    316     -3.0010      6.1840    -16.2750      1.5900     78.3900
    317     -3.5440      5.3880    -16.3300      0.0100     78.3900
    318     -4.9560      7.6040    -16.0150      1.7700     78.3900
    319     -5.6080      8.0600    -15.2360      0.0100     78.3900
    320     -5.6570      6.6760    -16.8620      1.5900     78.3900
    321     -6.8420      5.8020    -16.3170      2.1000     78.3900
    322     -7.4620      5.0930    -17.4580      1.5900     78.3900
    323     -7.7290      6.6530    -15.4930      1.5900     78.3900
    324     -6.1520      4.7470    -15.3730      1.5900     78.3900
    325     -5.7500      3.4540    -15.8910      1.7700     78.3900
    326     -5.3500      3.5390    -16.9290      0.0100     78.3900
    327     -6.6290      2.7680    -15.9240      0.0100     78.3900
    328     -4.6510      2.7840    -15.0420      1.7700     78.3900
    329     -4.1030      2.0310    -15.6490      0.0100     78.3900
    330     -3.6730      3.7650    -14.5840      1.5900     78.3900
    331     -3.2920      3.4600    -13.2490      1.7700     78.3900
    332     -2.1810      3.3980    -13.2440      0.0100     78.3900
    333     -3.7110      4.5130    -12.3100      1.6800     78.3900
    334     -3.1380      4.7700    -11.0950      1.7700     78.3900
    335     -0.9260      3.9180     -8.5640      1.6800     78.3900
    336     -0.4240      3.1530     -8.9620      0.0100     78.3900
    337     -0.7560      4.1860     -7.6180      0.0100     78.3900
    338     -2.1240      4.0840    -10.5380      1.6800     78.3900
    339     -1.8240      4.5310     -9.3180      1.7700     78.3900
    340     -2.4200      5.6300     -8.7620      1.6800     78.3900
    341     -2.1640      5.8850     -7.8200      0.0100     78.3900
    342     -3.4490      6.3680     -9.3280      1.7700     78.3900
    343     -3.9550      7.3370     -8.7550      1.5900     78.3900
    344     -3.8290      5.8530    -10.5870      1.7700     78.3900
    345     -4.8410      6.2540    -11.4470      1.6800     78.3900
    346     -4.7440      5.4170    -12.4490      1.7700     78.3900
    347     -5.3840      5.4250    -13.3310      0.0100     78.3900
    348     -3.8770      2.1060    -12.8940      1.7700     78.3900
    349     -4.1420      2.0350    -11.8170      0.0100     78.3900
    350     -2.9500      1.0840    -13.2330      1.5900     78.3900
    351     -3.3830      0.2120    -13.1690      0.0100     78.3900
    352     -5.1290      2.0770    -13.7670      1.7700     78.3900
    353     -5.9360      2.6970    -13.3220      0.0100     78.3900
    354     -5.5990      0.7540    -14.0740      1.5900     78.3900
    355     -5.8730      0.3050    -13.2550      0.0100     78.3900
    356      1.1980      8.9990     -0.7620      0.0100     78.3900
    357      1.0230      8.1960     -1.2900      1.5900     78.3900
    358      1.0870      7.0780     -0.3900      1.7700     78.3900
    359      0.2930      7.1920      0.3780      0.0100     78.3900
    360      2.0650      7.0990      0.1420      0.0100     78.3900
    361      0.9220      5.7030     -1.0610      1.7700     78.3900
    362      1.1370      4.8920     -0.3340      0.0100     78.3900
    363     -0.4590      5.5170     -1.5000      1.5900     78.3900
    364     -0.4670      4.9440     -2.8070      1.7700     78.3900
    365     -1.1260      4.0460     -2.7390      0.0100     78.3900
    366     -1.0240      5.8620     -3.8390      1.6800     78.3900
    367     -1.1100      7.2110     -3.5720      1.7700     78.3900
    368     -0.7610      7.5390     -2.5920      0.0100     78.3900
    369     -1.6330      8.0680     -4.4490      1.7700     78.3900
    370     -1.7330      9.1320     -4.2430      0.0100     78.3900
    371     -1.4040      5.3870     -5.0990      1.7700     78.3900
    372     -1.2370      4.1930     -5.3790      1.5900     78.3900
    373     -1.9600      6.2420     -5.9890      1.6800     78.3900
    374     -2.1060      7.5430     -5.6770      1.7700     78.3900
    375     -2.7470      8.3480     -6.5120      1.6800     78.3900
    376     -3.1050      7.9980     -7.3830      0.0100     78.3900
    377     -2.8080      9.3300     -6.3400      0.0100     78.3900
    378      0.9430      4.4890     -3.1200      1.7700     78.3900
    379      1.1850      4.5610     -4.2020      0.0100     78.3900
    380      1.1310      3.1600     -2.6770      1.5900     78.3900
    381      2.0860      3.0110     -2.6650      0.0100     78.3900
    382      1.7800      5.4690     -2.3090      1.7700     78.3900
    383      1.8350      6.4450     -2.8490      0.0100     78.3900
    384      3.0710      4.9570     -1.9090      1.5900     78.3900
    385      4.3680      5.4920     -2.6070      2.1000     78.3900
    386      5.5410      4.7890     -2.0270      1.5900     78.3900
    387      4.3840      6.9630     -2.5620      1.5900     78.3900
    388      4.1720      5.0260     -4.0920      1.5900     78.3900
    389      4.2480      3.6140     -4.4070      1.7700     78.3900
    390      3.5080      3.0230     -3.8200      0.0100     78.3900
    391      5.2630      3.2120     -4.1860      0.0100     78.3900
    392      3.9560      3.3860     -5.8940      1.7700     78.3900
    393      4.0760      2.3150     -6.1700      0.0100     78.3900
    394      2.5780      3.7420     -6.1760      1.5900     78.3900
    395      2.4920      4.3000     -7.4710      1.7700     78.3900
    396      1.8510      3.6040     -8.0620      0.0100     78.3900
    397      1.8600      5.6090     -7.4490      1.6800     78.3900
    398      0.7070      7.3770     -8.0130      1.7700     78.3900
    399      1.0000      7.5220     -6.6640      1.6800     78.3900
    400      1.6940      6.4510     -6.3780      1.7700     78.3900
    401      2.0980      6.2000     -5.3940      0.0100     78.3900
    402     -0.2230      7.6810    -10.1640      1.6800     78.3900
    403      0.4460      6.5880    -10.5340      1.7700     78.3900
    404      0.3170      6.2930    -11.5810      0.0100     78.3900
    405      1.2070      5.7810     -9.7880      1.6800     78.3900
    406      1.2670      6.2240     -8.5180      1.7700     78.3900
    407     -0.1060      8.1160     -8.8930      1.7700     78.3900
    408     -0.7760      9.2160     -8.5360      1.6800     78.3900
    409     -0.6480      9.6030     -7.6200      0.0100     78.3900
    410     -1.3830      9.6940     -9.1710      0.0100     78.3900
    411      3.8680      4.3410     -8.0790      1.7700     78.3900
    412      4.0540      5.2990     -8.6080      0.0100     78.3900
    413      4.0400      3.2570     -8.9650      1.5900     78.3900
    414      4.9450      3.3340     -9.2950      0.0100     78.3900
    415      4.7760      4.2370     -6.8610      1.7700     78.3900
    416      4.8670      5.2500     -6.3990      0.0100     78.3900
    417      6.0480      3.5980     -7.1080      1.5900     78.3900
    418      7.3560      4.4560     -7.1510      2.1000     78.3900
    419      8.5260      3.5520     -7.1460      1.5900     78.3900
    420      7.3110      5.4750     -6.0820      1.5900     78.3900
    421      7.2530      5.1930     -8.5420      1.5900     78.3900
    422      7.1720      4.4280     -9.7720      1.7700     78.3900
    423      6.5440      3.5140     -9.6670      0.0100     78.3900
    424      8.1830      4.0810    -10.0710      0.0100     78.3900
    425      6.5970      5.2670    -10.9230      1.7700     78.3900
    426      6.5820      4.6880    -11.8700      0.0100     78.3900
    427      5.2240      5.6170    -10.6350      1.5900     78.3900
    428      4.9070      6.8600    -11.2290      1.7700     78.3900
    429      4.1850      6.6250    -12.0450      0.0100     78.3900
    430      4.2700      7.7780    -10.2860      1.6800     78.3900
    431      3.2620      8.6520    -10.5930      1.7700     78.3900
    432      0.9890      9.9380    -12.8630      1.6800     78.3900
    433      0.3500     10.7100    -12.9090      0.0100     78.3900
    434      1.1930      9.4250    -13.6890      0.0100     78.3900
    435      2.6880      8.8000    -11.8010      1.6800     78.3900
    436      1.7100      9.7030    -11.7860      1.7700     78.3900
    437      1.4220     10.4720    -10.6930      1.6800     78.3900
    438      0.6750     11.1430    -10.7890      0.0100     78.3900
    439      2.0180     10.3600     -9.4430      1.7700     78.3900
    440      1.6710     11.0830     -8.5030      1.5900     78.3900
    441      3.0020      9.3360     -9.4240      1.7700     78.3900
    442      3.8180      8.8820     -8.3910      1.6800     78.3900
    443      4.5650      7.9610     -8.9550      1.7700     78.3900
    444      5.3390      7.3730     -8.4540      0.0100     78.3900
    445      6.1730      7.4470    -11.8200      1.7700     78.3900
    446      6.3140      8.5170    -11.5500      0.0100     78.3900
    447      6.1540      7.3130    -13.2260      1.5900     78.3900
    448      7.0670      7.4400    -13.5210      0.0100     78.3900
    449      7.2840      6.6040    -11.1880      1.7700     78.3900
    450      7.5530      7.0280    -10.1920      0.0100     78.3900
    451      8.4260      6.3960    -12.0380      1.5900     78.3900
    452      9.8200      7.0580    -11.7690      2.1000     78.3900
    453     10.7300      6.6300    -12.8490      1.5900     78.3900
    454     10.2620      6.7780    -10.3880      1.5900     78.3900
    455      9.5250      8.6000    -11.9160      1.5900     78.3900
    456      9.0560      9.1420    -13.1770      1.7700     78.3900
    457      7.9520      9.0470    -13.2470      0.0100     78.3900
    458      9.5100      8.6150    -14.0490      0.0100     78.3900
    459      9.3640     10.6390    -13.3280      1.7700     78.3900
    460      8.9330     11.0370    -14.2690      0.0100     78.3900
    461      8.7630     11.3940    -12.2360      1.5900     78.3900
    462      9.7060     12.3360    -11.7330      1.7700     78.3900
    463      9.1680     13.3140    -11.7160      0.0100     78.3900
    464     10.1640     12.0270    -10.3410      1.6800     78.3900
    465      9.6920     10.8990     -9.7020      1.7700     78.3900
    466      9.0440     10.2420    -10.2870      0.0100     78.3900
    467     10.0410     10.6060     -8.4470      1.7700     78.3900
    468      9.6880      9.7100     -7.9390      0.0100     78.3900
    469     10.9670     12.9220     -9.6280      1.7700     78.3900
    470     11.3070     13.9900    -10.1560      1.5900     78.3900
    471     11.3560     12.6210     -8.3690      1.6800     78.3900
    472     10.9000     11.5080     -7.7660      1.7700     78.3900
    473     11.2730     11.2240     -6.5190      1.6800     78.3900
    474     11.7530     11.8980     -5.9520      0.0100     78.3900
    475     10.9590     10.3910     -6.0680      0.0100     78.3900
    476     10.8380     12.4080    -12.7430      1.7700     78.3900
    477     11.8090     12.6440    -12.2690      0.0100     78.3900
    478     10.5530     13.3690    -13.7470      1.5900     78.3900
    479     11.2590     13.2870    -14.4000      0.0100     78.3900
    480     10.8540     10.9860    -13.2990      1.7700     78.3900
    481     11.3250     10.2980    -12.5580      0.0100     78.3900
    482     11.3980     10.8590    -14.6310      1.5900     78.3900
    483     12.7880     10.1820    -14.9100      2.1000     78.3900
    484     12.8720      9.7690    -16.3290      1.5900     78.3900
    485     13.0520      9.1470    -13.8950      1.5900     78.3900
    486     13.8000     11.3500    -14.6640      1.5900     78.3900
    487     13.7000     12.6270    -15.3200      1.7700     78.3900
    488     12.6490     12.9870    -15.3870      0.0100     78.3900
    489     14.0970     12.5540    -16.3570      0.0100     78.3900
    490     14.5120     13.6810    -14.5620      1.7700     78.3900
    491     14.6100     14.6140    -15.1570      0.0100     78.3900
    492     13.7920     14.0290    -13.3490      1.5900     78.3900
    493     14.7190     14.2500    -12.3010      1.7700     78.3900
    494     14.5360     15.2960    -11.9540      0.0100     78.3900
    495     14.5230     13.3070    -11.1670      1.6800     78.3900
    496     14.1140     12.0230    -11.4080      1.7700     78.3900
    497     13.8850     11.7880    -12.4460      0.0100     78.3900
    498     13.9200     11.1510    -10.4110      1.7700     78.3900
    499     13.5370     10.1510    -10.5840      0.0100     78.3900
    500     14.8750     13.6780     -9.8750      1.7700     78.3900
    501     15.3780     14.7890     -9.6920      1.5900     78.3900
    502     14.6630     12.8250     -8.8430      1.6800     78.3900
    503     14.2000     11.5870     -9.0850      1.7700     78.3900
    504     14.0160     10.7360     -8.0710      1.6800     78.3900
    505     14.0110     11.0510     -7.1220      0.0100     78.3900
    506     13.6850      9.8060     -8.2550      0.0100     78.3900
    507     16.1080     14.1760    -12.8910      1.7700     78.3900
    508     16.8260     13.7320    -12.1780      0.0100     78.3900
    509     16.5380     15.4610    -13.2990      1.5900     78.3900
    510     17.3580     15.3190    -13.7890      0.0100     78.3900
    511     15.9130     13.2530    -14.0850      1.7700     78.3900
    512     15.8460     12.1980    -13.7350      0.0100     78.3900
    513     16.8760     13.4290    -15.1500      1.5900     78.3900
    514     18.1400     12.5010    -15.2620      2.1000     78.3900
    515     18.9040     12.9160    -16.4620      1.5900     78.3900
    516     17.7340     11.0850    -15.2040      1.5900     78.3900
    517     18.9880     12.8220    -13.9740      1.5900     78.3900
    518     19.6060     14.1140    -13.7680      1.7700     78.3900
    519     18.9190     14.9520    -14.0200      0.0100     78.3900
    520     20.4980     14.2250    -14.4270      0.0100     78.3900
    521     20.0760     14.2810    -12.3100      1.7700     78.3900
    522     20.5640     15.2680    -12.1670      0.0100     78.3900
    523     18.9440     14.2320    -11.4040      1.5900     78.3900
    524     19.3160     13.6000    -10.1970      1.7700     78.3900
    525     19.1690     14.3790     -9.4150      0.0100     78.3900
    526     18.4670     12.4160     -9.9070      1.6800     78.3900
    527     17.9940     11.5950    -10.9050      1.7700     78.3900
    528     18.2560     11.8930    -11.9210      0.0100     78.3900
    529     18.2650     12.1040     -8.5870      1.7700     78.3900
    530     18.7630     12.7490     -7.6720      1.5900     78.3900
    531     17.4880     11.0010     -8.3700      1.6800     78.3900
    532     17.3500     10.7640     -7.3940      0.0100     78.3900
    533     17.0220     10.1030     -9.3010      1.7700     78.3900
    534     16.4220      9.0920     -8.9400      1.5900     78.3900
    535     17.2890     10.4780    -10.6550      1.7700     78.3900
    536     16.9370      9.8220    -11.4470      0.0100     78.3900
    537     20.7950     13.2550    -10.2830      1.7700     78.3900
    538     21.0200     12.2680     -9.8200      0.0100     78.3900
    539     21.5580     14.2750     -9.6590      1.5900     78.3900
    540     22.4950     14.1560     -9.8940      0.0100     78.3900
    541     21.0210     13.1940    -11.7940      1.7700     78.3900
    542     20.6700     12.2160    -12.1950      0.0100     78.3900
    543     22.3770     13.4610    -12.2010      1.5900     78.3900
    544     22.9740     12.7700    -11.8570      0.0100     78.3900

     ----------------------------
     INPUT FOR TESSERA DEFINITION
     ----------------------------
     NTSALL  =        60     MTHALL  =         4
     MTHAUT  =         0     AUTFRE  =    2.0000
     NTSFRZ  =        60     KEEPSM  =         0
     AREAKP  =   10.0000     BONDRY  =    1.0000
     AREATL  =    0.0100

     SPHERE     INITS       METHOD
          1        60       FIXPVA
          2        60       FIXPVA
          3        60       FIXPVA
          4        60       FIXPVA
          5        60       FIXPVA
          6        60       FIXPVA
          7        60       FIXPVA
          8        60       FIXPVA
          9        60       FIXPVA
         10        60       FIXPVA
         11        60       FIXPVA
         12        60       FIXPVA
         13        60       FIXPVA
         14        60       FIXPVA
         15        60       FIXPVA
         16        60       FIXPVA
         17        60       FIXPVA
         18        60       FIXPVA
         19        60       FIXPVA
         20        60       FIXPVA
         21        60       FIXPVA
         22        60       FIXPVA
         23        60       FIXPVA
         24        60       FIXPVA
         25        60       FIXPVA
         26        60       FIXPVA
         27        60       FIXPVA
         28        60       FIXPVA
         29        60       FIXPVA
         30        60       FIXPVA
         31        60       FIXPVA
         32        60       FIXPVA
         33        60       FIXPVA
         34        60       FIXPVA
         35        60       FIXPVA
         36        60       FIXPVA
         37        60       FIXPVA
         38        60       FIXPVA
         39        60       FIXPVA
         40        60       FIXPVA
         41        60       FIXPVA
         42        60       FIXPVA
         43        60       FIXPVA
         44        60       FIXPVA
         45        60       FIXPVA
         46        60       FIXPVA
         47        60       FIXPVA
         48        60       FIXPVA
         49        60       FIXPVA
         50        60       FIXPVA
         51        60       FIXPVA
         52        60       FIXPVA
         53        60       FIXPVA
         54        60       FIXPVA
         55        60       FIXPVA
         56        60       FIXPVA
         57        60       FIXPVA
         58        60       FIXPVA
         59        60       FIXPVA
         60        60       FIXPVA
         61        60       FIXPVA
         62        60       FIXPVA
         63        60       FIXPVA
         64        60       FIXPVA
         65        60       FIXPVA
         66        60       FIXPVA
         67        60       FIXPVA
         68        60       FIXPVA
         69        60       FIXPVA
         70        60       FIXPVA
         71        60       FIXPVA
         72        60       FIXPVA
         73        60       FIXPVA
         74        60       FIXPVA
         75        60       FIXPVA
         76        60       FIXPVA
         77        60       FIXPVA
         78        60       FIXPVA
         79        60       FIXPVA
         80        60       FIXPVA
         81        60       FIXPVA
         82        60       FIXPVA
         83        60       FIXPVA
         84        60       FIXPVA
         85        60       FIXPVA
         86        60       FIXPVA
         87        60       FIXPVA
         88        60       FIXPVA
         89        60       FIXPVA
         90        60       FIXPVA
         91        60       FIXPVA
         92        60       FIXPVA
         93        60       FIXPVA
         94        60       FIXPVA
         95        60       FIXPVA
         96        60       FIXPVA
         97        60       FIXPVA
         98        60       FIXPVA
         99        60       FIXPVA
        100        60       FIXPVA
        101        60       FIXPVA
        102        60       FIXPVA
        103        60       FIXPVA
        104        60       FIXPVA
        105        60       FIXPVA
        106        60       FIXPVA
        107        60       FIXPVA
        108        60       FIXPVA
        109        60       FIXPVA
        110        60       FIXPVA
        111        60       FIXPVA
        112        60       FIXPVA
        113        60       FIXPVA
        114        60       FIXPVA
        115        60       FIXPVA
        116        60       FIXPVA
        117        60       FIXPVA
        118        60       FIXPVA
        119        60       FIXPVA
        120        60       FIXPVA
        121        60       FIXPVA
        122        60       FIXPVA
        123        60       FIXPVA
        124        60       FIXPVA
        125        60       FIXPVA
        126        60       FIXPVA
        127        60       FIXPVA
        128        60       FIXPVA
        129        60       FIXPVA
        130        60       FIXPVA
        131        60       FIXPVA
        132        60       FIXPVA
        133        60       FIXPVA
        134        60       FIXPVA
        135        60       FIXPVA
        136        60       FIXPVA
        137        60       FIXPVA
        138        60       FIXPVA
        139        60       FIXPVA
        140        60       FIXPVA
        141        60       FIXPVA
        142        60       FIXPVA
        143        60       FIXPVA
        144        60       FIXPVA
        145        60       FIXPVA
        146        60       FIXPVA
        147        60       FIXPVA
        148        60       FIXPVA
        149        60       FIXPVA
        150        60       FIXPVA
        151        60       FIXPVA
        152        60       FIXPVA
        153        60       FIXPVA
        154        60       FIXPVA
        155        60       FIXPVA
        156        60       FIXPVA
        157        60       FIXPVA
        158        60       FIXPVA
        159        60       FIXPVA
        160        60       FIXPVA
        161        60       FIXPVA
        162        60       FIXPVA
        163        60       FIXPVA
        164        60       FIXPVA
        165        60       FIXPVA
        166        60       FIXPVA
        167        60       FIXPVA
        168        60       FIXPVA
        169        60       FIXPVA
        170        60       FIXPVA
        171        60       FIXPVA
        172        60       FIXPVA
        173        60       FIXPVA
        174        60       FIXPVA
        175        60       FIXPVA
        176        60       FIXPVA
        177        60       FIXPVA
        178        60       FIXPVA
        179        60       FIXPVA
        180        60       FIXPVA
        181        60       FIXPVA
        182        60       FIXPVA
        183        60       FIXPVA
        184        60       FIXPVA
        185        60       FIXPVA
        186        60       FIXPVA
        187        60       FIXPVA
        188        60       FIXPVA
        189        60       FIXPVA
        190        60       FIXPVA
        191        60       FIXPVA
        192        60       FIXPVA
        193        60       FIXPVA
        194        60       FIXPVA
        195        60       FIXPVA
        196        60       FIXPVA
        197        60       FIXPVA
        198        60       FIXPVA
        199        60       FIXPVA
        200        60       FIXPVA
        201        60       FIXPVA
        202        60       FIXPVA
        203        60       FIXPVA
        204        60       FIXPVA
        205        60       FIXPVA
        206        60       FIXPVA
        207        60       FIXPVA
        208        60       FIXPVA
        209        60       FIXPVA
        210        60       FIXPVA
        211        60       FIXPVA
        212        60       FIXPVA
        213        60       FIXPVA
        214        60       FIXPVA
        215        60       FIXPVA
        216        60       FIXPVA
        217        60       FIXPVA
        218        60       FIXPVA
        219        60       FIXPVA
        220        60       FIXPVA
        221        60       FIXPVA
        222        60       FIXPVA
        223        60       FIXPVA
        224        60       FIXPVA
        225        60       FIXPVA
        226        60       FIXPVA
        227        60       FIXPVA
        228        60       FIXPVA
        229        60       FIXPVA
        230        60       FIXPVA
        231        60       FIXPVA
        232        60       FIXPVA
        233        60       FIXPVA
        234        60       FIXPVA
        235        60       FIXPVA
        236        60       FIXPVA
        237        60       FIXPVA
        238        60       FIXPVA
        239        60       FIXPVA
        240        60       FIXPVA
        241        60       FIXPVA
        242        60       FIXPVA
        243        60       FIXPVA
        244        60       FIXPVA
        245        60       FIXPVA
        246        60       FIXPVA
        247        60       FIXPVA
        248        60       FIXPVA
        249        60       FIXPVA
        250        60       FIXPVA
        251        60       FIXPVA
        252        60       FIXPVA
        253        60       FIXPVA
        254        60       FIXPVA
        255        60       FIXPVA
        256        60       FIXPVA
        257        60       FIXPVA
        258        60       FIXPVA
        259        60       FIXPVA
        260        60       FIXPVA
        261        60       FIXPVA
        262        60       FIXPVA
        263        60       FIXPVA
        264        60       FIXPVA
        265        60       FIXPVA
        266        60       FIXPVA
        267        60       FIXPVA
        268        60       FIXPVA
        269        60       FIXPVA
        270        60       FIXPVA
        271        60       FIXPVA
        272        60       FIXPVA
        273        60       FIXPVA
        274        60       FIXPVA
        275        60       FIXPVA
        276        60       FIXPVA
        277        60       FIXPVA
        278        60       FIXPVA
        279        60       FIXPVA
        280        60       FIXPVA
        281        60       FIXPVA
        282        60       FIXPVA
        283        60       FIXPVA
        284        60       FIXPVA
        285        60       FIXPVA
        286        60       FIXPVA
        287        60       FIXPVA
        288        60       FIXPVA
        289        60       FIXPVA
        290        60       FIXPVA
        291        60       FIXPVA
        292        60       FIXPVA
        293        60       FIXPVA
        294        60       FIXPVA
        295        60       FIXPVA
        296        60       FIXPVA
        297        60       FIXPVA
        298        60       FIXPVA
        299        60       FIXPVA
        300        60       FIXPVA
        301        60       FIXPVA
        302        60       FIXPVA
        303        60       FIXPVA
        304        60       FIXPVA
        305        60       FIXPVA
        306        60       FIXPVA
        307        60       FIXPVA
        308        60       FIXPVA
        309        60       FIXPVA
        310        60       FIXPVA
        311        60       FIXPVA
        312        60       FIXPVA
        313        60       FIXPVA
        314        60       FIXPVA
        315        60       FIXPVA
        316        60       FIXPVA
        317        60       FIXPVA
        318        60       FIXPVA
        319        60       FIXPVA
        320        60       FIXPVA
        321        60       FIXPVA
        322        60       FIXPVA
        323        60       FIXPVA
        324        60       FIXPVA
        325        60       FIXPVA
        326        60       FIXPVA
        327        60       FIXPVA
        328        60       FIXPVA
        329        60       FIXPVA
        330        60       FIXPVA
        331        60       FIXPVA
        332        60       FIXPVA
        333        60       FIXPVA
        334        60       FIXPVA
        335        60       FIXPVA
        336        60       FIXPVA
        337        60       FIXPVA
        338        60       FIXPVA
        339        60       FIXPVA
        340        60       FIXPVA
        341        60       FIXPVA
        342        60       FIXPVA
        343        60       FIXPVA
        344        60       FIXPVA
        345        60       FIXPVA
        346        60       FIXPVA
        347        60       FIXPVA
        348        60       FIXPVA
        349        60       FIXPVA
        350        60       FIXPVA
        351        60       FIXPVA
        352        60       FIXPVA
        353        60       FIXPVA
        354        60       FIXPVA
        355        60       FIXPVA
        356        60       FIXPVA
        357        60       FIXPVA
        358        60       FIXPVA
        359        60       FIXPVA
        360        60       FIXPVA
        361        60       FIXPVA
        362        60       FIXPVA
        363        60       FIXPVA
        364        60       FIXPVA
        365        60       FIXPVA
        366        60       FIXPVA
        367        60       FIXPVA
        368        60       FIXPVA
        369        60       FIXPVA
        370        60       FIXPVA
        371        60       FIXPVA
        372        60       FIXPVA
        373        60       FIXPVA
        374        60       FIXPVA
        375        60       FIXPVA
        376        60       FIXPVA
        377        60       FIXPVA
        378        60       FIXPVA
        379        60       FIXPVA
        380        60       FIXPVA
        381        60       FIXPVA
        382        60       FIXPVA
        383        60       FIXPVA
        384        60       FIXPVA
        385        60       FIXPVA
        386        60       FIXPVA
        387        60       FIXPVA
        388        60       FIXPVA
        389        60       FIXPVA
        390        60       FIXPVA
        391        60       FIXPVA
        392        60       FIXPVA
        393        60       FIXPVA
        394        60       FIXPVA
        395        60       FIXPVA
        396        60       FIXPVA
        397        60       FIXPVA
        398        60       FIXPVA
        399        60       FIXPVA
        400        60       FIXPVA
        401        60       FIXPVA
        402        60       FIXPVA
        403        60       FIXPVA
        404        60       FIXPVA
        405        60       FIXPVA
        406        60       FIXPVA
        407        60       FIXPVA
        408        60       FIXPVA
        409        60       FIXPVA
        410        60       FIXPVA
        411        60       FIXPVA
        412        60       FIXPVA
        413        60       FIXPVA
        414        60       FIXPVA
        415        60       FIXPVA
        416        60       FIXPVA
        417        60       FIXPVA
        418        60       FIXPVA
        419        60       FIXPVA
        420        60       FIXPVA
        421        60       FIXPVA
        422        60       FIXPVA
        423        60       FIXPVA
        424        60       FIXPVA
        425        60       FIXPVA
        426        60       FIXPVA
        427        60       FIXPVA
        428        60       FIXPVA
        429        60       FIXPVA
        430        60       FIXPVA
        431        60       FIXPVA
        432        60       FIXPVA
        433        60       FIXPVA
        434        60       FIXPVA
        435        60       FIXPVA
        436        60       FIXPVA
        437        60       FIXPVA
        438        60       FIXPVA
        439        60       FIXPVA
        440        60       FIXPVA
        441        60       FIXPVA
        442        60       FIXPVA
        443        60       FIXPVA
        444        60       FIXPVA
        445        60       FIXPVA
        446        60       FIXPVA
        447        60       FIXPVA
        448        60       FIXPVA
        449        60       FIXPVA
        450        60       FIXPVA
        451        60       FIXPVA
        452        60       FIXPVA
        453        60       FIXPVA
        454        60       FIXPVA
        455        60       FIXPVA
        456        60       FIXPVA
        457        60       FIXPVA
        458        60       FIXPVA
        459        60       FIXPVA
        460        60       FIXPVA
        461        60       FIXPVA
        462        60       FIXPVA
        463        60       FIXPVA
        464        60       FIXPVA
        465        60       FIXPVA
        466        60       FIXPVA
        467        60       FIXPVA
        468        60       FIXPVA
        469        60       FIXPVA
        470        60       FIXPVA
        471        60       FIXPVA
        472        60       FIXPVA
        473        60       FIXPVA
        474        60       FIXPVA
        475        60       FIXPVA
        476        60       FIXPVA
        477        60       FIXPVA
        478        60       FIXPVA
        479        60       FIXPVA
        480        60       FIXPVA
        481        60       FIXPVA
        482        60       FIXPVA
        483        60       FIXPVA
        484        60       FIXPVA
        485        60       FIXPVA
        486        60       FIXPVA
        487        60       FIXPVA
        488        60       FIXPVA
        489        60       FIXPVA
        490        60       FIXPVA
        491        60       FIXPVA
        492        60       FIXPVA
        493        60       FIXPVA
        494        60       FIXPVA
        495        60       FIXPVA
        496        60       FIXPVA
        497        60       FIXPVA
        498        60       FIXPVA
        499        60       FIXPVA
        500        60       FIXPVA
        501        60       FIXPVA
        502        60       FIXPVA
        503        60       FIXPVA
        504        60       FIXPVA
        505        60       FIXPVA
        506        60       FIXPVA
        507        60       FIXPVA
        508        60       FIXPVA
        509        60       FIXPVA
        510        60       FIXPVA
        511        60       FIXPVA
        512        60       FIXPVA
        513        60       FIXPVA
        514        60       FIXPVA
        515        60       FIXPVA
        516        60       FIXPVA
        517        60       FIXPVA
        518        60       FIXPVA
        519        60       FIXPVA
        520        60       FIXPVA
        521        60       FIXPVA
        522        60       FIXPVA
        523        60       FIXPVA
        524        60       FIXPVA
        525        60       FIXPVA
        526        60       FIXPVA
        527        60       FIXPVA
        528        60       FIXPVA
        529        60       FIXPVA
        530        60       FIXPVA
        531        60       FIXPVA
        532        60       FIXPVA
        533        60       FIXPVA
        534        60       FIXPVA
        535        60       FIXPVA
        536        60       FIXPVA
        537        60       FIXPVA
        538        60       FIXPVA
        539        60       FIXPVA
        540        60       FIXPVA
        541        60       FIXPVA
        542        60       FIXPVA
        543        60       FIXPVA
        544        60       FIXPVA

     ------------------------------
      FIXPVA TESSELLATION FOR PCM
         PEIFENG SU AND HUI LI
     UNIVERSITY OF NEBRASKA-LINCOLN
     ------------------------------


 PCM DIMENSIONS: MXSP=   544, MXTS=     21760, MEMORY=        223587

     INPUT FOR CAVITY DEFINITION 
     ---------------------------
   ATOM               COORDINATES                RADIUS       EPS
      1     16.7930      7.6690      2.6680      0.0100     78.3900
      2     17.1470      8.3080      2.0190      1.5900     78.3900
      3     18.5670      8.3630      2.2040      1.7700     78.3900
      4     19.0090      7.3700      1.9570      0.0100     78.3900
      5     18.7840      8.5720      3.2750      0.0100     78.3900
      6     19.2340      9.4470      1.3520      1.7700     78.3900
      7     20.2170      9.7410      1.7800      0.0100     78.3900
      8     19.5080      8.9140      0.0290      1.5900     78.3900
      9     19.2990      9.9270     -0.9320      1.7700     78.3900
     10     20.2480     10.0280     -1.5100      0.0100     78.3900
     11     18.2130      9.5520     -1.8390      1.6800     78.3900
     12     16.9330      9.3560     -3.6100      1.7700     78.3900
     13     16.4150      8.4780     -2.6670      1.6800     78.3900
     14     17.2070      8.6340     -1.6310      1.7700     78.3900
     15     17.1200      8.0900     -0.6850      0.0100     78.3900
     16     17.3180     10.5590     -5.6060      1.6800     78.3900
     17     18.3180     11.1690     -4.9620      1.7700     78.3900
     18     18.8660     11.9270     -5.5310      0.0100     78.3900
     19     18.7790     10.9540     -3.7290      1.6800     78.3900
     20     18.0330     10.0300     -3.1040      1.7700     78.3900
     21     16.5880      9.6220     -4.9490      1.7700     78.3900
     22     15.5850      9.0080     -5.6060      1.6800     78.3900
     23     14.9410      8.3970     -5.1270      0.0100     78.3900
     24     15.3820      9.2590     -6.5490      0.0100     78.3900
     25     19.0210     11.2170     -0.1950      1.7700     78.3900
     26     18.3170     11.8640     -0.7500      0.0100     78.3900
     27     20.2150     11.9300      0.0500      1.5900     78.3900
     28     19.9320     12.7600      0.4570      0.0100     78.3900
     29     18.4000     10.7150      1.0980      1.7700     78.3900
     30     17.3500     10.4020      0.9020      0.0100     78.3900
     31     18.5200     11.6070      2.2270      1.5900     78.3900
     32     17.3510     12.5900      2.6060      2.1000     78.3900
     33     17.6670     13.1830      3.9220      1.5900     78.3900
[...]
   492   16   8.0   3.50    7.7    0.041208   -0.727295   -0.735401
   493   16   6.0   5.30    9.4   -0.044100    0.409001    0.412270
   494   16   1.0   0.00    0.0    0.000000    0.262668    0.256071
   495   16   7.0   0.00    0.0    0.000047   -0.797954   -0.819716
   496   16   6.0   1.89    3.3   -0.006426    0.171916    0.149327
   497   16   1.0   0.00    0.0    0.000000    0.315737    0.331840
   498   16   6.0   5.10    9.0   -0.043078   -0.406313   -0.410066
   499   16   1.0   0.00    0.0    0.000000    0.277973    0.280417
   500   16   6.0   0.00    0.0    0.000000    1.005604    1.084675
   501   16   8.0   6.47   14.1    0.116730   -0.745292   -0.753196
   502   16   7.0   0.00    0.0    0.000000   -0.859856   -0.877840
   503   16   6.0   0.00    0.0    0.000000    0.754503    0.760874
   504   16   7.0   6.30   12.3   -0.130619   -0.961209   -1.016627
   505   16   1.0   0.00    0.0    0.000000    0.443284    0.481485
   506   16   1.0   0.00    0.0    0.000000    0.454767    0.452711
   507   16   6.0   0.01    0.0    0.001059    0.137911    0.098125
   508   16   1.0   0.00    0.0    0.000000    0.204879    0.245661
   509   16   8.0  15.28   33.4    0.097990   -0.825773   -0.845754
   510   16   1.0   0.00    0.0    0.000000    0.499788    0.524878
   511   16   6.0   1.08    1.9   -0.013813    0.149249    0.116026
   512   16   1.0   0.00    0.0    0.000000    0.245688    0.245077
   513   16   8.0   3.88    8.5    0.057109   -0.790674   -0.795760
   514   16  15.0   8.98   11.3    0.132622    1.595438    1.645920
   515   16   8.0  19.23   42.0    0.380161   -0.897937   -0.893429
   516   16   8.0  13.25   29.0    0.297541   -0.886354   -0.885959
   517   16   8.0   1.53    3.3    0.020513   -0.976170   -0.788246
   518   17   6.0  12.74   22.5   -0.108296    0.213684   -0.037281
   519   17   1.0   0.00    0.0    0.000000    0.149227    0.180326
   520   17   1.0   0.00    0.0    0.000000    0.246189    0.230830
   521   17   6.0   6.31   11.1   -0.050082    0.086655    0.156113
   522   17   1.0   0.00    0.0    0.000000    0.253932    0.225474
   523   17   8.0   3.94    8.6    0.048703   -0.726443   -0.732840
   524   17   6.0   3.50    6.2   -0.038725    0.407308    0.407685
   525   17   1.0   0.00    0.0    0.000000    0.268591    0.262743
   526   17   7.0   0.00    0.0    0.000000   -0.813769   -0.822821
   527   17   6.0   2.89    5.1   -0.011344    0.159976    0.149084
   528   17   1.0   0.00    0.0    0.000000    0.316468    0.325844
   529   17   6.0   2.80    4.9   -0.011161    1.113657    1.131739
   530   17   8.0   8.46   18.5    0.119468   -0.683555   -0.694494
   531   17   7.0   1.71    3.3    0.005836   -0.909518   -1.003984
   532   17   1.0   0.00    0.0    0.000000    0.478096    0.544249
   533   17   6.0   2.44    4.3   -0.005916    0.850553    0.864580
   534   17   8.0  14.12   30.9    0.194917   -0.701376   -0.709124
   535   17   6.0  11.15   19.7   -0.039187   -0.444773   -0.443564
   536   17   1.0   0.00    0.0    0.000000    0.273270    0.274389
   537   17   6.0   6.94   12.2   -0.070680    0.111996    0.112256
   538   17   1.0   0.00    0.0    0.000000    0.228826    0.228205
   539   17   8.0  20.27   44.3    0.042434   -0.832858   -0.836480
   540   17   1.0   0.00    0.0    0.000000    0.500326    0.500917
   541   17   6.0   4.32    7.6   -0.050185    0.164054    0.146333
   542   17   1.0   0.00    0.0    0.000000    0.216959    0.221462
   543   17   8.0  21.48   46.9   -0.012546   -0.849480   -0.852685
   544   17   1.0   0.00    0.0    0.000000    0.508249    0.508080

 Done with FMO properties.
 CPU     0: STEP CPU TIME=     0.00 TOTAL CPU TIME=      39010.1 (    650.2 MIN)
 TOTAL WALL CLOCK TIME=      84999.3 SECONDS, CPU UTILIZATION IS    45.89%
 CPU     0: STEP CPU TIME=     0.00 TOTAL CPU TIME=      39010.1 (    650.2 MIN)
 TOTAL WALL CLOCK TIME=      84999.3 SECONDS, CPU UTILIZATION IS    45.89%

 Total timing statistics in pairs (CPU,wall) for each rank, sec

    Rank   total     SCF    corr     DFT    CPHF     EFP    solv     ESP    geom
 -------------------------------------------------------------------------------
       1   39010.1   9494.9  14560.4      0.0    0.0   0.0  388.2 13758.5    0.0
       1   84999.3  19753.8  34834.8      0.0    0.0   0.0  912.5 27744.6    0.0
       2   38962.3   9405.0  14650.2      0.0    0.0   0.0  390.8 13713.0    0.0
       2   84999.3  19720.6  34851.2      0.0    0.0   0.0  912.0 27743.2    0.0
       3   38975.8   9437.7  14607.9      0.0    0.0   0.0  393.4 13733.4    0.0
       3   84999.3  19720.5  34851.2      0.0    0.0   0.0  912.5 27743.3    0.0
       4   38888.4   9407.5  14572.4      0.0    0.0   0.0  390.2 13719.0    0.0
       4   84999.3  19721.5  34851.1      0.0    0.0   0.0  910.6 27742.9    0.0
       5   38965.6   9444.1  14537.5      0.0    0.0   0.0  391.6 13786.4    0.0
       5   84999.3  19720.7  34851.0      0.0    0.0   0.0  912.6 27744.0    0.0
       6   39027.3   9412.5  14706.2      0.0    0.0   0.0  386.9 13724.0    0.0
       6   84999.3  19721.3  34851.0      0.0    0.0   0.0  910.4 27743.8    0.0
       7   38925.8   9447.9  14580.6      0.0    0.0   0.0  387.8 13709.7    0.0
       7   84999.3  19721.8  34851.0      0.0    0.0   0.0  910.9 27743.9    0.0
       8   38831.0   9405.0  14545.8      0.0    0.0   0.0  386.5 13699.1    0.0
       8   84999.3  19720.8  34851.0      0.0    0.0   0.0  909.5 27743.9    0.0
       9   39003.8   9440.5  14616.8      0.0    0.0   0.0  385.5 13759.0    0.0
       9   84999.3  19720.6  34851.0      0.0    0.0   0.0  911.5 27744.3    0.0
      10   38927.5   9393.6  14625.9      0.0    0.0   0.0  387.3 13720.2    0.0
      10   84999.3  19721.6  34851.0      0.0    0.0   0.0  909.8 27744.2    0.0
      11   38964.8   9414.6  14664.4      0.0    0.0   0.0  384.8 13700.6    0.0
      11   84999.3  19722.2  34851.0      0.0    0.0   0.0  909.9 27744.2    0.0
      12   38971.0   9395.3  14716.7      0.0    0.0   0.0  384.8 13684.2    0.0
      12   84999.3  19721.6  34851.0      0.0    0.0   0.0  908.5 27744.2    0.0
      13   38869.6   9414.6  14583.7      0.0    0.0   0.0  383.2 13691.7    0.0
      13   84999.3  19722.7  34851.0      0.0    0.0   0.0  909.4 27744.3    0.0
      14   38871.2   9381.6  14634.2      0.0    0.0   0.0  384.1 13677.3    0.0
      14   84999.3  19722.1  34851.0      0.0    0.0   0.0  908.5 27744.1    0.0
      15   38830.5   9406.1  14571.4      0.0    0.0   0.0  381.3 13674.4    0.0
      15   84999.3  19721.7  34851.0      0.0    0.0   0.0  908.2 27744.3    0.0
      16   38860.7   9392.2  14626.4      0.0    0.0   0.0  381.8 13668.2    0.0
      16   84999.3  19721.5  34850.9      0.0    0.0   0.0  907.2 27744.3    0.0
averaged   38930.3   9418.3  14612.5      0.0    0.0   0.0  386.8 13713.7    0.0
averaged   84999.3  19723.4  34850.0      0.0    0.0   0.0  910.3 27744.0    0.0

  FMO  timing statistics in pairs (CPU,wall) for each rank, sec

    Rank  FMOini FMOscf1  FMOdm1 FMOsyn1 FMOscf2  FMOes2 FMOsyn2 FMOscf3 FMOsyn3
 -------------------------------------------------------------------------------
       1    3.4   13498.4    0.5    0.0   24926.7     581.2    0.0    0.0    0.0
       1    9.1   27493.1    4.9    0.0   56305.3    1186.5    0.0    0.0    0.0
       2    2.6   13444.3    0.1    0.0   24933.4     581.9    0.0    0.0    0.0
       2    9.1   27493.1    4.9    0.0   56308.9    1182.9    0.0    0.0    0.0
       3    2.8   13487.1    0.2    0.0   24903.7     582.0    0.0    0.0    0.0
       3    9.1   27493.1    4.9    0.0   56305.8    1186.0    0.0    0.0    0.0
       4    2.6   13438.6    0.2    0.0   24866.5     580.5    0.0    0.0    0.0
       4    9.1   27493.1    4.9    0.0   56307.1    1184.7    0.0    0.0    0.0
       5    3.0   13503.8    0.3    0.0   24875.1     583.3    0.0    0.0    0.0
       5    9.1   27493.1    4.9    0.0   56307.7    1184.1    0.0    0.0    0.0
       6    2.6   13452.5    0.1    0.0   24992.1     579.9    0.0    0.0    0.0
       6    9.1   27493.1    4.9    0.0   56307.4    1184.4    0.0    0.0    0.0
       7    2.8   13469.9    0.2    0.0   24872.3     580.5    0.0    0.0    0.0
       7    9.1   27493.1    4.9    0.0   56306.5    1185.3    0.0    0.0    0.0
       8    2.4   13426.1    0.1    0.0   24823.8     578.5    0.0    0.0    0.0
       8    9.1   27493.1    4.9    0.0   56308.1    1183.7    0.0    0.0    0.0
       9    2.9   13486.0    0.4    0.0   24933.8     580.7    0.0    0.0    0.0
       9    9.1   27493.1    4.9    0.0   56306.9    1184.9    0.0    0.0    0.0
      10    2.4   13443.0    0.1    0.0   24899.5     582.4    0.0    0.0    0.0
      10    9.1   27493.1    4.9    0.0   56308.1    1183.7    0.0    0.0    0.0
      11    2.6   13432.6    0.2    0.0   24947.7     581.7    0.0    0.0    0.0
      11    9.1   27493.1    4.9    0.0   56307.3    1184.5    0.0    0.0    0.0
      12    2.3   13429.2    0.1    0.0   24963.9     575.4    0.0    0.0    0.0
      12    9.1   27493.1    4.9    0.0   56308.9    1182.9    0.0    0.0    0.0
      13    2.7   13424.8    0.3    0.0   24864.3     577.5    0.0    0.0    0.0
      13    9.1   27493.1    4.9    0.0   56306.7    1185.1    0.0    0.0    0.0
      14    2.3   13405.2    0.1    0.0   24885.0     578.6    0.0    0.0    0.0
      14    9.1   27493.1    4.9    0.0   56307.4    1184.4    0.0    0.0    0.0
      15    2.5   13404.1    0.2    0.0   24841.3     582.4    0.0    0.0    0.0
      15    9.1   27493.1    4.9    0.0   56307.3    1184.5    0.0    0.0    0.0
      16    2.4   13393.9    0.1    0.0   24885.7     578.6    0.0    0.0    0.0
      16    9.1   27493.1    4.9    0.0   56307.8    1184.0    0.0    0.0    0.0
averaged    2.6   13446.2    0.2    0.0   24900.9     580.3    0.0    0.0    0.0
averaged    9.1   27493.1    4.9    0.0   56307.3    1184.5    0.0    0.0    0.0
             62771673  WORDS OF DYNAMIC MEMORY USED
 EXECUTION OF GAMESS TERMINATED NORMALLY Sun Dec  8 07:50:30 2019
 DDI: 263640 bytes (0.3 MB / 0 MWords) used by master data server.

 ----------------------------------------
 CPU timing information for all processes
 ========================================
 0: 38153.126 + 857.26 = 39010.153
 1: 38162.293 + 800.73 = 38962.367
 2: 38161.176 + 814.695 = 38975.872
 3: 38098.600 + 789.848 = 38888.448
 4: 38131.196 + 834.432 = 38965.628
 5: 38217.69 + 810.222 = 39027.292
 6: 38106.853 + 818.929 = 38925.783
 7: 38020.633 + 810.386 = 38831.20
 8: 38164.140 + 839.699 = 39003.839
 9: 38127.71 + 800.437 = 38927.509
 10: 38151.187 + 813.649 = 38964.837
 11: 38185.79 + 785.984 = 38971.64
 12: 38057.358 + 812.252 = 38869.611
 13: 38085.883 + 785.359 = 38871.242
 14: 38014.562 + 815.954 = 38830.517
 15: 38079.743 + 780.975 = 38860.718
 ----------------------------------------
 ddikick.x: exited gracefully.
unset echo
----- accounting info -----
Files used on the master node gollum051.lsa.umich.edu were:
-rw-r--r-- 1 hazwong frank    26551 Dec  7 08:13 /scratch/hazwong/824321/1P5M_6/usrc/1P5M_6_fmo_input.F05
-rw-r--r-- 1 hazwong frank      634 Dec  8 07:50 /scratch/hazwong/824321/1P5M_6/usrc/1P5M_6_fmo_input.F06.001
-rw-r--r-- 1 hazwong frank      634 Dec  8 07:50 /scratch/hazwong/824321/1P5M_6/usrc/1P5M_6_fmo_input.F06.002
-rw-r--r-- 1 hazwong frank      634 Dec  8 07:50 /scratch/hazwong/824321/1P5M_6/usrc/1P5M_6_fmo_input.F06.003
-rw-r--r-- 1 hazwong frank      634 Dec  8 07:50 /scratch/hazwong/824321/1P5M_6/usrc/1P5M_6_fmo_input.F06.004
-rw-r--r-- 1 hazwong frank      634 Dec  8 07:50 /scratch/hazwong/824321/1P5M_6/usrc/1P5M_6_fmo_input.F06.005
-rw-r--r-- 1 hazwong frank      634 Dec  8 07:50 /scratch/hazwong/824321/1P5M_6/usrc/1P5M_6_fmo_input.F06.006
-rw-r--r-- 1 hazwong frank      634 Dec  8 07:50 /scratch/hazwong/824321/1P5M_6/usrc/1P5M_6_fmo_input.F06.007
-rw-r--r-- 1 hazwong frank      634 Dec  8 07:50 /scratch/hazwong/824321/1P5M_6/usrc/1P5M_6_fmo_input.F06.008
-rw-r--r-- 1 hazwong frank      634 Dec  8 07:50 /scratch/hazwong/824321/1P5M_6/usrc/1P5M_6_fmo_input.F06.009
-rw-r--r-- 1 hazwong frank      634 Dec  8 07:50 /scratch/hazwong/824321/1P5M_6/usrc/1P5M_6_fmo_input.F06.010
-rw-r--r-- 1 hazwong frank      634 Dec  8 07:50 /scratch/hazwong/824321/1P5M_6/usrc/1P5M_6_fmo_input.F06.011
-rw-r--r-- 1 hazwong frank      634 Dec  8 07:50 /scratch/hazwong/824321/1P5M_6/usrc/1P5M_6_fmo_input.F06.012
-rw-r--r-- 1 hazwong frank      634 Dec  8 07:50 /scratch/hazwong/824321/1P5M_6/usrc/1P5M_6_fmo_input.F06.013
-rw-r--r-- 1 hazwong frank      634 Dec  8 07:50 /scratch/hazwong/824321/1P5M_6/usrc/1P5M_6_fmo_input.F06.014
-rw-r--r-- 1 hazwong frank      634 Dec  8 07:50 /scratch/hazwong/824321/1P5M_6/usrc/1P5M_6_fmo_input.F06.015
-rw-r--r-- 1 hazwong frank    24606 Dec  8 07:50 /scratch/hazwong/824321/1P5M_6/usrc/1P5M_6_fmo_input.F07
-rw-r--r-- 1 hazwong frank        0 Dec  7 08:13 /scratch/hazwong/824321/1P5M_6/usrc/1P5M_6_fmo_input.F07.001
-rw-r--r-- 1 hazwong frank        0 Dec  7 08:13 /scratch/hazwong/824321/1P5M_6/usrc/1P5M_6_fmo_input.F07.002
-rw-r--r-- 1 hazwong frank        0 Dec  7 08:13 /scratch/hazwong/824321/1P5M_6/usrc/1P5M_6_fmo_input.F07.003
-rw-r--r-- 1 hazwong frank        0 Dec  7 08:13 /scratch/hazwong/824321/1P5M_6/usrc/1P5M_6_fmo_input.F07.004
-rw-r--r-- 1 hazwong frank        0 Dec  7 08:13 /scratch/hazwong/824321/1P5M_6/usrc/1P5M_6_fmo_input.F07.005
-rw-r--r-- 1 hazwong frank        0 Dec  7 08:13 /scratch/hazwong/824321/1P5M_6/usrc/1P5M_6_fmo_input.F07.006
-rw-r--r-- 1 hazwong frank        0 Dec  7 08:13 /scratch/hazwong/824321/1P5M_6/usrc/1P5M_6_fmo_input.F07.007
-rw-r--r-- 1 hazwong frank        0 Dec  7 08:13 /scratch/hazwong/824321/1P5M_6/usrc/1P5M_6_fmo_input.F07.008
-rw-r--r-- 1 hazwong frank        0 Dec  7 08:13 /scratch/hazwong/824321/1P5M_6/usrc/1P5M_6_fmo_input.F07.009
-rw-r--r-- 1 hazwong frank        0 Dec  7 08:13 /scratch/hazwong/824321/1P5M_6/usrc/1P5M_6_fmo_input.F07.010
-rw-r--r-- 1 hazwong frank        0 Dec  7 08:13 /scratch/hazwong/824321/1P5M_6/usrc/1P5M_6_fmo_input.F07.011
-rw-r--r-- 1 hazwong frank        0 Dec  7 08:13 /scratch/hazwong/824321/1P5M_6/usrc/1P5M_6_fmo_input.F07.012
-rw-r--r-- 1 hazwong frank        0 Dec  7 08:13 /scratch/hazwong/824321/1P5M_6/usrc/1P5M_6_fmo_input.F07.013
-rw-r--r-- 1 hazwong frank        0 Dec  7 08:13 /scratch/hazwong/824321/1P5M_6/usrc/1P5M_6_fmo_input.F07.014
-rw-r--r-- 1 hazwong frank        0 Dec  7 08:13 /scratch/hazwong/824321/1P5M_6/usrc/1P5M_6_fmo_input.F07.015
-rw-r--r-- 1 hazwong frank    65440 Dec  8 07:50 /scratch/hazwong/824321/1P5M_6/usrc/1P5M_6_fmo_input.F10.000
-rw-r--r-- 1 hazwong frank        0 Dec  7 08:13 /scratch/hazwong/824321/1P5M_6/usrc/1P5M_6_fmo_input.F26.000
-rw-r--r-- 1 hazwong frank        0 Dec  7 08:13 /scratch/hazwong/824321/1P5M_6/usrc/1P5M_6_fmo_input.F26.001
-rw-r--r-- 1 hazwong frank        0 Dec  7 08:13 /scratch/hazwong/824321/1P5M_6/usrc/1P5M_6_fmo_input.F26.002
-rw-r--r-- 1 hazwong frank        0 Dec  7 08:13 /scratch/hazwong/824321/1P5M_6/usrc/1P5M_6_fmo_input.F26.003
-rw-r--r-- 1 hazwong frank        0 Dec  7 08:13 /scratch/hazwong/824321/1P5M_6/usrc/1P5M_6_fmo_input.F26.004
-rw-r--r-- 1 hazwong frank        0 Dec  7 08:13 /scratch/hazwong/824321/1P5M_6/usrc/1P5M_6_fmo_input.F26.005
-rw-r--r-- 1 hazwong frank        0 Dec  7 08:13 /scratch/hazwong/824321/1P5M_6/usrc/1P5M_6_fmo_input.F26.006
-rw-r--r-- 1 hazwong frank        0 Dec  7 08:13 /scratch/hazwong/824321/1P5M_6/usrc/1P5M_6_fmo_input.F26.007
-rw-r--r-- 1 hazwong frank        0 Dec  7 08:13 /scratch/hazwong/824321/1P5M_6/usrc/1P5M_6_fmo_input.F26.008
-rw-r--r-- 1 hazwong frank        0 Dec  7 08:13 /scratch/hazwong/824321/1P5M_6/usrc/1P5M_6_fmo_input.F26.009
-rw-r--r-- 1 hazwong frank        0 Dec  7 08:13 /scratch/hazwong/824321/1P5M_6/usrc/1P5M_6_fmo_input.F26.010
-rw-r--r-- 1 hazwong frank        0 Dec  7 08:13 /scratch/hazwong/824321/1P5M_6/usrc/1P5M_6_fmo_input.F26.011
-rw-r--r-- 1 hazwong frank        0 Dec  7 08:13 /scratch/hazwong/824321/1P5M_6/usrc/1P5M_6_fmo_input.F26.012
-rw-r--r-- 1 hazwong frank        0 Dec  7 08:13 /scratch/hazwong/824321/1P5M_6/usrc/1P5M_6_fmo_input.F26.013
-rw-r--r-- 1 hazwong frank        0 Dec  7 08:13 /scratch/hazwong/824321/1P5M_6/usrc/1P5M_6_fmo_input.F26.014
-rw-r--r-- 1 hazwong frank        0 Dec  7 08:13 /scratch/hazwong/824321/1P5M_6/usrc/1P5M_6_fmo_input.F26.015
-rw-r--r-- 1 hazwong frank        0 Dec  7 08:13 /scratch/hazwong/824321/1P5M_6/usrc/1P5M_6_fmo_input.F27.000
-rw-r--r-- 1 hazwong frank        0 Dec  7 08:13 /scratch/hazwong/824321/1P5M_6/usrc/1P5M_6_fmo_input.F27.001
-rw-r--r-- 1 hazwong frank        0 Dec  7 08:13 /scratch/hazwong/824321/1P5M_6/usrc/1P5M_6_fmo_input.F27.002
-rw-r--r-- 1 hazwong frank        0 Dec  7 08:13 /scratch/hazwong/824321/1P5M_6/usrc/1P5M_6_fmo_input.F27.003
-rw-r--r-- 1 hazwong frank        0 Dec  7 08:13 /scratch/hazwong/824321/1P5M_6/usrc/1P5M_6_fmo_input.F27.004
-rw-r--r-- 1 hazwong frank        0 Dec  7 08:13 /scratch/hazwong/824321/1P5M_6/usrc/1P5M_6_fmo_input.F27.005
-rw-r--r-- 1 hazwong frank        0 Dec  7 08:13 /scratch/hazwong/824321/1P5M_6/usrc/1P5M_6_fmo_input.F27.006
-rw-r--r-- 1 hazwong frank        0 Dec  7 08:13 /scratch/hazwong/824321/1P5M_6/usrc/1P5M_6_fmo_input.F27.007
-rw-r--r-- 1 hazwong frank        0 Dec  7 08:13 /scratch/hazwong/824321/1P5M_6/usrc/1P5M_6_fmo_input.F27.008
-rw-r--r-- 1 hazwong frank        0 Dec  7 08:13 /scratch/hazwong/824321/1P5M_6/usrc/1P5M_6_fmo_input.F27.009
-rw-r--r-- 1 hazwong frank        0 Dec  7 08:13 /scratch/hazwong/824321/1P5M_6/usrc/1P5M_6_fmo_input.F27.010
-rw-r--r-- 1 hazwong frank        0 Dec  7 08:13 /scratch/hazwong/824321/1P5M_6/usrc/1P5M_6_fmo_input.F27.011
-rw-r--r-- 1 hazwong frank        0 Dec  7 08:13 /scratch/hazwong/824321/1P5M_6/usrc/1P5M_6_fmo_input.F27.012
-rw-r--r-- 1 hazwong frank        0 Dec  7 08:13 /scratch/hazwong/824321/1P5M_6/usrc/1P5M_6_fmo_input.F27.013
-rw-r--r-- 1 hazwong frank        0 Dec  7 08:13 /scratch/hazwong/824321/1P5M_6/usrc/1P5M_6_fmo_input.F27.014
-rw-r--r-- 1 hazwong frank        0 Dec  7 08:13 /scratch/hazwong/824321/1P5M_6/usrc/1P5M_6_fmo_input.F27.015
-rw-r--r-- 1 hazwong frank 34586624 Dec  7 15:52 /scratch/hazwong/824321/1P5M_6/usrc/1P5M_6_fmo_input.F40.000
-rw-r--r-- 1 hazwong frank 34586624 Dec  7 15:52 /scratch/hazwong/824321/1P5M_6/usrc/1P5M_6_fmo_input.F40.001
-rw-r--r-- 1 hazwong frank 34586624 Dec  7 15:52 /scratch/hazwong/824321/1P5M_6/usrc/1P5M_6_fmo_input.F40.002
-rw-r--r-- 1 hazwong frank 34586624 Dec  7 15:52 /scratch/hazwong/824321/1P5M_6/usrc/1P5M_6_fmo_input.F40.003
-rw-r--r-- 1 hazwong frank 34586624 Dec  7 15:52 /scratch/hazwong/824321/1P5M_6/usrc/1P5M_6_fmo_input.F40.004
-rw-r--r-- 1 hazwong frank 34586624 Dec  7 15:52 /scratch/hazwong/824321/1P5M_6/usrc/1P5M_6_fmo_input.F40.005
-rw-r--r-- 1 hazwong frank 34586624 Dec  7 15:52 /scratch/hazwong/824321/1P5M_6/usrc/1P5M_6_fmo_input.F40.006
-rw-r--r-- 1 hazwong frank 34586624 Dec  7 15:52 /scratch/hazwong/824321/1P5M_6/usrc/1P5M_6_fmo_input.F40.007
-rw-r--r-- 1 hazwong frank 34586624 Dec  7 15:52 /scratch/hazwong/824321/1P5M_6/usrc/1P5M_6_fmo_input.F40.008
-rw-r--r-- 1 hazwong frank 34586624 Dec  7 15:52 /scratch/hazwong/824321/1P5M_6/usrc/1P5M_6_fmo_input.F40.009
-rw-r--r-- 1 hazwong frank 34586624 Dec  7 15:52 /scratch/hazwong/824321/1P5M_6/usrc/1P5M_6_fmo_input.F40.010
-rw-r--r-- 1 hazwong frank 34586624 Dec  7 15:52 /scratch/hazwong/824321/1P5M_6/usrc/1P5M_6_fmo_input.F40.011
-rw-r--r-- 1 hazwong frank 34586624 Dec  7 15:52 /scratch/hazwong/824321/1P5M_6/usrc/1P5M_6_fmo_input.F40.012
-rw-r--r-- 1 hazwong frank 34586624 Dec  7 15:52 /scratch/hazwong/824321/1P5M_6/usrc/1P5M_6_fmo_input.F40.013
-rw-r--r-- 1 hazwong frank 34586624 Dec  7 15:52 /scratch/hazwong/824321/1P5M_6/usrc/1P5M_6_fmo_input.F40.014
-rw-r--r-- 1 hazwong frank 34586624 Dec  7 15:52 /scratch/hazwong/824321/1P5M_6/usrc/1P5M_6_fmo_input.F40.015
ls: No match.
ls: No match.
ls: No match.
Sun Dec  8 07:50:34 EST 2019
0.182u 0.097s 23:36:42.78 0.0%	0+0k 1320+192io 22pf+0w
