‘1P5M_3_fmo_input.inp’ -> ‘/scratch/hazwong/824927/./1P5M_3_fmo_input.inp’
‘rungms’ -> ‘/scratch/hazwong/824927/./rungms’
‘gms-files.csh’ -> ‘/scratch/hazwong/824927/./gms-files.csh’
----- GAMESS execution script 'rungms' -----
This job is running on host gollum088.lsa.umich.edu
under operating system Linux at Sat Dec 7 07:57:52 EST 2019
Available scratch disk space (Kbyte units) at beginning of the job is
Filesystem     1K-blocks     Used Available Use% Mounted on
/dev/sda4      426933580 12442620 414490960   3% /scratch
GAMESS temporary binary files will be written to /scratch/hazwong/824927/1P5M_3/usrc
GAMESS supplementary output files will be written to /scratch/hazwong/824927/1P5M_3/src
Copying input file 1P5M_3_fmo_input.inp to your run's scratch directory...
cp 1P5M_3_fmo_input.inp /scratch/hazwong/824927/1P5M_3/usrc/1P5M_3_fmo_input.F05
unset echo
setenv OUTPUT /scratch/hazwong/824927/1P5M_3/usrc/1P5M_3_fmo_input.F06
This is a GDDI run, keeping various output files on local disks
setenv PUNCH /scratch/hazwong/824927/1P5M_3/usrc/1P5M_3_fmo_input.F07
unset echo
 
Assuming a single but multicore node.
 
/export/apps/CentOS7/gamess/src/build//ddikick.x /export/apps/CentOS7/gamess/src/build//gamess.R3.x 1P5M_3_fmo_input -ddi 1 16 gollum088.lsa.umich.edu:cpus=16 -scr /scratch/hazwong/824927/1P5M_3/usrc

 Distributed Data Interface kickoff program.
 Initiating 16 compute processes on 1 nodes to run the following command:
 /export/apps/CentOS7/gamess/src/build//gamess.R3.x 1P5M_3_fmo_input 

          ******************************************************
          *         GAMESS VERSION = 30 SEP 2018 (R3)         *
          *             FROM IOWA STATE UNIVERSITY             *
          * M.W.SCHMIDT, K.K.BALDRIDGE, J.A.BOATZ, S.T.ELBERT, *
          *   M.S.GORDON, J.H.JENSEN, S.KOSEKI, N.MATSUNAGA,   *
          *          K.A.NGUYEN, S.J.SU, T.L.WINDUS,           *
          *       TOGETHER WITH M.DUPUIS, J.A.MONTGOMERY       *
          *         J.COMPUT.CHEM.  14, 1347-1363(1993)        *
          **************** 64 BIT LINUX VERSION ****************

  SINCE 1993, STUDENTS AND POSTDOCS WORKING AT IOWA STATE UNIVERSITY
  AND ALSO IN THEIR VARIOUS JOBS AFTER LEAVING ISU HAVE MADE IMPORTANT
  CONTRIBUTIONS TO THE CODE:
     IVANA ADAMOVIC, CHRISTINE AIKENS, YURI ALEXEEV, POOJA ARORA,
     ANDREY ASADCHEV, ROB BELL, PRADIPTA BANDYOPADHYAY, JONATHAN BENTZ,
     BRETT BODE, KURT BRORSEN, CALEB CARLIN, GALINA CHABAN, WEI CHEN,
     CHEOL HO CHOI, PAUL DAY, ALBERT DEFUSCO, NUWAN DESILVA, TIM DUDLEY,
     DMITRI FEDOROV, ALEX FINDLATER, GRAHAM FLETCHER, MARK FREITAG,
     KURT GLAESEMANN, ANASTASIA GUNINA,
     DAN KEMP, GRANT MERRILL, NORIYUKI MINEZAWA, JONATHAN MULLIN,
     TAKESHI NAGATA, SEAN NEDD, HEATHER NETZLOFF, BOSILJKA NJEGIC, RYAN OLSON,
     MIKE PAK, BUU PHAM,
     SPENCER PRUITT, LUKE ROSKOP, JIM SHOEMAKER, LYUDMILA SLIPCHENKO,
     TONY SMITH, SAROM SOK LEANG, JIE SONG, TETSUYA TAKETSUGU, SIMON WEBB,
     PENG XU, SOOHAENG YOO, FEDERICO ZAHARIEV

  ADDITIONAL CODE HAS BEEN PROVIDED BY COLLABORATORS IN OTHER GROUPS:
     IOWA STATE UNIVERSITY:
          JOE IVANIC, AARON WEST, LAIMUTIS BYTAUTAS, KLAUS RUEDENBERG
     UNIVERSITY OF TOKYO: KIMIHIKO HIRAO, TAKAHITO NAKAJIMA,
          TAKAO TSUNEDA, MUNEAKI KAMIYA, SUSUMU YANAGISAWA,
          KIYOSHI YAGI, MAHITO CHIBA, SEIKEN TOKURA, NAOAKI KAWAKAMI
     UNIVERSITY OF AARHUS: FRANK JENSEN
     UNIVERSITY OF IOWA: VISVALDAS KAIRYS, HUI LI
     NATIONAL INST. OF STANDARDS AND TECHNOLOGY: WALT STEVENS, DAVID GARMER
     UNIVERSITY OF PISA: BENEDETTA MENNUCCI, JACOPO TOMASI
     UNIVERSITY OF MEMPHIS: HENRY KURTZ, PRAKASHAN KORAMBATH
     UNIVERSITY OF ALBERTA: TOBY ZENG, MARIUSZ KLOBUKOWSKI
     UNIVERSITY OF NEW ENGLAND: MARK SPACKMAN
     MIE UNIVERSITY: HIROAKI UMEDA
     NAT. INST. OF ADVANCED INDUSTRIAL SCIENCE AND TECHNOLOGY: KAZUO KITAURA
     MICHIGAN STATE UNIVERSITY:
          KAROL KOWALSKI, MARTA WLOCH, JEFFREY GOUR, JESSE LUTZ,
          WEI LI, JUN SHEN, J. EMILIANO DEUSTUA, PIOTR PIECUCH
     UNIVERSITY OF MINNESOTA:
          YINAN SHU
     UNIVERSITY OF SILESIA: MONIKA MUSIAL, STANISLAW KUCHARSKI
     FACULTES UNIVERSITAIRES NOTRE-DAME DE LA PAIX:
          OLIVIER QUINET, BENOIT CHAMPAGNE
     UNIVERSITY OF CALIFORNIA - SANTA BARBARA: BERNARD KIRTMAN
     INSTITUTE FOR MOLECULAR SCIENCE:
          KAZUYA ISHIMURA, MICHIO KATOUDA, AND SHIGERU NAGASE
     UNIVERSITY OF NOTRE DAME: ANNA POMOGAEVA, DAN CHIPMAN
     KYUSHU UNIVERSITY:
          HARUYUKI NAKANO,
          FENG LONG GU, JACEK KORCHOWIEC, MARCIN MAKOWSKI, AND YURIKO AOKI,
          HIROTOSHI MORI AND EISAKU MIYOSHI
     PENNSYLVANIA STATE UNIVERSITY:
          TZVETELIN IORDANOV, CHET SWALINA, JONATHAN SKONE,
          SHARON HAMMES-SCHIFFER
     WASEDA UNIVERSITY:
          MASATO KOBAYASHI, TOMOKO AKAMA, TSUGUKI TOUMA,
          TAKESHI YOSHIKAWA, YASUHIRO IKABATA, JUNJI SEINO,
          YUYA NAKAJIMA, HIROMI NAKAI
     NANJING UNIVERSITY: SHUHUA LI
     UNIVERSITY OF NEBRASKA:
          PEIFENG SU, DEJUN SI, NANDUN THELLAMUREGE, YALI WANG, HUI LI
     UNIVERSITY OF ZURICH: ROBERTO PEVERATI, KIM BALDRIDGE
     N. COPERNICUS UNIVERSITY AND JACKSON STATE UNIVERSITY:
          MARIA BARYSZ
     UNIVERSITY OF COPENHAGEN: Jimmy Kromann, CASPER STEINMANN
     TOKYO INSTITUTE OF TECHNOLOGY: HIROYA NAKATA
     NAGOYA UNIVERSITY: YOSHIO NISHIMOTO, STEPHAN IRLE
     MOSCOW STATE UNIVERSITY: VLADIMIR MIRONOV


 PARALLEL VERSION RUNNING ON       16 PROCESSORS IN        1 NODES.

 EXECUTION OF GAMESS BEGUN Sat Dec  7 07:57:52 2019

            ECHO OF THE FIRST FEW INPUT CARDS -
 INPUT CARD>!*** FMO 5.3 (Gamess) INPUT generated by Facio 22.1.1.32 ***                    
 INPUT CARD> $CONTRL RUNTYP=ENERGY NPRINT=-5 ISPHER=1 MAXIT=200 $END                        
 INPUT CARD> $SYSTEM MWORDS=63 MEMDDI=63 $END                                               
 INPUT CARD> $GDDI NGROUP=1 $END                                                            
 INPUT CARD> $SCF DIRSCF=.TRUE. NPUNCH=0 $END                                               
 INPUT CARD>!*** NumCPU : 2  MemPerNode : 512MB                                             
 INPUT CARD> $PCM SOLVNT=WATER IEF=-10 ICOMP=2 ICAV=1 IDISP=1 IFMO=-1 $END                  
 INPUT CARD> $PCMCAV RADII=SUAHF $END                                                       
 INPUT CARD> $TESCAV NTSALL=60 $END                                                         
 INPUT CARD> $FMOPRP                                                                        
 INPUT CARD>    NAODIR=200                                                                  
 INPUT CARD>    NGRFMO(1)=1, 1, 0, 0, 0,   0, 0, 0, 0, 0                                    
 INPUT CARD>    IPIEDA=1                                                                    
 INPUT CARD>    NPRINT=9                                                                    
 INPUT CARD> $END                                                                           
 INPUT CARD> $FMO                                                                           
 INPUT CARD>      SCFTYP(1)=RHF                                                             
 INPUT CARD>      MODGRD=10                                                                 
 INPUT CARD>      MODMUL=0                                                                  
 INPUT CARD>      MAXCAO=5                                                                  
 INPUT CARD>      MAXBND=19                                                                 
 INPUT CARD>      NLAYER=1                                                                  
 INPUT CARD>      MPLEVL(1)=2                                                               
 INPUT CARD>      NFRAG=17                                                                  
 INPUT CARD>      ICHARG(1)=-1, -1, -1, -1, -1, -1, -1, -1, -1, -1, 0, -1, -1, -1,          
 INPUT CARD>-1, -1, 0                                                                       
 INPUT CARD>      FRGNAM(1)=F1, F2, F3, F4, F5, F6, F7, F8, F9, F10, F11, F12, F13,         
 INPUT CARD>F14, F15, F16, F17                                                              
 INPUT CARD>      indat(1)=0                                                                
 INPUT CARD>               1   -35   0                                                      
 INPUT CARD>               36   -69   0                                                     
 INPUT CARD>               70   -103   0                                                    
 INPUT CARD>               104   -136   0                                                   
 INPUT CARD>               137   -169   0                                                   
 INPUT CARD>               170   -200   0                                                   
 INPUT CARD>               201   -230   0                                                   
 INPUT CARD>               231   -263   0                                                   
 INPUT CARD>               264   -294   0                                                   
 INPUT CARD>               295   -324   0                                                   
 INPUT CARD>               325   -357   0                                                   
 INPUT CARD>               358   -388   0                                                   
 INPUT CARD>               389   -421   0                                                   
 INPUT CARD>               422   -455   0                                                   
 INPUT CARD>               456   -486   0                                                   
 INPUT CARD>               487   -517   0                                                   
 INPUT CARD>               518   -544   0                                                   
 INPUT CARD> $END                                                                           
 INPUT CARD>                                                                                
 INPUT CARD> $FMOBND                                                                        
 INPUT CARD>   -36   35       6-31G*    MINI                                                


 -------------------------------------------------------------
 GROUP DDI, PROGRAMMED BY: RYAN M. OLSON AND DMITRI G. FEDOROV
        FEDOROV ET AL., J. COMPUT. CHEM., 25 (2004) 872.
 -------------------------------------------------------------

 -------------------------------------------------------
 GDDI: INITIALIZATION COMPLETED FOR GROUP     1 OF     1
 WITH    16 PROCESSES BALTYP=DLB   global rank=        0
 -------------------------------------------------------

   63000000 WORDS OF MEMORY AVAILABLE


     RUN TITLE
     ---------
  FMO calculation                                                                

 THE POINT GROUP OF THE MOLECULE IS C1      
 THE ORDER OF THE PRINCIPAL AXIS IS     0

 ATOM   ATOMIC CHARGE
 H.1-1       1.0
 O.1-1       8.0
 C.1-1       6.0
 N.1-1       7.0
 P.1-1      15.0

     ATOMIC BASIS SET LIBRARY
     ----------------
 THE CONTRACTED PRIMITIVE FUNCTIONS HAVE BEEN UNNORMALIZED
 THE CONTRACTED BASIS FUNCTIONS ARE NOW NORMALIZED TO UNITY

  SHELL TYPE  PRIMITIVE        EXPONENT          CONTRACTION COEFFICIENT(S)

 H.1-1     

      1   S       1            18.7311370    0.033494604338
      1   S       2             2.8253944    0.234726953484
      1   S       3             0.6401217    0.813757326146

      2   S       4             0.1612778    1.000000000000

 O.1-1     

      3   S       5          5484.6716600    0.001831074430
      3   S       6           825.2349460    0.013950172200
      3   S       7           188.0469580    0.068445078098
      3   S       8            52.9645000    0.232714335992
      3   S       9            16.8975704    0.470192897984
      3   S      10             5.7996353    0.358520852987

      4   L      11            15.5396162   -0.110777549525    0.070874268231
      4   L      12             3.5999336   -0.148026262701    0.339752839147
      4   L      13             1.0137618    1.130767015354    0.727158577316

      5   L      14             0.2700058    1.000000000000    1.000000000000

      6   D      15             0.8000000    1.000000000000

 C.1-1     

      7   S      16          3047.5248800    0.001834737132
      7   S      17           457.3695180    0.014037322813
      7   S      18           103.9486850    0.068842622264
      7   S      19            29.2101553    0.232184443216
      7   S      20             9.2866630    0.467941348435
      7   S      21             3.1639270    0.362311985337

      8   L      22             7.8682723   -0.119332419775    0.068999066591
      8   L      23             1.8812885   -0.160854151696    0.316423960957
      8   L      24             0.5442493    1.143456437840    0.744308290898

      9   L      25             0.1687145    1.000000000000    1.000000000000

     10   D      26             0.8000000    1.000000000000

 N.1-1     

     11   S      27          4173.5114600    0.001834772160
     11   S      28           627.4579110    0.013994627002
     11   S      29           142.9020930    0.068586551812
     11   S      30            40.2343293    0.232240873040
     11   S      31            12.8202129    0.469069948082
     11   S      32             4.3904370    0.360455199063

     12   L      33            11.6263619   -0.114961181702    0.067579743878
     12   L      34             2.7162798   -0.169117478561    0.323907295893
     12   L      35             0.7722184    1.145851947027    0.740895139755

     13   L      36             0.2120315    1.000000000000    1.000000000000

     14   D      37             0.8000000    1.000000000000

 P.1-1     

     15   S      38         19413.3000000    0.001851598923
     15   S      39          2909.4200000    0.014206191735
     15   S      40           661.3640000    0.069999459277
     15   S      41           185.7590000    0.240078860331
     15   S      42            59.1943000    0.484761717984
     15   S      43            20.0310000    0.335199804993

     16   L      44           339.4780000   -0.002782170105    0.004564616191
     16   L      45            81.0101000   -0.036049901354    0.033693571881
     16   L      46            25.8780000   -0.116631004382    0.139754883368
     16   L      47             9.4522100    0.096832803638    0.339361716786
     16   L      48             3.6656600    0.614418023082    0.450920623685
     16   L      49             1.4674600    0.403798015170    0.238585800889

     17   L      50             2.1562300   -0.252924113863   -0.017765312733
     17   L      51             0.7489970    0.032851844678    0.274058196433
     17   L      52             0.2831450    1.081254761783    0.785421562957

     18   L      53             0.0998317    1.000000000000    1.000000000000

     19   D      54             0.5500000    1.000000000000

 TOTAL NUMBER OF BASIS SET SHELLS             =   19
 NUMBER OF CARTESIAN GAUSSIAN BASIS FUNCTIONS =   66

     $CONTRL OPTIONS
     ---------------
 SCFTYP=RHF          RUNTYP=ENERGY       EXETYP=RUN     
 MPLEVL=       0     CITYP =NONE         CCTYP =NONE         VBTYP =NONE    
 DFTTYP=NONE         TDDFT =NONE    
 MULT  =       1     ICHARG=       0     NZVAR =       0     COORD =UNIQUE  
 PP    =NONE         RELWFN=NONE         LOCAL =NONE         NUMGRD=       F
 ISPHER=       1     NOSYM =       0     MAXIT =     200     UNITS =ANGS    
 PLTORB=       F     MOLPLT=       F     AIMPAC=       F     FRIEND=        
 NPRINT=      -5     IREST =       0     GEOM  =INPUT   
 NORMF =       0     NORMP =       0     ITOL  =      24     ICUT  =      12
 INTTYP=BEST         GRDTYP=BEST         QMTTOL= 1.0E-06

     $SYSTEM OPTIONS
     ---------------
  REPLICATED MEMORY=    63000000 WORDS (ON EVERY NODE).
 DISTRIBUTED MEMDDI=          63 MILLION WORDS IN AGGREGATE,
 MEMDDI DISTRIBUTED OVER  16 PROCESSORS IS     3937500 WORDS/PROCESSOR.
 TOTAL MEMORY REQUESTED ON EACH PROCESSOR=    66937500 WORDS.
 TIMLIM=      525600.00 MINUTES, OR     365.0 DAYS.
 PARALL= T  BALTYP=  DLB     KDIAG=    0  COREFL= F
 MXSEQ2=     300 MXSEQ3=     150  mem10=         0

 ** LOOKING UP INTERNALLY STORED DATA FOR SOLVENT=WATER    **
 OPTICAL AND PHYSICAL CONSTANTS:
 EPS= 78.390; EPSINF=  1.776; RSOLV=  1.385 A; VMOL=  18.070 ML/MOL;
 TCE= .25700E-03 1/K; STEN= 71.810 DYN/CM;  DSTEN=  0.6500; CMF=  1.2770


     -----------------------------------
     INPUT FOR PCM SOLVATION CALCULATION 
     -----------------------------------
     IEF   =     -10
     ICOMP =       2     IFIELD=       0     ICAV  =       1
     IDISP =       1     IREP  =       0     IDP   =       0

     SOLVNT=WATER        EPS   = 78.3900     EPSINF=  1.7760
     VMOL  = 18.0700     TCE   =  0.00025700 STEN  = 71.8100
     DSTEN =  0.6500     CMF   =  1.2770     RSOLV =  1.3850

     NESFP =       0
     OMEGA = 40.0000     RET   =100.0000     FRO   =  0.7000

     TABS  =298.0000     IPRINT=       0

     --------------------------------
     INPUT FOR ITERATIVE C-PCM METHOD 
     --------------------------------
     IPCMIT  =         1     MXDIIS  =        50
     MXITR1  =       200     MXITR2  =       200
     THRES   = 0.100E-09     IMUL    =         3
     RCUT(1) =   20.0000     RCUT(2) =   50.0000

     IDIRCT  =         1
     IMGABI  =         0     RABI    =    4.0000
     IMGASC  =         0     RASC    =   20.0000
     THRSLS  = 0.500E-03     DENSLS  =    0.0100
     IEFPOL  =         1     REFPOL  =    0.0000

     INPUT FOR ISOTROPIC DIELECTRICS
     -------------------------------
     EPS=    78.39

          ----------------
          PROPERTIES INPUT
          ----------------

     MOMENTS            FIELD           POTENTIAL          DENSITY
 IEMOM =       1   IEFLD =       0   IEPOT =       0   IEDEN =       0
 WHERE =COMASS     WHERE =NUCLEI     WHERE =NUCLEI     WHERE =NUCLEI  
 OUTPUT=BOTH       OUTPUT=BOTH       OUTPUT=NONE       OUTPUT=BOTH    
 IEMINT=       0   IEFINT=       0                     IEDINT=       0
                                                       MORB  =       0
          EXTRAPOLATION IN EFFECT
          SOSCF IN EFFECT
 ORBITAL PRINTING OPTION: NPREO=     1 32767     2     1

     -------------------------------
     INTEGRAL TRANSFORMATION OPTIONS
     -------------------------------
     NWORD  =            0
     CUTOFF = 1.0E-10     MPTRAN =       0
     DIRTRF =       T     AOINTS =DUP     

          ----------------------
          INTEGRAL INPUT OPTIONS
          ----------------------
 NOPK  =       1 NORDER=       0 SCHWRZ=       T

 ..... DONE SETTING UP THE RUN .....
 CPU     0: STEP CPU TIME=     0.04 TOTAL CPU TIME=          0.0 (      0.0 MIN)
 TOTAL WALL CLOCK TIME=          0.1 SECONDS, CPU UTILIZATION IS    57.14%
 CPU     0: STEP CPU TIME=     0.00 TOTAL CPU TIME=          0.0 (      0.0 MIN)
 TOTAL WALL CLOCK TIME=          0.1 SECONDS, CPU UTILIZATION IS    57.14%

                    ----------------------
                    AO INTEGRAL TECHNOLOGY
                    ----------------------
     S,P,L SHELL ROTATED AXIS INTEGRALS, REPROGRAMMED BY
        KAZUYA ISHIMURA (IMS) AND JOSE SIERRA (SYNSTAR).
     S,P,D,L SHELL ROTATED AXIS INTEGRALS PROGRAMMED BY
        KAZUYA ISHIMURA (INSTITUTE FOR MOLECULAR SCIENCE).
     S,P,D,F,G SHELL TO TOTAL QUARTET ANGULAR MOMENTUM SUM 5,
        ERIC PROGRAM BY GRAHAM FLETCHER (ELORET AND NASA ADVANCED
        SUPERCOMPUTING DIVISION, AMES RESEARCH CENTER).
     S,P,D,F,G,L SHELL GENERAL RYS QUADRATURE PROGRAMMED BY
        MICHEL DUPUIS (PACIFIC NORTHWEST NATIONAL LABORATORY).
 Setting modorb=1 flag...
 Setting modorb=1 flag...

          -----------------------
          MP2 CONTROL INFORMATION
          -----------------------
          NACORE =        8  NBCORE =        8
          LMOMP2 =        F  AOINTS = DUP     
          METHOD =        2  NWORD  =               0
          MP2PRP =        F  OSPT   = NONE    
          CUTOFF = 1.00E-12  CPHFBS = BASISAO 
          CODE   = IMS     

          NUMBER OF CORE -A-  ORBITALS =     8
          NUMBER OF CORE -B-  ORBITALS =     8
          NUMBER OF OCC. -A-  ORBITALS =    18
          NUMBER OF OCC. -B-  ORBITALS =    18
          NUMBER OF MOLECULAR ORBITALS =    66
          NUMBER OF   BASIS  FUNCTIONS =    66

 CPU     0: STEP CPU TIME=     0.03 TOTAL CPU TIME=          0.1 (      0.0 MIN)
 TOTAL WALL CLOCK TIME=          0.1 SECONDS, CPU UTILIZATION IS    63.64%
 CPU     0: STEP CPU TIME=     0.00 TOTAL CPU TIME=          0.1 (      0.0 MIN)
 TOTAL WALL CLOCK TIME=          0.1 SECONDS, CPU UTILIZATION IS    63.64%

     INPUT FOR CAVITY DEFINITION 
     ---------------------------
   ATOM               COORDINATES                RADIUS       EPS
      1     20.6000     13.9990      3.5660      0.0100     78.3900
      2     20.7290     14.3990      2.6840      1.5900     78.3900
      3     21.7700     15.3770      2.8180      1.7700     78.3900
      4     22.6880     14.8870      3.2160      0.0100     78.3900
      5     21.4500     16.1520      3.5490      0.0100     78.3900
      6     22.1170     16.0650      1.4920      1.7700     78.3900
      7     22.9170     16.8240      1.6410      0.0100     78.3900
      8     22.6150     15.0800      0.5340      1.5900     78.3900
      9     22.1270     15.4030     -0.7610      1.7700     78.3900
     10     23.0140     15.4920     -1.4300      0.0100     78.3900
     11     21.2420     14.3540     -1.2810      1.6800     78.3900
     12     20.1050     13.0320     -2.6230      1.7700     78.3900
     13     19.9460     12.5150     -1.3430      1.6800     78.3900
     14     20.6350     13.3350     -0.5830      1.7700     78.3900
     15     20.7510     13.2480      0.5000      0.0100     78.3900
     16     20.0050     13.3370     -4.9740      1.6800     78.3900
     17     20.7560     14.4290     -4.7830      1.7700     78.3900
     18     21.0010     14.9920     -5.6910      0.0100     78.3900
     19     21.2590     14.9220     -3.6460      1.6800     78.3900
     20     20.8970     14.1670     -2.5960      1.7700     78.3900
     21     19.6540     12.5970     -3.8890      1.7700     78.3900
     22     18.9130     11.4850     -4.0680      1.6800     78.3900
     23     18.6520     10.9050     -3.2950      0.0100     78.3900
     24     18.5740     11.2360     -4.9780      0.0100     78.3900
     25     21.4400     16.7440     -0.6630      1.7700     78.3900
     26     20.6060     16.8480     -1.3850      0.0100     78.3900
     27     22.3850     17.7750     -0.8750      1.5900     78.3900
     28     21.9070     18.6060     -0.7670      0.0100     78.3900
     29     20.9360     16.7320      0.7740      1.7700     78.3900
     30     20.0760     16.0350      0.8720      0.0100     78.3900
     31     20.6780     18.0340      1.3460      1.5900     78.3900
     32     19.2380     18.6680      1.2340      2.1000     78.3900
     33     18.2360     17.6620      1.6480      1.5900     78.3900
     34     19.2270     19.9570      1.9670      1.5900     78.3900
     35     19.0930     18.9400     -0.3140      1.5900     78.3900
     36     19.8780     19.9850     -0.9450      1.7700     78.3900
     37     20.9650     19.8850     -0.7260      0.0100     78.3900
     38     19.5650     20.9840     -0.5790      0.0100     78.3900
     39     19.6830     20.0060     -2.4640      1.7700     78.3900
     40     20.3130     20.7890     -2.9400      0.0100     78.3900
     41     20.0700     18.7270     -3.0270      1.5900     78.3900
     42     19.2000     18.4050     -4.0960      1.7700     78.3900
     43     19.8400     18.2620     -4.9960      0.0100     78.3900
     44     18.4570     17.1610     -3.8380      1.6800     78.3900
     45     17.8300     16.3880     -4.7760      1.7700     78.3900
     46     16.8550     15.8470     -8.0580      1.6800     78.3900
     47     17.2480     16.6320     -8.5340      0.0100     78.3900
     48     16.2820     15.2040     -8.5740      0.0100     78.3900
     49     17.7640     16.6510     -6.0950      1.6800     78.3900
     50     17.0600     15.7390     -6.7570      1.7700     78.3900
     51     16.5150     14.6350     -6.1620      1.6800     78.3900
     52     16.0030     13.9880     -6.7390      0.0100     78.3900
     53     16.5970     14.3170     -4.8160      1.7700     78.3900
     54     16.0700     13.2800     -4.4080      1.5900     78.3900
     55     17.3110     15.3100     -4.0850      1.7700     78.3900
     56     17.5960     15.4110     -2.7220      1.6800     78.3900
     57     18.2630     16.5370     -2.6250      1.7700     78.3900
     58     18.6370     16.9730     -1.6970      0.0100     78.3900
     59     18.2880     19.5920     -4.3120      1.7700     78.3900
     60     17.2820     19.2950     -4.6700      0.0100     78.3900
     61     18.8810     20.4860     -5.2320      1.5900     78.3900
     62     18.3150     21.2670     -5.2620      0.0100     78.3900
     63     18.2290     20.1990     -2.9150      1.7700     78.3900
     64     17.6050     19.5720     -2.2410      0.0100     78.3900
     65     17.8680     21.6000     -2.8630      1.5900     78.3900
     66     16.3430     22.0010     -2.8160      2.1000     78.3900
     67     15.6880     21.2500     -1.7260      1.5900     78.3900
     68     16.2310     23.4770     -2.7680      1.5900     78.3900
     69     15.7610     21.4840     -4.1790      1.5900     78.3900
     70     16.0030     22.1750     -5.4250      1.7700     78.3900
     71     17.0910     22.3060     -5.6190      0.0100     78.3900
     72     15.5500     23.1930     -5.4020      0.0100     78.3900
     73     15.3890     21.4090     -6.6080      1.7700     78.3900
     74     15.6720     21.8930     -7.5700      0.0100     78.3900
     75     15.8760     20.0350     -6.6460      1.5900     78.3900
     76     14.8360     19.1830     -7.1060      1.7700     78.3900
     77     15.2240     18.6650     -8.0130      0.0100     78.3900
     78     14.4660     18.1710     -6.0960      1.6800     78.3900
     79     13.7810     17.0040     -6.3180      1.7700     78.3900
     80     12.1100     14.8790     -8.4860      1.6800     78.3900
     81     12.1750     15.3720     -9.3540      0.0100     78.3900
     82     11.5930     14.0200     -8.4450      0.0100     78.3900
     83     13.3070     16.5840     -7.5000      1.6800     78.3900
     84     12.6790     15.4140     -7.4180      1.7700     78.3900
     85     12.5670     14.7090     -6.2490      1.6800     78.3900
     86     12.0930     13.8190     -6.2750      0.0100     78.3900
     87     13.0730     15.1000     -5.0150      1.7700     78.3900
     88     12.9270     14.3850     -4.0210      1.5900     78.3900
     89     13.7100     16.3710     -5.0930      1.7700     78.3900
     90     14.3180     17.1400     -4.1070      1.6800     78.3900
     91     14.7470     18.2000     -4.7500      1.7700     78.3900
     92     15.2770     19.0440     -4.3010      0.0100     78.3900
     93     13.6720     20.0690     -7.4930      1.7700     78.3900
     94     12.6930     19.5780     -7.3220      0.0100     78.3900
     95     13.7990     20.4490     -8.8530      1.5900     78.3900
     96     13.1390     21.1360     -9.0150      0.0100     78.3900
     97     13.8620     21.2650     -6.5640      1.7700     78.3900
     98     13.5970     20.9990     -5.5150      0.0100     78.3900
     99     13.2280     22.4890     -7.0020      1.5900     78.3900
    100     11.7270     22.7810     -6.6010      2.1000     78.3900
    101     11.6390     22.8000     -5.1230      1.5900     78.3900
    102     11.2860     24.0020     -7.3100      1.5900     78.3900
    103     10.9000     21.5460     -7.1200      1.5900     78.3900
    104     10.5290     21.4370     -8.5120      1.7700     78.3900
    105     11.4280     21.4440     -9.1590      0.0100     78.3900
    106      9.8880     22.2970     -8.8220      0.0100     78.3900
    107      9.7530     20.1420     -8.7880      1.7700     78.3900
    108      9.5420     20.0260     -9.8740      0.0100     78.3900
    109     10.5310     18.9830     -8.3680      1.5900     78.3900
    110      9.6660     18.0130     -7.8060      1.7700     78.3900
    111      9.8060     17.0700     -8.3870      0.0100     78.3900
    112      9.9890     17.7690     -6.3960      1.6800     78.3900
    113     10.1550     16.8400     -4.4110      1.7700     78.3900
    114     10.8430     18.0440     -4.3320      1.6800     78.3900
    115     10.7160     18.5570     -5.5350      1.7700     78.3900
    116     11.1360     19.5100     -5.8620      0.0100     78.3900
    117      9.1850     14.7430     -3.8840      1.6800     78.3900
    118      8.7080     14.7290     -5.1310      1.7700     78.3900
    119      8.1110     13.8480     -5.3980      0.0100     78.3900
    120      8.8890     15.6270     -6.1050      1.6800     78.3900
    121      9.6200     16.6680     -5.6740      1.7700     78.3900
    122      9.9340     15.8000     -3.4810      1.7700     78.3900
    123     10.4430     15.7940     -2.2370      1.6800     78.3900
    124     11.0010     16.5440     -1.8760      0.0100     78.3900
    125     10.2260     15.0360     -1.6200      0.0100     78.3900
    126      8.2500     18.5070     -7.9910      1.7700     78.3900
    127      7.5850     18.2100     -7.1560      0.0100     78.3900
    128      7.7350     18.0340     -9.2190      1.5900     78.3900
    129      6.9200     18.5270     -9.3830      0.0100     78.3900
    130      8.4340     20.0180     -8.0180      1.7700     78.3900
    131      8.6290     20.4080     -6.9900      0.0100     78.3900
    132      7.3810     20.7330     -8.7110      1.5900     78.3900
    133      6.1760     21.2920     -7.8660      2.1000     78.3900
    134      6.7310     22.1040     -6.7600      1.5900     78.3900
    135      5.2250     21.9650     -8.7770      1.5900     78.3900
    136      5.4970     20.0120     -7.2510      1.5900     78.3900
    137      4.7130     19.0940     -8.0440      1.7700     78.3900
    138      5.2890     18.7310     -8.9210      0.0100     78.3900
    139      3.7940     19.5930     -8.4230      0.0100     78.3900
    140      4.2870     17.8610     -7.2290      1.7700     78.3900
    141      3.7790     17.1100     -7.8730      0.0100     78.3900
    142      5.4590     17.2250     -6.6440      1.5900     78.3900
    143      5.1350     16.7150     -5.3680      1.7700     78.3900
    144      5.3630     15.6300     -5.3950      0.0100     78.3900
    145      5.9470     17.3390     -4.3240      1.6800     78.3900
    146      7.1000     17.6860     -2.4870      1.7700     78.3900
    147      7.2340     18.8360     -3.2570      1.6800     78.3900
    148      6.5280     18.5850     -4.3320      1.7700     78.3900
    149      6.4010     19.2670     -5.1760      0.0100     78.3900
    150      7.2940     16.0870     -0.7520      1.6800     78.3900
    151      6.5120     15.2980     -1.4950      1.7700     78.3900
    152      6.2770     14.3210     -1.0580      0.0100     78.3900
    153      5.9530     15.5440     -2.6870      1.6800     78.3900
    154      6.3050     16.7580     -3.1350      1.7700     78.3900
    155      7.6180     17.3160     -1.2250      1.7700     78.3900
    156      8.4120     18.1060     -0.4770      1.6800     78.3900
    157      8.7260     19.0070     -0.7860      0.0100     78.3900
    158      8.7560     17.7620      0.4000      0.0100     78.3900
    159      3.6560     16.9240     -5.1620      1.7700     78.3900
    160      3.3950     17.1180     -4.1010      0.0100     78.3900
    161      2.9470     15.8000     -5.6490      1.5900     78.3900
    162      2.0590     16.1220     -5.8410      0.0100     78.3900
    163      3.3860     18.1520     -6.0250      1.7700     78.3900
    164      3.8040     19.0700     -5.5520      0.0100     78.3900
    165      2.0050     18.3010     -6.4420      1.5900     78.3900
    166      1.0480     19.1360     -5.4980      2.1000     78.3900
    167      1.7340     20.4100     -5.1790      1.5900     78.3900
    168     -0.2950     19.2500     -6.1030      1.5900     78.3900
    169      0.9440     18.2990     -4.1770      1.5900     78.3900
    170      0.2720     17.0230     -4.1000      1.7700     78.3900
    171      0.6330     16.3170     -4.8760      0.0100     78.3900
    172     -0.8230     17.1440     -4.2610      0.0100     78.3900
    173      0.4740     16.3770     -2.7200      1.7700     78.3900
    174     -0.0210     15.3830     -2.6740      0.0100     78.3900
    175      1.8870     16.1730     -2.4320      1.5900     78.3900
    176      2.1200     16.3880     -1.0450      1.7700     78.3900
    177      2.5290     15.4220     -0.6670      0.0100     78.3900
    178      3.1060     17.4760     -0.7860      1.6800     78.3900
    179      3.1740     18.5450     -1.6470      1.7700     78.3900
    180      2.4940     18.5160     -2.4980      0.0100     78.3900
    181      4.0550     19.5360     -1.4610      1.7700     78.3900
    182      4.1400     20.3760     -2.1440      0.0100     78.3900
    183      3.9310     17.4410      0.3400      1.7700     78.3900
    184      3.8440     16.4880      1.1310      1.5900     78.3900
    185      4.8060     18.4530      0.5560      1.6800     78.3900
    186      4.9050     19.4630     -0.3220      1.7700     78.3900
    187      5.8150     20.4150     -0.1200      1.6800     78.3900
    188      6.4010     20.3710      0.6920      0.0100     78.3900
    189      5.8940     21.2120     -0.7270      0.0100     78.3900
    190      0.7690     16.6430     -0.3870      1.7700     78.3900
    191      0.8350     17.3620      0.4580      0.0100     78.3900
    192      0.2150     15.4220      0.0680      1.5900     78.3900
    193     -0.7150     15.5880      0.2910      0.0100     78.3900
    194     -0.0300     17.2230     -1.5510      1.7700     78.3900
    195      0.2940     18.2660     -1.7620      0.0100     78.3900
    196     -1.4650     17.0970     -1.4520      1.5900     78.3900
    197     -2.2350     18.1770     -0.6060      2.1000     78.3900
    198     -2.4220     17.6680      0.7700      1.5900     78.3900
    199     -1.5480     19.4800     -0.7230      1.5900     78.3900
    200     -3.6410     18.2960     -1.3060      1.5900     78.3900
    201     -4.7860     17.5350     -0.8570      1.7700     78.3900
    202     -4.9960     17.7460      0.2190      0.0100     78.3900
    203     -4.6000     16.4430     -0.9610      0.0100     78.3900
    204     -6.0620     17.8690     -1.6500      1.7700     78.3900
    205     -6.9220     17.2740     -1.2800      0.0100     78.3900
    206     -6.4010     19.2780     -1.4690      1.5900     78.3900
    207     -6.8790     19.8210     -2.6960      1.7700     78.3900
    208     -7.8970     20.2250     -2.4740      0.0100     78.3900
    209     -6.0050     20.9200     -3.1970      1.6800     78.3900
    210     -4.7240     21.0840     -2.7180      1.7700     78.3900
    211     -4.4010     20.3610     -1.9700      0.0100     78.3900
    212     -6.5160     21.7850     -4.1390      1.7700     78.3900
    213     -7.6530     21.6740     -4.5890      1.5900     78.3900
    214     -5.6650     22.7860     -4.5350      1.6800     78.3900
    215     -6.0360     23.4450     -5.1980      0.0100     78.3900
    216     -4.3810     23.0170     -4.0900      1.7700     78.3900
    217     -3.7370     23.9690     -4.5310      1.5900     78.3900
    218     -3.9190     22.0810     -3.1120      1.7700     78.3900
    219     -2.9250     22.2140     -2.6880      0.0100     78.3900
    220     -7.0060     18.6770     -3.6860      1.7700     78.3900
    221     -6.7640     18.9840     -4.7260      0.0100     78.3900
    222     -8.3160     18.1360     -3.6440      1.5900     78.3900
    223     -8.2800     17.2770     -4.0950      0.0100     78.3900
    224     -5.9700     17.6850     -3.1740      1.7700     78.3900
    225     -4.9460     18.0220     -3.4630      0.0100     78.3900
    226     -6.2480     16.3120     -3.5430      1.5900     78.3900
    227     -5.3590     15.5980     -4.6320      2.1000     78.3900
    228     -3.9570     15.6530     -4.1790      1.5900     78.3900
    229     -5.9100     14.2500     -4.8670      1.5900     78.3900
    230     -5.5710     16.4650     -5.9470      1.5900     78.3900
    231     -5.0010     16.0380     -7.2090      1.7700     78.3900
    232     -5.7420     16.2280     -8.0170      0.0100     78.3900
    233     -4.7750     14.9470     -7.2350      0.0100     78.3900
    234     -3.7220     16.8160     -7.5430      1.7700     78.3900
    235     -3.8570     17.8990     -7.3420      0.0100     78.3900
    236     -2.6360     16.3380     -6.7090      1.5900     78.3900
    237     -1.4430     16.2470     -7.4600      1.7700     78.3900
    238     -0.6710     16.8200     -6.8990      0.0100     78.3900
    239     -1.0080     14.8540     -7.5780      1.6800     78.3900
    240      0.1480     13.0320     -7.9960      1.7700     78.3900
    241     -0.9870     12.6220     -7.3080      1.6800     78.3900
    242     -1.6330     13.7370     -7.0740      1.7700     78.3900
    243     -2.5830     13.8160     -6.5370      0.0100     78.3900
    244      2.2530     13.0490     -9.0780      1.6800     78.3900
    245      2.1040     14.3730     -9.1740      1.7700     78.3900
    246      2.9230     14.9030     -9.6690      0.0100     78.3900
    247      1.0980     15.1420     -8.7480      1.6800     78.3900
    248      0.1460     14.4050     -8.1660      1.7700     78.3900
    249      1.2690     12.3300     -8.4840      1.7700     78.3900
    250      1.4070     10.9970     -8.3940      1.6800     78.3900
    251      0.7600     10.4370     -7.8650      0.0100     78.3900
    252      2.2680     10.5830     -8.6860      0.0100     78.3900
    253     -1.7010     16.9060     -8.7980      1.7700     78.3900
    254     -1.1280     16.4420     -9.6280      0.0100     78.3900
    255     -1.3860     18.2850     -8.7220      1.5900     78.3900
    256     -1.6860     18.6330     -7.8680      0.0100     78.3900
    257     -3.1920     16.6590     -8.9760      1.7700     78.3900
    258     -3.3520     15.5890     -9.2490      0.0100     78.3900
    259     -3.8370     17.5910     -9.8710      1.5900     78.3900
    260     -4.6010     17.0730    -11.1400      2.1000     78.3900
    261     -5.3280     15.8430    -10.7600      1.5900     78.3900
    262     -5.4020     18.1880    -11.6900      1.5900     78.3900
    263     -3.4730     16.6790    -12.1680      1.5900     78.3900
    264     -2.5330     17.6440    -12.6900      1.7700     78.3900
    265     -2.2480     18.4070    -11.9240      0.0100     78.3900
    266     -2.9880     18.1820    -13.5520      0.0100     78.3900
    267     -1.2360     16.9720    -13.1800      1.7700     78.3900
    268     -0.5310     17.7310    -13.5850      0.0100     78.3900
    269     -0.5660     16.3320    -12.0550      1.5900     78.3900
    270      0.0170     15.1060    -12.4810      1.7700     78.3900
    271      1.0980     15.1680    -12.2050      0.0100     78.3900
    272     -0.5830     13.9090    -11.8140      1.6800     78.3900
    273     -1.8250     13.9880    -11.2320      1.7700     78.3900
    274     -2.3150     14.9580    -11.2890      0.0100     78.3900
    275     -2.3780     12.9390    -10.6070      1.7700     78.3900
    276     -3.3440     13.0010    -10.1120      0.0100     78.3900
    277      0.1000     12.6970    -11.8020      1.7700     78.3900
    278      1.2050     12.6240    -12.3570      1.5900     78.3900
    279     -0.4470     11.6200    -11.1890      1.6800     78.3900
    280     -1.6360     11.7240    -10.5720      1.7700     78.3900
    281     -2.1220     10.6720     -9.9150      1.6800     78.3900
    282     -1.5760      9.8330     -9.8530      0.0100     78.3900
    283     -3.0000     10.7060     -9.4340      0.0100     78.3900
    284     -0.1030     15.0570    -13.9900      1.7700     78.3900
    285     -0.1930     14.0240    -14.3780      0.0100     78.3900
    286      1.0080     15.6970    -14.5900      1.5900     78.3900
    287      0.8320     15.7270    -15.5390      0.0100     78.3900
    288     -1.3830     15.8470    -14.2190      1.7700     78.3900
    289     -2.2690     15.2530    -13.8980      0.0100     78.3900
    290     -1.5070     16.3960    -15.5540      1.5900     78.3900
    291     -2.3700     15.6110    -16.6150      2.1000     78.3900
    292     -3.5610     15.0360    -15.9530      1.5900     78.3900
    293     -2.6230     16.5020    -17.7640      1.5900     78.3900
    294     -1.4580     14.4220    -17.0920      1.5900     78.3900
    295     -0.1790     14.6590    -17.7330      1.7700     78.3900
    296      0.4200     15.4250    -17.1920      0.0100     78.3900
    297     -0.3360     15.0360    -18.7710      0.0100     78.3900
    298      0.6690     13.3750    -17.8220      1.7700     78.3900
    299      1.6240     13.5760    -18.3540      0.0100     78.3900
    300      1.0170     12.9060    -16.4880      1.5900     78.3900
    301      0.9960     11.4840    -16.4590      1.7700     78.3900
    302      2.0090     11.1640    -16.1110      0.0100     78.3900
    303     -0.0590     10.9690    -15.5310      1.6800     78.3900
    304     -1.1290     11.7590    -15.1820      1.7700     78.3900
    305     -1.1490     12.7430    -15.6390      0.0100     78.3900
    306      0.0610      9.6970    -15.0180      1.7700     78.3900
    307      0.9900      8.9540    -15.3070      1.5900     78.3900
    308     -0.9300      9.3270    -14.1410      1.6800     78.3900
    309     -0.8800      8.3780    -13.7910      0.0100     78.3900
    310     -2.0050     10.0790    -13.7230      1.7700     78.3900
    311     -2.7990      9.6270    -12.9000      1.5900     78.3900
    312     -2.0650     11.3830    -14.3030      1.7700     78.3900
    313     -2.8630     12.0540    -14.0020      0.0100     78.3900
    314      0.8020     11.0140    -17.8930      1.7700     78.3900
    315      0.2440     10.0600    -17.9450      0.0100     78.3900
    316      2.0580     10.8570    -18.5310      1.5900     78.3900
    317      1.8710     10.6530    -19.4550      0.0100     78.3900
    318      0.0020     12.1670    -18.4930      1.7700     78.3900
    319     -1.0420     12.1420    -18.1130      0.0100     78.3900
    320      0.0750     12.2900    -19.9350      1.5900     78.3900
    321     -1.0820     11.6660    -20.8120      2.1000     78.3900
    322     -2.4090     12.0130    -20.2600      1.5900     78.3900
    323     -0.8560     12.0400    -22.2270      1.5900     78.3900
    324     -0.8620     10.1180    -20.6360      1.5900     78.3900
    325      0.2820      9.4960    -21.2690      1.7700     78.3900
    326      1.2370      9.9710    -20.9480      0.0100     78.3900
    327      0.2120      9.5880    -22.3790      0.0100     78.3900
    328      0.3540      8.0030    -20.9380      1.7700     78.3900
    329      1.2140      7.5190    -21.4510      0.0100     78.3900
    330      0.5330      7.8150    -19.5070      1.5900     78.3900
    331     -0.2340      6.6970    -19.0830      1.7700     78.3900
    332      0.4810      5.9900    -18.6000      0.0100     78.3900
    333     -1.2540      7.0900    -18.0980      1.6800     78.3900
    334     -1.8800      6.2610    -17.2090      1.7700     78.3900
    335     -2.4450      3.0790    -15.9750      1.6800     78.3900
    336     -1.8290      2.5200    -16.5320      0.0100     78.3900
    337     -2.9980      2.6380    -15.2640      0.0100     78.3900
    338     -1.6980      4.9350    -17.1120      1.6800     78.3900
    339     -2.4620      4.3850    -16.1730      1.7700     78.3900
    340     -3.3230      5.1080    -15.3870      1.6800     78.3900
    341     -3.8670      4.6160    -14.6970      0.0100     78.3900
    342     -3.5240      6.4840    -15.4570      1.7700     78.3900
    343     -4.3290      7.0530    -14.7120      1.5900     78.3900
    344     -2.7240      7.0720    -16.4740      1.7700     78.3900
    345     -2.6440      8.3920    -16.9090      1.6800     78.3900
    346     -1.7650      8.3500    -17.8810      1.7700     78.3900
    347     -1.4460      9.2010    -18.4830      0.0100     78.3900
    348     -0.8240      6.0370    -20.3180      1.7700     78.3900
    349     -1.8320      5.6040    -20.1250      0.0100     78.3900
    350      0.0620      5.0300    -20.7860      1.5900     78.3900
    351     -0.2370      4.7220    -21.6580      0.0100     78.3900
    352     -0.9200      7.2210    -21.2740      1.7700     78.3900
    353     -1.7860      7.8600    -21.0070      0.0100     78.3900
    354     -0.9540      6.8680    -22.6700      1.5900     78.3900
    355     -1.7840      6.3990    -22.8680      0.0100     78.3900
    356     -7.8320      0.5220     -8.1750      0.0100     78.3900
    357     -7.1070      0.5010     -8.8260      1.5900     78.3900
    358     -6.9540     -0.8670     -9.2350      1.7700     78.3900
    359     -7.9320     -1.2600     -9.5910      0.0100     78.3900
    360     -6.6450     -1.4730     -8.3550      0.0100     78.3900
    361     -5.9140     -1.0580    -10.3460      1.7700     78.3900
    362     -5.7430     -2.1390    -10.5500      0.0100     78.3900
    363     -6.4030     -0.4630    -11.5870      1.5900     78.3900
    364     -5.3190      0.1760    -12.2570      1.7700     78.3900
    365     -5.2940     -0.2610    -13.2830      0.0100     78.3900
    366     -5.4870      1.6550    -12.3620      1.6800     78.3900
    367     -6.3790      2.3150    -11.5470      1.7700     78.3900
    368     -6.9320      1.6990    -10.8370      0.0100     78.3900
    369     -6.5560      3.6410    -11.6320      1.7700     78.3900
    370     -7.2690      4.1750    -11.0070      0.0100     78.3900
    371     -4.7340      2.3800    -13.2830      1.7700     78.3900
    372     -3.9230      1.7820    -14.0070      1.5900     78.3900
    373     -4.9150      3.7150    -13.4000      1.6800     78.3900
    374     -5.7980      4.3490    -12.6080      1.7700     78.3900
    375     -5.9670      5.6640    -12.7510      1.6800     78.3900
    376     -5.4160      6.1630    -13.4250      0.0100     78.3900
    377     -6.6000      6.1780    -12.1680      0.0100     78.3900
    378     -4.0500     -0.2120    -11.5300      1.7700     78.3900
    379     -3.2650      0.5680    -11.5950      0.0100     78.3900
    380     -3.5500     -1.4300    -12.0460      1.5900     78.3900
    381     -2.7810     -1.6600    -11.5100      0.0100     78.3900
    382     -4.5590     -0.3770    -10.1030      1.7700     78.3900
    383     -4.7820      0.6180     -9.6550      0.0100     78.3900
    384     -3.7440     -1.2070     -9.2470      1.5900     78.3900
    385     -2.5910     -0.5400     -8.4030      2.1000     78.3900
    386     -3.1120      0.6560     -7.7030      1.5900     78.3900
    387     -1.9710     -1.5840     -7.5580      1.5900     78.3900
    388     -1.5430     -0.0590     -9.4700      1.5900     78.3900
    389     -0.7150     -1.0150    -10.1700      1.7700     78.3900
    390     -1.3350     -1.7570    -10.7160      0.0100     78.3900
    391     -0.0660     -1.5720     -9.4550      0.0100     78.3900
    392      0.2020     -0.3150    -11.1820      1.7700     78.3900
    393      0.8300     -1.0530    -11.7220      0.0100     78.3900
    394     -0.5900      0.3870    -12.1850      1.5900     78.3900
    395      0.0560      1.6080    -12.5150      1.7700     78.3900
    396      0.2020      1.6080    -13.6200      0.0100     78.3900
    397     -0.7640      2.7600    -12.1370      1.6800     78.3900
    398     -1.6410      4.7690    -12.0080      1.7700     78.3900
    399     -2.3630      3.9780    -11.1280      1.6800     78.3900
    400     -1.8040      2.8000    -11.2390      1.7700     78.3900
    401     -2.1010      1.9120    -10.6790      0.0100     78.3900
    402     -0.8490      6.6130    -13.2560      1.6800     78.3900
    403      0.0680      5.7810    -13.7570      1.7700     78.3900
    404      0.7530      6.2330    -14.4770      0.0100     78.3900
    405      0.2510      4.4770    -13.5230      1.6800     78.3900
    406     -0.6460      4.0320    -12.6290      1.7700     78.3900
    407     -1.7420      6.1290    -12.3560      1.7700     78.3900
    408     -2.6810      6.9510    -11.8510      1.6800     78.3900
    409     -3.3140      6.6560    -11.1350      0.0100     78.3900
    410     -2.7510      7.8920    -12.1930      0.0100     78.3900
    411      1.4050      1.6140    -11.8300      1.7700     78.3900
    412      1.7430      2.6350    -11.5430      0.0100     78.3900
    413      2.3690      1.0030    -12.6690      1.5900     78.3900
    414      3.1730      0.9430    -12.1420      0.0100     78.3900
    415      1.1260      0.7620    -10.5960      1.7700     78.3900
    416      0.5170      1.3310     -9.8550      0.0100     78.3900
    417      2.2930      0.1430    -10.0060      1.5900     78.3900
    418      3.0470      0.8780     -8.8400      2.1000     78.3900
    419      2.0490      1.4430     -7.9080      1.5900     78.3900
    420      4.0640     -0.0290     -8.2590      1.5900     78.3900
    421      3.7750      2.0880     -9.5420      1.5900     78.3900
    422      4.8560      1.8930    -10.4810      1.7700     78.3900
    423      4.5590      1.2070    -11.3040      0.0100     78.3900
    424      5.7370      1.4470     -9.9700      0.0100     78.3900
    425      5.3170      3.2210    -11.1020      1.7700     78.3900
    426      6.1330      3.0470    -11.8410      0.0100     78.3900
    427      4.2210      3.8530    -11.8120      1.5900     78.3900
    428      4.2760      5.2580    -11.6130      1.7700     78.3900
    429      4.3540      5.7150    -12.6270      0.0100     78.3900
    430      3.0570      5.7410    -10.9540      1.6800     78.3900
    431      2.4920      6.9770    -11.1110      1.7700     78.3900
    432      2.4730     10.1240    -12.5670      1.6800     78.3900
    433      3.3140     10.1250    -13.1070      0.0100     78.3900
    434      1.9460     10.9730    -12.4750      0.0100     78.3900
    435      2.9790      7.9810    -11.8680      1.6800     78.3900
    436      2.1800      9.0470    -11.8640      1.7700     78.3900
    437      1.0250      9.1140    -11.1310      1.6800     78.3900
    438      0.5040      9.9770    -11.1480      0.0100     78.3900
    439      0.5210      8.1150    -10.3100      1.7700     78.3900
    440     -0.5220      8.2820     -9.6710      1.5900     78.3900
    441      1.3580      6.9670    -10.3190      1.7700     78.3900
    442      1.2320      5.7560     -9.6430      1.6800     78.3900
    443      2.2680      5.0590    -10.0500      1.7700     78.3900
    444      2.5040      4.0390     -9.7430      0.0100     78.3900
    445      5.5300      5.5850    -10.8220      1.7700     78.3900
    446      5.3770      6.4160    -10.0960      0.0100     78.3900
    447      6.6010      5.9110    -11.6900      1.5900     78.3900
    448      7.3940      5.9220    -11.1380      0.0100     78.3900
    449      5.7850      4.2720    -10.0910      1.7700     78.3900
    450      5.0900      4.1910     -9.2230      0.0100     78.3900
    451      7.1660      4.0250     -9.7480      1.5900     78.3900
    452      7.6910      4.4290     -8.3280      2.1000     78.3900
    453      6.5850      4.3620     -7.3490      1.5900     78.3900
    454      8.8880      3.6130     -8.0120      1.5900     78.3900
    455      8.0880      5.9370     -8.4760      1.5900     78.3900
    456      9.4120      6.3590     -8.8600      1.7700     78.3900
    457      9.8980      5.6330     -9.5550      0.0100     78.3900
    458     10.0510      6.4380     -7.9490      0.0100     78.3900
    459      9.3650      7.7270     -9.5680      1.7700     78.3900
    460      8.7230      7.6730    -10.4740      0.0100     78.3900
    461      8.7740      8.7340     -8.6910      1.5900     78.3900
    462      9.4660      9.9690     -8.8400      1.7700     78.3900
    463      8.6820     10.7210     -9.0890      0.0100     78.3900
    464     10.1730     10.3990     -7.5940      1.6800     78.3900
    465     10.3120      9.5290     -6.5330      1.7700     78.3900
    466      9.8790      8.5340     -6.6610      0.0100     78.3900
    467     10.9220      9.9020     -5.4000      1.7700     78.3900
    468     11.0220      9.2340     -4.5460      0.0100     78.3900
    469     10.6980     11.6870     -7.4980      1.7700     78.3900
    470     10.5960     12.4590     -8.4620      1.5900     78.3900
    471     11.3120     12.0800     -6.3580      1.6800     78.3900
    472     11.4210     11.2320     -5.3210      1.7700     78.3900
    473     12.0130     11.6510     -4.2030      1.6800     78.3900
    474     12.3080     12.6060     -4.1300      0.0100     78.3900
    475     12.0630     11.0740     -3.3830      0.0100     78.3900
    476     10.3960      9.8200    -10.0270      1.7700     78.3900
    477     11.3140     10.4350     -9.9370      0.0100     78.3900
    478      9.7180     10.1610    -11.2230      1.5900     78.3900
    479     10.2840      9.8820    -11.9540      0.0100     78.3900
    480     10.7190      8.3350     -9.9720      1.7700     78.3900
    481     11.4180      8.1300     -9.1270      0.0100     78.3900
    482     11.1550      7.7920    -11.2340      1.5900     78.3900
    483     12.6260      7.2940    -11.4530      2.1000     78.3900
    484     13.1460      6.7480    -10.1790      1.5900     78.3900
    485     12.6520      6.3980    -12.6240      1.5900     78.3900
    486     13.4040      8.6220    -11.7940      1.5900     78.3900
    487     13.1290      9.3170    -13.0380      1.7700     78.3900
    488     12.0330      9.4120    -13.2300      0.0100     78.3900
    489     13.5780      8.7540    -13.8880      0.0100     78.3900
    490     13.7180     10.7400    -13.0500      1.7700     78.3900
    491     13.5280     11.2340    -14.0270      0.0100     78.3900
    492     13.0770     11.5550    -12.0260      1.5900     78.3900
    493     14.0450     12.4050    -11.4200      1.7700     78.3900
    494     13.6490     13.4420    -11.5260      0.0100     78.3900
    495     14.2480     12.1160     -9.9670      1.6800     78.3900
    496     13.8740     10.8960     -9.4550      1.7700     78.3900
    497     13.4240     10.2000    -10.1630      0.0100     78.3900
    498     14.0210     10.6030     -8.1580      1.7700     78.3900
    499     13.7080      9.6480     -7.7400      0.0100     78.3900
    500     14.8580     13.0510     -9.1310      1.7700     78.3900
    501     15.2530     14.1250     -9.6060      1.5900     78.3900
    502     15.0110     12.7740     -7.8140      1.6800     78.3900
    503     14.6040     11.5920     -7.3190      1.7700     78.3900
    504     14.7590     11.3380     -6.0230      1.6800     78.3900
    505     15.2040     12.0140     -5.4290      0.0100     78.3900
    506     14.5400     10.4420     -5.6340      0.0100     78.3900
    507     15.3230     12.2830    -12.2270      1.7700     78.3900
    508     16.2320     12.4230    -11.6090      0.0100     78.3900
    509     15.3250     13.2240    -13.2830      1.5900     78.3900
    510     16.1200     13.0550    -13.8040      0.0100     78.3900
    511     15.2180     10.8530    -12.7510      1.7700     78.3900
    512     15.4220     10.1340    -11.9230      0.0100     78.3900
    513     15.9770     10.5820    -13.9560      1.5900     78.3900
    514     17.3910      9.8990    -13.8070      2.1000     78.3900
    515     17.3230      8.8340    -12.7850      1.5900     78.3900
    516     17.8890      9.5060    -15.1440      1.5900     78.3900
    517     18.2930     11.0530    -13.2410      1.5900     78.3900
    518     18.6170     12.2090    -14.0450      1.7700     78.3900
    519     17.6970     12.7210    -14.4060      0.0100     78.3900
    520     19.2080     11.9050    -14.9400      0.0100     78.3900
    521     19.4500     13.2240    -13.2460      1.7700     78.3900
    522     19.7530     14.0800    -13.8880      0.0100     78.3900
    523     18.6600     13.7600    -12.1410      1.5900     78.3900
    524     19.4960     13.9340    -11.0020      1.7700     78.3900
    525     19.4000     15.0090    -10.7190      0.0100     78.3900
    526     19.0720     13.0660     -9.8630      1.6800     78.3900
    527     18.3190     11.9300    -10.0690      1.7700     78.3900
    528     18.0470     11.7370    -11.1040      0.0100     78.3900
    529     19.4760     13.4170     -8.5950      1.7700     78.3900
    530     20.1830     14.3930     -8.3710      1.5900     78.3900
    531     19.0330     12.5900     -7.5970      1.6800     78.3900
    532     19.3600     12.8220     -6.6650      0.0100     78.3900
    533     18.2530     11.4610     -7.7240      1.7700     78.3900
    534     17.9260     10.8250     -6.7240      1.5900     78.3900
    535     17.8880     11.1450     -9.0720      1.7700     78.3900
    536     17.2560     10.2810     -9.2590      0.0100     78.3900
    537     20.9300     13.6630    -11.4450      1.7700     78.3900
    538     21.5360     13.2090    -10.6300      0.0100     78.3900
    539     21.5400     14.8690    -11.8900      1.5900     78.3900
    540     22.3780     14.6580    -12.3400      0.0100     78.3900
    541     20.7050     12.6590    -12.5720      1.7700     78.3900
    542     20.4500     11.6650    -12.1500      0.0100     78.3900
    543     21.7880     12.5580    -13.5110      1.5900     78.3900
    544     22.5640     12.1650    -13.0760      0.0100     78.3900

     ----------------------------
     INPUT FOR TESSERA DEFINITION
     ----------------------------
     NTSALL  =        60     MTHALL  =         4
     MTHAUT  =         0     AUTFRE  =    2.0000
     NTSFRZ  =        60     KEEPSM  =         0
     AREAKP  =   10.0000     BONDRY  =    1.0000
     AREATL  =    0.0100

     SPHERE     INITS       METHOD
          1        60       FIXPVA
          2        60       FIXPVA
          3        60       FIXPVA
          4        60       FIXPVA
          5        60       FIXPVA
          6        60       FIXPVA
          7        60       FIXPVA
          8        60       FIXPVA
          9        60       FIXPVA
         10        60       FIXPVA
         11        60       FIXPVA
         12        60       FIXPVA
         13        60       FIXPVA
         14        60       FIXPVA
         15        60       FIXPVA
         16        60       FIXPVA
         17        60       FIXPVA
         18        60       FIXPVA
         19        60       FIXPVA
         20        60       FIXPVA
         21        60       FIXPVA
         22        60       FIXPVA
         23        60       FIXPVA
         24        60       FIXPVA
         25        60       FIXPVA
         26        60       FIXPVA
         27        60       FIXPVA
         28        60       FIXPVA
         29        60       FIXPVA
         30        60       FIXPVA
         31        60       FIXPVA
         32        60       FIXPVA
         33        60       FIXPVA
         34        60       FIXPVA
         35        60       FIXPVA
         36        60       FIXPVA
         37        60       FIXPVA
         38        60       FIXPVA
         39        60       FIXPVA
         40        60       FIXPVA
         41        60       FIXPVA
         42        60       FIXPVA
         43        60       FIXPVA
         44        60       FIXPVA
         45        60       FIXPVA
         46        60       FIXPVA
         47        60       FIXPVA
         48        60       FIXPVA
         49        60       FIXPVA
         50        60       FIXPVA
         51        60       FIXPVA
         52        60       FIXPVA
         53        60       FIXPVA
         54        60       FIXPVA
         55        60       FIXPVA
         56        60       FIXPVA
         57        60       FIXPVA
         58        60       FIXPVA
         59        60       FIXPVA
         60        60       FIXPVA
         61        60       FIXPVA
         62        60       FIXPVA
         63        60       FIXPVA
         64        60       FIXPVA
         65        60       FIXPVA
         66        60       FIXPVA
         67        60       FIXPVA
         68        60       FIXPVA
         69        60       FIXPVA
         70        60       FIXPVA
         71        60       FIXPVA
         72        60       FIXPVA
         73        60       FIXPVA
         74        60       FIXPVA
         75        60       FIXPVA
         76        60       FIXPVA
         77        60       FIXPVA
         78        60       FIXPVA
         79        60       FIXPVA
         80        60       FIXPVA
         81        60       FIXPVA
         82        60       FIXPVA
         83        60       FIXPVA
         84        60       FIXPVA
         85        60       FIXPVA
         86        60       FIXPVA
         87        60       FIXPVA
         88        60       FIXPVA
         89        60       FIXPVA
         90        60       FIXPVA
         91        60       FIXPVA
         92        60       FIXPVA
         93        60       FIXPVA
         94        60       FIXPVA
         95        60       FIXPVA
         96        60       FIXPVA
         97        60       FIXPVA
         98        60       FIXPVA
         99        60       FIXPVA
        100        60       FIXPVA
        101        60       FIXPVA
        102        60       FIXPVA
        103        60       FIXPVA
        104        60       FIXPVA
        105        60       FIXPVA
        106        60       FIXPVA
        107        60       FIXPVA
        108        60       FIXPVA
        109        60       FIXPVA
        110        60       FIXPVA
        111        60       FIXPVA
        112        60       FIXPVA
        113        60       FIXPVA
        114        60       FIXPVA
        115        60       FIXPVA
        116        60       FIXPVA
        117        60       FIXPVA
        118        60       FIXPVA
        119        60       FIXPVA
        120        60       FIXPVA
        121        60       FIXPVA
        122        60       FIXPVA
        123        60       FIXPVA
        124        60       FIXPVA
        125        60       FIXPVA
        126        60       FIXPVA
        127        60       FIXPVA
        128        60       FIXPVA
        129        60       FIXPVA
        130        60       FIXPVA
        131        60       FIXPVA
        132        60       FIXPVA
        133        60       FIXPVA
        134        60       FIXPVA
        135        60       FIXPVA
        136        60       FIXPVA
        137        60       FIXPVA
        138        60       FIXPVA
        139        60       FIXPVA
        140        60       FIXPVA
        141        60       FIXPVA
        142        60       FIXPVA
        143        60       FIXPVA
        144        60       FIXPVA
        145        60       FIXPVA
        146        60       FIXPVA
        147        60       FIXPVA
        148        60       FIXPVA
        149        60       FIXPVA
        150        60       FIXPVA
        151        60       FIXPVA
        152        60       FIXPVA
        153        60       FIXPVA
        154        60       FIXPVA
        155        60       FIXPVA
        156        60       FIXPVA
        157        60       FIXPVA
        158        60       FIXPVA
        159        60       FIXPVA
        160        60       FIXPVA
        161        60       FIXPVA
        162        60       FIXPVA
        163        60       FIXPVA
        164        60       FIXPVA
        165        60       FIXPVA
        166        60       FIXPVA
        167        60       FIXPVA
        168        60       FIXPVA
        169        60       FIXPVA
        170        60       FIXPVA
        171        60       FIXPVA
        172        60       FIXPVA
        173        60       FIXPVA
        174        60       FIXPVA
        175        60       FIXPVA
        176        60       FIXPVA
        177        60       FIXPVA
        178        60       FIXPVA
        179        60       FIXPVA
        180        60       FIXPVA
        181        60       FIXPVA
        182        60       FIXPVA
        183        60       FIXPVA
        184        60       FIXPVA
        185        60       FIXPVA
        186        60       FIXPVA
        187        60       FIXPVA
        188        60       FIXPVA
        189        60       FIXPVA
        190        60       FIXPVA
        191        60       FIXPVA
        192        60       FIXPVA
        193        60       FIXPVA
        194        60       FIXPVA
        195        60       FIXPVA
        196        60       FIXPVA
        197        60       FIXPVA
        198        60       FIXPVA
        199        60       FIXPVA
        200        60       FIXPVA
        201        60       FIXPVA
        202        60       FIXPVA
        203        60       FIXPVA
        204        60       FIXPVA
        205        60       FIXPVA
        206        60       FIXPVA
        207        60       FIXPVA
        208        60       FIXPVA
        209        60       FIXPVA
        210        60       FIXPVA
        211        60       FIXPVA
        212        60       FIXPVA
        213        60       FIXPVA
        214        60       FIXPVA
        215        60       FIXPVA
        216        60       FIXPVA
        217        60       FIXPVA
        218        60       FIXPVA
        219        60       FIXPVA
        220        60       FIXPVA
        221        60       FIXPVA
        222        60       FIXPVA
        223        60       FIXPVA
        224        60       FIXPVA
        225        60       FIXPVA
        226        60       FIXPVA
        227        60       FIXPVA
        228        60       FIXPVA
        229        60       FIXPVA
        230        60       FIXPVA
        231        60       FIXPVA
        232        60       FIXPVA
        233        60       FIXPVA
        234        60       FIXPVA
        235        60       FIXPVA
        236        60       FIXPVA
        237        60       FIXPVA
        238        60       FIXPVA
        239        60       FIXPVA
        240        60       FIXPVA
        241        60       FIXPVA
        242        60       FIXPVA
        243        60       FIXPVA
        244        60       FIXPVA
        245        60       FIXPVA
        246        60       FIXPVA
        247        60       FIXPVA
        248        60       FIXPVA
        249        60       FIXPVA
        250        60       FIXPVA
        251        60       FIXPVA
        252        60       FIXPVA
        253        60       FIXPVA
        254        60       FIXPVA
        255        60       FIXPVA
        256        60       FIXPVA
        257        60       FIXPVA
        258        60       FIXPVA
        259        60       FIXPVA
        260        60       FIXPVA
        261        60       FIXPVA
        262        60       FIXPVA
        263        60       FIXPVA
        264        60       FIXPVA
        265        60       FIXPVA
        266        60       FIXPVA
        267        60       FIXPVA
        268        60       FIXPVA
        269        60       FIXPVA
        270        60       FIXPVA
        271        60       FIXPVA
        272        60       FIXPVA
        273        60       FIXPVA
        274        60       FIXPVA
        275        60       FIXPVA
        276        60       FIXPVA
        277        60       FIXPVA
        278        60       FIXPVA
        279        60       FIXPVA
        280        60       FIXPVA
        281        60       FIXPVA
        282        60       FIXPVA
        283        60       FIXPVA
        284        60       FIXPVA
        285        60       FIXPVA
        286        60       FIXPVA
        287        60       FIXPVA
        288        60       FIXPVA
        289        60       FIXPVA
        290        60       FIXPVA
        291        60       FIXPVA
        292        60       FIXPVA
        293        60       FIXPVA
        294        60       FIXPVA
        295        60       FIXPVA
        296        60       FIXPVA
        297        60       FIXPVA
        298        60       FIXPVA
        299        60       FIXPVA
        300        60       FIXPVA
        301        60       FIXPVA
        302        60       FIXPVA
        303        60       FIXPVA
        304        60       FIXPVA
        305        60       FIXPVA
        306        60       FIXPVA
        307        60       FIXPVA
        308        60       FIXPVA
        309        60       FIXPVA
        310        60       FIXPVA
        311        60       FIXPVA
        312        60       FIXPVA
        313        60       FIXPVA
        314        60       FIXPVA
        315        60       FIXPVA
        316        60       FIXPVA
        317        60       FIXPVA
        318        60       FIXPVA
        319        60       FIXPVA
        320        60       FIXPVA
        321        60       FIXPVA
        322        60       FIXPVA
        323        60       FIXPVA
        324        60       FIXPVA
        325        60       FIXPVA
        326        60       FIXPVA
        327        60       FIXPVA
        328        60       FIXPVA
        329        60       FIXPVA
        330        60       FIXPVA
        331        60       FIXPVA
        332        60       FIXPVA
        333        60       FIXPVA
        334        60       FIXPVA
        335        60       FIXPVA
        336        60       FIXPVA
        337        60       FIXPVA
        338        60       FIXPVA
        339        60       FIXPVA
        340        60       FIXPVA
        341        60       FIXPVA
        342        60       FIXPVA
        343        60       FIXPVA
        344        60       FIXPVA
        345        60       FIXPVA
        346        60       FIXPVA
        347        60       FIXPVA
        348        60       FIXPVA
        349        60       FIXPVA
        350        60       FIXPVA
        351        60       FIXPVA
        352        60       FIXPVA
        353        60       FIXPVA
        354        60       FIXPVA
        355        60       FIXPVA
        356        60       FIXPVA
        357        60       FIXPVA
        358        60       FIXPVA
        359        60       FIXPVA
        360        60       FIXPVA
        361        60       FIXPVA
        362        60       FIXPVA
        363        60       FIXPVA
        364        60       FIXPVA
        365        60       FIXPVA
        366        60       FIXPVA
        367        60       FIXPVA
        368        60       FIXPVA
        369        60       FIXPVA
        370        60       FIXPVA
        371        60       FIXPVA
        372        60       FIXPVA
        373        60       FIXPVA
        374        60       FIXPVA
        375        60       FIXPVA
        376        60       FIXPVA
        377        60       FIXPVA
        378        60       FIXPVA
        379        60       FIXPVA
        380        60       FIXPVA
        381        60       FIXPVA
        382        60       FIXPVA
        383        60       FIXPVA
        384        60       FIXPVA
        385        60       FIXPVA
        386        60       FIXPVA
        387        60       FIXPVA
        388        60       FIXPVA
        389        60       FIXPVA
        390        60       FIXPVA
        391        60       FIXPVA
        392        60       FIXPVA
        393        60       FIXPVA
        394        60       FIXPVA
        395        60       FIXPVA
        396        60       FIXPVA
        397        60       FIXPVA
        398        60       FIXPVA
        399        60       FIXPVA
        400        60       FIXPVA
        401        60       FIXPVA
        402        60       FIXPVA
        403        60       FIXPVA
        404        60       FIXPVA
        405        60       FIXPVA
        406        60       FIXPVA
        407        60       FIXPVA
        408        60       FIXPVA
        409        60       FIXPVA
        410        60       FIXPVA
        411        60       FIXPVA
        412        60       FIXPVA
        413        60       FIXPVA
        414        60       FIXPVA
        415        60       FIXPVA
        416        60       FIXPVA
        417        60       FIXPVA
        418        60       FIXPVA
        419        60       FIXPVA
        420        60       FIXPVA
        421        60       FIXPVA
        422        60       FIXPVA
        423        60       FIXPVA
        424        60       FIXPVA
        425        60       FIXPVA
        426        60       FIXPVA
        427        60       FIXPVA
        428        60       FIXPVA
        429        60       FIXPVA
        430        60       FIXPVA
        431        60       FIXPVA
        432        60       FIXPVA
        433        60       FIXPVA
        434        60       FIXPVA
        435        60       FIXPVA
        436        60       FIXPVA
        437        60       FIXPVA
        438        60       FIXPVA
        439        60       FIXPVA
        440        60       FIXPVA
        441        60       FIXPVA
        442        60       FIXPVA
        443        60       FIXPVA
        444        60       FIXPVA
        445        60       FIXPVA
        446        60       FIXPVA
        447        60       FIXPVA
        448        60       FIXPVA
        449        60       FIXPVA
        450        60       FIXPVA
        451        60       FIXPVA
        452        60       FIXPVA
        453        60       FIXPVA
        454        60       FIXPVA
        455        60       FIXPVA
        456        60       FIXPVA
        457        60       FIXPVA
        458        60       FIXPVA
        459        60       FIXPVA
        460        60       FIXPVA
        461        60       FIXPVA
        462        60       FIXPVA
        463        60       FIXPVA
        464        60       FIXPVA
        465        60       FIXPVA
        466        60       FIXPVA
        467        60       FIXPVA
        468        60       FIXPVA
        469        60       FIXPVA
        470        60       FIXPVA
        471        60       FIXPVA
        472        60       FIXPVA
        473        60       FIXPVA
        474        60       FIXPVA
        475        60       FIXPVA
        476        60       FIXPVA
        477        60       FIXPVA
        478        60       FIXPVA
        479        60       FIXPVA
        480        60       FIXPVA
        481        60       FIXPVA
        482        60       FIXPVA
        483        60       FIXPVA
        484        60       FIXPVA
        485        60       FIXPVA
        486        60       FIXPVA
        487        60       FIXPVA
        488        60       FIXPVA
        489        60       FIXPVA
        490        60       FIXPVA
        491        60       FIXPVA
        492        60       FIXPVA
        493        60       FIXPVA
        494        60       FIXPVA
        495        60       FIXPVA
        496        60       FIXPVA
        497        60       FIXPVA
        498        60       FIXPVA
        499        60       FIXPVA
        500        60       FIXPVA
        501        60       FIXPVA
        502        60       FIXPVA
        503        60       FIXPVA
        504        60       FIXPVA
        505        60       FIXPVA
        506        60       FIXPVA
        507        60       FIXPVA
        508        60       FIXPVA
        509        60       FIXPVA
        510        60       FIXPVA
        511        60       FIXPVA
        512        60       FIXPVA
        513        60       FIXPVA
        514        60       FIXPVA
        515        60       FIXPVA
        516        60       FIXPVA
        517        60       FIXPVA
        518        60       FIXPVA
        519        60       FIXPVA
        520        60       FIXPVA
        521        60       FIXPVA
        522        60       FIXPVA
        523        60       FIXPVA
        524        60       FIXPVA
        525        60       FIXPVA
        526        60       FIXPVA
        527        60       FIXPVA
        528        60       FIXPVA
        529        60       FIXPVA
        530        60       FIXPVA
        531        60       FIXPVA
        532        60       FIXPVA
        533        60       FIXPVA
        534        60       FIXPVA
        535        60       FIXPVA
        536        60       FIXPVA
        537        60       FIXPVA
        538        60       FIXPVA
        539        60       FIXPVA
        540        60       FIXPVA
        541        60       FIXPVA
        542        60       FIXPVA
        543        60       FIXPVA
        544        60       FIXPVA

     ------------------------------
      FIXPVA TESSELLATION FOR PCM
         PEIFENG SU AND HUI LI
     UNIVERSITY OF NEBRASKA-LINCOLN
     ------------------------------


 PCM DIMENSIONS: MXSP=   544, MXTS=     21760, MEMORY=        223587

     INPUT FOR CAVITY DEFINITION 
     ---------------------------
   ATOM               COORDINATES                RADIUS       EPS
      1     20.6000     13.9990      3.5660      0.0100     78.3900
      2     20.7290     14.3990      2.6840      1.5900     78.3900
      3     21.7700     15.3770      2.8180      1.7700     78.3900
      4     22.6880     14.8870      3.2160      0.0100     78.3900
      5     21.4500     16.1520      3.5490      0.0100     78.3900
      6     22.1170     16.0650      1.4920      1.7700     78.3900
      7     22.9170     16.8240      1.6410      0.0100     78.3900
      8     22.6150     15.0800      0.5340      1.5900     78.3900
      9     22.1270     15.4030     -0.7610      1.7700     78.3900
     10     23.0140     15.4920     -1.4300      0.0100     78.3900
     11     21.2420     14.3540     -1.2810      1.6800     78.3900
     12     20.1050     13.0320     -2.6230      1.7700     78.3900
     13     19.9460     12.5150     -1.3430      1.6800     78.3900
     14     20.6350     13.3350     -0.5830      1.7700     78.3900
     15     20.7510     13.2480      0.5000      0.0100     78.3900
     16     20.0050     13.3370     -4.9740      1.6800     78.3900
     17     20.7560     14.4290     -4.7830      1.7700     78.3900
     18     21.0010     14.9920     -5.6910      0.0100     78.3900
     19     21.2590     14.9220     -3.6460      1.6800     78.3900
     20     20.8970     14.1670     -2.5960      1.7700     78.3900
     21     19.6540     12.5970     -3.8890      1.7700     78.3900
     22     18.9130     11.4850     -4.0680      1.6800     78.3900
     23     18.6520     10.9050     -3.2950      0.0100     78.3900
     24     18.5740     11.2360     -4.9780      0.0100     78.3900
     25     21.4400     16.7440     -0.6630      1.7700     78.3900
     26     20.6060     16.8480     -1.3850      0.0100     78.3900
     27     22.3850     17.7750     -0.8750      1.5900     78.3900
     28     21.9070     18.6060     -0.7670      0.0100     78.3900
     29     20.9360     16.7320      0.7740      1.7700     78.3900
     30     20.0760     16.0350      0.8720      0.0100     78.3900
     31     20.6780     18.0340      1.3460      1.5900     78.3900
     32     19.2380     18.6680      1.2340      2.1000     78.3900
     33     18.2360     17.6620      1.6480      1.5900     78.3900
[...]
   492   16   8.0   4.63   10.1    0.051727   -0.730254   -0.738350
   493   16   6.0   4.32    7.6   -0.045936    0.423089    0.424189
   494   16   1.0   0.00    0.0    0.000000    0.257645    0.254664
   495   16   7.0   0.00    0.0    0.000000   -0.830673   -0.844329
   496   16   6.0   1.02    1.8   -0.002106    0.184692    0.170233
   497   16   1.0   0.00    0.0    0.000000    0.307213    0.328042
   498   16   6.0   6.09   10.7   -0.048079   -0.409581   -0.421361
   499   16   1.0   0.00    0.0    0.000000    0.267855    0.271262
   500   16   6.0   0.00    0.0    0.000000    1.066875    1.096607
   501   16   8.0   5.65   12.4    0.099283   -0.786538   -0.765497
   502   16   7.0   0.00    0.0    0.000000   -0.875680   -0.875397
   503   16   6.0   0.00    0.0    0.000000    0.757980    0.773251
   504   16   7.0   7.14   14.0   -0.084900   -0.939537   -1.005237
   505   16   1.0   0.00    0.0    0.000000    0.466147    0.514563
   506   16   1.0   0.00    0.0    0.000000    0.439310    0.436184
   507   16   6.0   0.01    0.0    0.001053    0.145466    0.111106
   508   16   1.0   0.00    0.0    0.000000    0.185726    0.219938
   509   16   8.0  16.21   35.4    0.105756   -0.820102   -0.838968
   510   16   1.0   0.00    0.0    0.000000    0.492287    0.518408
   511   16   6.0   0.94    1.7   -0.017265    0.132812    0.101241
   512   16   1.0   0.00    0.0    0.000000    0.252481    0.254901
   513   16   8.0   4.84   10.6    0.060446   -0.795601   -0.801777
   514   16  15.0   9.79   12.3    0.121242    1.604302    1.657465
   515   16   8.0  13.07   28.6    0.299818   -0.891749   -0.890433
   516   16   8.0  18.71   40.9    0.369760   -0.892869   -0.888107
   517   16   8.0   1.35    3.0    0.015448   -0.973143   -0.786244
   518   17   6.0  13.25   23.4   -0.106505    0.206988   -0.029229
   519   17   1.0   0.00    0.0    0.000000    0.151342    0.173737
   520   17   1.0   0.00    0.0    0.000000    0.246340    0.229432
   521   17   6.0   6.66   11.7   -0.047907    0.087454    0.149261
   522   17   1.0   0.00    0.0    0.000000    0.255370    0.228041
   523   17   8.0   3.58    7.8    0.047082   -0.728544   -0.736812
   524   17   6.0   4.80    8.5   -0.047956    0.414794    0.413851
   525   17   1.0   0.00    0.0    0.000000    0.262954    0.259116
   526   17   7.0   0.00    0.0    0.000000   -0.829618   -0.837055
   527   17   6.0   2.83    5.0   -0.000769    0.194507    0.181190
   528   17   1.0   0.00    0.0    0.000000    0.307719    0.331378
   529   17   6.0   2.07    3.6   -0.012177    1.119102    1.124311
   530   17   8.0  11.21   24.5    0.165610   -0.684998   -0.694458
   531   17   7.0   1.82    3.6    0.001034   -0.936333   -1.017593
   532   17   1.0   0.00    0.0    0.000000    0.483841    0.542421
   533   17   6.0   2.05    3.6   -0.007139    0.891878    0.898343
   534   17   8.0   9.96   21.8    0.129314   -0.727469   -0.714400
   535   17   6.0   8.45   14.9   -0.030323   -0.462654   -0.467706
   536   17   1.0   0.00    0.0    0.000000    0.275104    0.273070
   537   17   6.0   4.82    8.5   -0.054053    0.122754    0.123447
   538   17   1.0   0.00    0.0    0.000000    0.224739    0.223643
   539   17   8.0  20.41   44.6    0.033904   -0.841665   -0.843272
   540   17   1.0   0.00    0.0    0.000000    0.507098    0.507580
   541   17   6.0   5.95   10.5   -0.053530    0.164090    0.147397
   542   17   1.0   0.00    0.0    0.000000    0.218750    0.220472
   543   17   8.0  21.56   47.1   -0.019422   -0.849010   -0.852204
   544   17   1.0   0.00    0.0    0.000000    0.509750    0.509364

 Done with FMO properties.
 CPU     0: STEP CPU TIME=     0.01 TOTAL CPU TIME=      27006.4 (    450.1 MIN)
 TOTAL WALL CLOCK TIME=      59786.4 SECONDS, CPU UTILIZATION IS    45.17%
 CPU     0: STEP CPU TIME=     0.00 TOTAL CPU TIME=      27006.4 (    450.1 MIN)
 TOTAL WALL CLOCK TIME=      59786.4 SECONDS, CPU UTILIZATION IS    45.17%

 Total timing statistics in pairs (CPU,wall) for each rank, sec

    Rank   total     SCF    corr     DFT    CPHF     EFP    solv     ESP    geom
 -------------------------------------------------------------------------------
       1   27006.4   7693.4  10164.7      0.0    0.0   0.0  388.3  7940.8    0.0
       1   59786.4  15830.3  25223.5      0.0    0.0   0.0  889.7 16026.1    0.0
       2   26956.6   7632.1  10199.5      0.0    0.0   0.0  392.4  7920.3    0.0
       2   59786.4  15824.7  25224.4      0.0    0.0   0.0  888.9 16024.3    0.0
       3   26983.6   7654.1  10188.2      0.0    0.0   0.0  394.9  7930.1    0.0
       3   59786.4  15821.9  25226.0      0.0    0.0   0.0  889.9 16024.5    0.0
       4   26941.6   7627.8  10200.7      0.0    0.0   0.0  390.7  7911.5    0.0
       4   59786.4  15824.7  25224.3      0.0    0.0   0.0  887.8 16024.2    0.0
       5   26963.3   7653.0  10156.9      0.0    0.0   0.0  392.1  7942.2    0.0
       5   59786.4  15823.7  25224.3      0.0    0.0   0.0  889.8 16025.6    0.0
       6   26954.0   7623.2  10211.3      0.0    0.0   0.0  388.6  7920.8    0.0
       6   59786.4  15825.3  25224.3      0.0    0.0   0.0  887.1 16025.4    0.0
       7   27033.0   7643.1  10276.4      0.0    0.0   0.0  387.1  7915.1    0.0
       7   59786.4  15825.0  25224.3      0.0    0.0   0.0  887.8 16025.4    0.0
       8   26953.7   7621.9  10234.1      0.0    0.0   0.0  386.4  7903.3    0.0
       8   59786.4  15824.8  25224.3      0.0    0.0   0.0  886.2 16025.4    0.0
       9   27055.1   7652.5  10266.7      0.0    0.0   0.0  386.2  7936.3    0.0
       9   59786.4  15824.1  25224.3      0.0    0.0   0.0  888.7 16025.6    0.0
      10   26975.9   7613.9  10241.3      0.0    0.0   0.0  387.6  7923.1    0.0
      10   59786.4  15825.1  25224.3      0.0    0.0   0.0  887.0 16025.6    0.0
      11   27035.1   7618.7  10310.8      0.0    0.0   0.0  386.6  7908.3    0.0
      11   59786.4  15825.6  25224.2      0.0    0.0   0.0  887.2 16025.6    0.0
      12   26887.0   7609.2  10183.9      0.0    0.0   0.0  385.5  7903.3    0.0
      12   59786.5  15825.6  25224.2      0.0    0.0   0.0  885.9 16025.5    0.0
      13   26957.4   7635.7  10228.0      0.0    0.0   0.0  382.0  7902.3    0.0
      13   59786.4  15825.9  25224.2      0.0    0.0   0.0  887.0 16025.6    0.0
      14   26788.2   7604.9  10092.8      0.0    0.0   0.0  385.8  7897.9    0.0
      14   59786.4  15825.5  25224.2      0.0    0.0   0.0  885.8 16025.5    0.0
      15   26942.4   7621.7  10240.1      0.0    0.0   0.0  381.1  7894.2    0.0
      15   59786.4  15825.7  25224.2      0.0    0.0   0.0  885.4 16025.5    0.0
      16   26910.7   7615.0  10216.8      0.0    0.0   0.0  383.0  7892.3    0.0
      16   59786.4  15825.8  25224.2      0.0    0.0   0.0  884.3 16025.4    0.0
averaged   26959.0   7632.5  10213.3      0.0    0.0   0.0  387.4  7915.1    0.0
averaged   59786.4  15825.2  25224.3      0.0    0.0   0.0  887.4 16025.3    0.0

  FMO  timing statistics in pairs (CPU,wall) for each rank, sec

    Rank  FMOini FMOscf1  FMOdm1 FMOsyn1 FMOscf2  FMOes2 FMOsyn2 FMOscf3 FMOsyn3
 -------------------------------------------------------------------------------
       1    3.4   10404.5    0.5    0.0   16010.2     587.8    0.0    0.0    0.0
       1    8.3   21188.6    3.5    0.0   37384.7    1201.0    0.1    0.0    0.0
       2    2.6   10361.5    0.2    0.0   16008.4     583.9    0.0    0.0    0.0
       2    8.3   21188.6    3.5    0.0   37393.4    1192.3    0.1    0.0    0.0
       3    2.9   10369.3    0.2    0.0   16023.5     587.7    0.0    0.0    0.0
       3    8.3   21188.6    3.5    0.0   37394.1    1191.6    0.1    0.0    0.0
       4    2.6   10354.0    0.2    0.0   15999.6     585.2    0.0    0.0    0.0
       4    8.3   21188.6    3.5    0.0   37402.6    1183.1    0.1    0.0    0.0
       5    3.1   10399.6    0.3    0.0   15972.2     588.1    0.0    0.0    0.0
       5    8.3   21188.6    3.5    0.0   37392.0    1193.7    0.1    0.0    0.0
       6    2.7   10344.3    0.1    0.0   16021.4     585.4    0.0    0.0    0.0
       6    8.3   21188.6    3.5    0.0   37394.6    1191.1    0.1    0.0    0.0
       7    2.8   10356.5    0.2    0.0   16087.8     585.6    0.0    0.0    0.0
       7    8.3   21188.6    3.5    0.0   37390.8    1194.9    0.1    0.0    0.0
       8    2.5   10329.6    0.1    0.0   16036.0     585.6    0.0    0.0    0.0
       8    8.3   21188.6    3.5    0.0   37399.6    1186.0    0.1    0.0    0.0
       9    3.0   10366.1    0.4    0.0   16098.5     587.2    0.0    0.0    0.0
       9    8.3   21188.6    3.5    0.0   37391.5    1194.1    0.1    0.0    0.0
      10    2.4   10339.6    0.1    0.0   16047.5     586.2    0.0    0.0    0.0
      10    8.3   21188.6    3.5    0.0   37393.9    1191.8    0.1    0.0    0.0
      11    2.6   10341.8    0.3    0.0   16104.5     585.9    0.0    0.0    0.0
      11    8.3   21188.6    3.5    0.0   37392.9    1192.8    0.1    0.0    0.0
      12    2.3   10317.2    0.1    0.0   15983.2     584.2    0.0    0.0    0.0
      12    8.3   21188.6    3.5    0.0   37393.6    1192.0    0.1    0.0    0.0
      13    2.8   10347.7    0.3    0.0   16020.4     586.3    0.0    0.0    0.0
      13    8.3   21188.6    3.5    0.0   37393.6    1192.1    0.1    0.0    0.0
      14    2.3   10319.1    0.1    0.0   15881.5     585.1    0.0    0.0    0.0
      14    8.3   21188.6    3.5    0.0   37393.3    1192.3    0.1    0.0    0.0
      15    2.5   10328.3    0.2    0.0   16027.6     583.7    0.0    0.0    0.0
      15    8.3   21188.6    3.5    0.0   37390.5    1195.2    0.1    0.0    0.0
      16    2.4   10320.5    0.1    0.0   16002.3     585.3    0.0    0.0    0.0
      16    8.3   21188.6    3.5    0.0   37396.7    1189.0    0.1    0.0    0.0
averaged    2.7   10350.0    0.2    0.0   16020.3     585.8    0.0    0.0    0.0
averaged    8.3   21188.6    3.5    0.0   37393.6    1192.1    0.1    0.0    0.0
             62790942  WORDS OF DYNAMIC MEMORY USED
 EXECUTION OF GAMESS TERMINATED NORMALLY Sun Dec  8 00:34:19 2019
 DDI: 263640 bytes (0.3 MB / 0 MWords) used by master data server.

 ----------------------------------------
 CPU timing information for all processes
 ========================================
 0: 26362.794 + 643.671 = 27006.465
 1: 26384.459 + 572.137 = 26956.597
 2: 26392.660 + 590.976 = 26983.636
 3: 26371.530 + 570.132 = 26941.662
 4: 26367.39 + 596.271 = 26963.311
 5: 26372.216 + 581.781 = 26953.998
 6: 26419.686 + 613.315 = 27033.02
 7: 26371.756 + 581.993 = 26953.749
 8: 26461.523 + 593.596 = 27055.120
 9: 26405.993 + 569.938 = 26975.932
 10: 26435.76 + 600.92 = 27035.169
 11: 26337.05 + 550.62 = 26887.68
 12: 26358.117 + 599.344 = 26957.462
 13: 26215.190 + 573.77 = 26788.267
 14: 26361.345 + 581.88 = 26942.434
 15: 26339.351 + 571.311 = 26910.663
 ----------------------------------------
 ddikick.x: exited gracefully.
unset echo
----- accounting info -----
Files used on the master node gollum088.lsa.umich.edu were:
-rw-r--r-- 1 hazwong frank    26620 Dec  7 07:57 /scratch/hazwong/824927/1P5M_3/usrc/1P5M_3_fmo_input.F05
-rw-r--r-- 1 hazwong frank      634 Dec  8 00:34 /scratch/hazwong/824927/1P5M_3/usrc/1P5M_3_fmo_input.F06.001
-rw-r--r-- 1 hazwong frank      634 Dec  8 00:34 /scratch/hazwong/824927/1P5M_3/usrc/1P5M_3_fmo_input.F06.002
-rw-r--r-- 1 hazwong frank      634 Dec  8 00:34 /scratch/hazwong/824927/1P5M_3/usrc/1P5M_3_fmo_input.F06.003
-rw-r--r-- 1 hazwong frank      634 Dec  8 00:34 /scratch/hazwong/824927/1P5M_3/usrc/1P5M_3_fmo_input.F06.004
-rw-r--r-- 1 hazwong frank      634 Dec  8 00:34 /scratch/hazwong/824927/1P5M_3/usrc/1P5M_3_fmo_input.F06.005
-rw-r--r-- 1 hazwong frank      634 Dec  8 00:34 /scratch/hazwong/824927/1P5M_3/usrc/1P5M_3_fmo_input.F06.006
-rw-r--r-- 1 hazwong frank      634 Dec  8 00:34 /scratch/hazwong/824927/1P5M_3/usrc/1P5M_3_fmo_input.F06.007
-rw-r--r-- 1 hazwong frank      634 Dec  8 00:34 /scratch/hazwong/824927/1P5M_3/usrc/1P5M_3_fmo_input.F06.008
-rw-r--r-- 1 hazwong frank      634 Dec  8 00:34 /scratch/hazwong/824927/1P5M_3/usrc/1P5M_3_fmo_input.F06.009
-rw-r--r-- 1 hazwong frank      634 Dec  8 00:34 /scratch/hazwong/824927/1P5M_3/usrc/1P5M_3_fmo_input.F06.010
-rw-r--r-- 1 hazwong frank      634 Dec  8 00:34 /scratch/hazwong/824927/1P5M_3/usrc/1P5M_3_fmo_input.F06.011
-rw-r--r-- 1 hazwong frank      634 Dec  8 00:34 /scratch/hazwong/824927/1P5M_3/usrc/1P5M_3_fmo_input.F06.012
-rw-r--r-- 1 hazwong frank      634 Dec  8 00:34 /scratch/hazwong/824927/1P5M_3/usrc/1P5M_3_fmo_input.F06.013
-rw-r--r-- 1 hazwong frank      634 Dec  8 00:34 /scratch/hazwong/824927/1P5M_3/usrc/1P5M_3_fmo_input.F06.014
-rw-r--r-- 1 hazwong frank      634 Dec  8 00:34 /scratch/hazwong/824927/1P5M_3/usrc/1P5M_3_fmo_input.F06.015
-rw-r--r-- 1 hazwong frank    24606 Dec  8 00:34 /scratch/hazwong/824927/1P5M_3/usrc/1P5M_3_fmo_input.F07
-rw-r--r-- 1 hazwong frank        0 Dec  7 07:57 /scratch/hazwong/824927/1P5M_3/usrc/1P5M_3_fmo_input.F07.001
-rw-r--r-- 1 hazwong frank        0 Dec  7 07:57 /scratch/hazwong/824927/1P5M_3/usrc/1P5M_3_fmo_input.F07.002
-rw-r--r-- 1 hazwong frank        0 Dec  7 07:57 /scratch/hazwong/824927/1P5M_3/usrc/1P5M_3_fmo_input.F07.003
-rw-r--r-- 1 hazwong frank        0 Dec  7 07:57 /scratch/hazwong/824927/1P5M_3/usrc/1P5M_3_fmo_input.F07.004
-rw-r--r-- 1 hazwong frank        0 Dec  7 07:57 /scratch/hazwong/824927/1P5M_3/usrc/1P5M_3_fmo_input.F07.005
-rw-r--r-- 1 hazwong frank        0 Dec  7 07:57 /scratch/hazwong/824927/1P5M_3/usrc/1P5M_3_fmo_input.F07.006
-rw-r--r-- 1 hazwong frank        0 Dec  7 07:57 /scratch/hazwong/824927/1P5M_3/usrc/1P5M_3_fmo_input.F07.007
-rw-r--r-- 1 hazwong frank        0 Dec  7 07:57 /scratch/hazwong/824927/1P5M_3/usrc/1P5M_3_fmo_input.F07.008
-rw-r--r-- 1 hazwong frank        0 Dec  7 07:57 /scratch/hazwong/824927/1P5M_3/usrc/1P5M_3_fmo_input.F07.009
-rw-r--r-- 1 hazwong frank        0 Dec  7 07:57 /scratch/hazwong/824927/1P5M_3/usrc/1P5M_3_fmo_input.F07.010
-rw-r--r-- 1 hazwong frank        0 Dec  7 07:57 /scratch/hazwong/824927/1P5M_3/usrc/1P5M_3_fmo_input.F07.011
-rw-r--r-- 1 hazwong frank        0 Dec  7 07:57 /scratch/hazwong/824927/1P5M_3/usrc/1P5M_3_fmo_input.F07.012
-rw-r--r-- 1 hazwong frank        0 Dec  7 07:57 /scratch/hazwong/824927/1P5M_3/usrc/1P5M_3_fmo_input.F07.013
-rw-r--r-- 1 hazwong frank        0 Dec  7 07:57 /scratch/hazwong/824927/1P5M_3/usrc/1P5M_3_fmo_input.F07.014
-rw-r--r-- 1 hazwong frank        0 Dec  7 07:57 /scratch/hazwong/824927/1P5M_3/usrc/1P5M_3_fmo_input.F07.015
-rw-r--r-- 1 hazwong frank    65440 Dec  8 00:34 /scratch/hazwong/824927/1P5M_3/usrc/1P5M_3_fmo_input.F10.000
-rw-r--r-- 1 hazwong frank        0 Dec  7 07:57 /scratch/hazwong/824927/1P5M_3/usrc/1P5M_3_fmo_input.F26.000
-rw-r--r-- 1 hazwong frank        0 Dec  7 07:57 /scratch/hazwong/824927/1P5M_3/usrc/1P5M_3_fmo_input.F26.001
-rw-r--r-- 1 hazwong frank        0 Dec  7 07:57 /scratch/hazwong/824927/1P5M_3/usrc/1P5M_3_fmo_input.F26.002
-rw-r--r-- 1 hazwong frank        0 Dec  7 07:57 /scratch/hazwong/824927/1P5M_3/usrc/1P5M_3_fmo_input.F26.003
-rw-r--r-- 1 hazwong frank        0 Dec  7 07:57 /scratch/hazwong/824927/1P5M_3/usrc/1P5M_3_fmo_input.F26.004
-rw-r--r-- 1 hazwong frank        0 Dec  7 07:57 /scratch/hazwong/824927/1P5M_3/usrc/1P5M_3_fmo_input.F26.005
-rw-r--r-- 1 hazwong frank        0 Dec  7 07:57 /scratch/hazwong/824927/1P5M_3/usrc/1P5M_3_fmo_input.F26.006
-rw-r--r-- 1 hazwong frank        0 Dec  7 07:57 /scratch/hazwong/824927/1P5M_3/usrc/1P5M_3_fmo_input.F26.007
-rw-r--r-- 1 hazwong frank        0 Dec  7 07:57 /scratch/hazwong/824927/1P5M_3/usrc/1P5M_3_fmo_input.F26.008
-rw-r--r-- 1 hazwong frank        0 Dec  7 07:57 /scratch/hazwong/824927/1P5M_3/usrc/1P5M_3_fmo_input.F26.009
-rw-r--r-- 1 hazwong frank        0 Dec  7 07:57 /scratch/hazwong/824927/1P5M_3/usrc/1P5M_3_fmo_input.F26.010
-rw-r--r-- 1 hazwong frank        0 Dec  7 07:57 /scratch/hazwong/824927/1P5M_3/usrc/1P5M_3_fmo_input.F26.011
-rw-r--r-- 1 hazwong frank        0 Dec  7 07:57 /scratch/hazwong/824927/1P5M_3/usrc/1P5M_3_fmo_input.F26.012
-rw-r--r-- 1 hazwong frank        0 Dec  7 07:57 /scratch/hazwong/824927/1P5M_3/usrc/1P5M_3_fmo_input.F26.013
-rw-r--r-- 1 hazwong frank        0 Dec  7 07:57 /scratch/hazwong/824927/1P5M_3/usrc/1P5M_3_fmo_input.F26.014
-rw-r--r-- 1 hazwong frank        0 Dec  7 07:57 /scratch/hazwong/824927/1P5M_3/usrc/1P5M_3_fmo_input.F26.015
-rw-r--r-- 1 hazwong frank        0 Dec  7 07:57 /scratch/hazwong/824927/1P5M_3/usrc/1P5M_3_fmo_input.F27.000
-rw-r--r-- 1 hazwong frank        0 Dec  7 07:57 /scratch/hazwong/824927/1P5M_3/usrc/1P5M_3_fmo_input.F27.001
-rw-r--r-- 1 hazwong frank        0 Dec  7 07:57 /scratch/hazwong/824927/1P5M_3/usrc/1P5M_3_fmo_input.F27.002
-rw-r--r-- 1 hazwong frank        0 Dec  7 07:57 /scratch/hazwong/824927/1P5M_3/usrc/1P5M_3_fmo_input.F27.003
-rw-r--r-- 1 hazwong frank        0 Dec  7 07:57 /scratch/hazwong/824927/1P5M_3/usrc/1P5M_3_fmo_input.F27.004
-rw-r--r-- 1 hazwong frank        0 Dec  7 07:57 /scratch/hazwong/824927/1P5M_3/usrc/1P5M_3_fmo_input.F27.005
-rw-r--r-- 1 hazwong frank        0 Dec  7 07:57 /scratch/hazwong/824927/1P5M_3/usrc/1P5M_3_fmo_input.F27.006
-rw-r--r-- 1 hazwong frank        0 Dec  7 07:57 /scratch/hazwong/824927/1P5M_3/usrc/1P5M_3_fmo_input.F27.007
-rw-r--r-- 1 hazwong frank        0 Dec  7 07:57 /scratch/hazwong/824927/1P5M_3/usrc/1P5M_3_fmo_input.F27.008
-rw-r--r-- 1 hazwong frank        0 Dec  7 07:57 /scratch/hazwong/824927/1P5M_3/usrc/1P5M_3_fmo_input.F27.009
-rw-r--r-- 1 hazwong frank        0 Dec  7 07:57 /scratch/hazwong/824927/1P5M_3/usrc/1P5M_3_fmo_input.F27.010
-rw-r--r-- 1 hazwong frank        0 Dec  7 07:57 /scratch/hazwong/824927/1P5M_3/usrc/1P5M_3_fmo_input.F27.011
-rw-r--r-- 1 hazwong frank        0 Dec  7 07:57 /scratch/hazwong/824927/1P5M_3/usrc/1P5M_3_fmo_input.F27.012
-rw-r--r-- 1 hazwong frank        0 Dec  7 07:57 /scratch/hazwong/824927/1P5M_3/usrc/1P5M_3_fmo_input.F27.013
-rw-r--r-- 1 hazwong frank        0 Dec  7 07:57 /scratch/hazwong/824927/1P5M_3/usrc/1P5M_3_fmo_input.F27.014
-rw-r--r-- 1 hazwong frank        0 Dec  7 07:57 /scratch/hazwong/824927/1P5M_3/usrc/1P5M_3_fmo_input.F27.015
-rw-r--r-- 1 hazwong frank 34586624 Dec  7 13:51 /scratch/hazwong/824927/1P5M_3/usrc/1P5M_3_fmo_input.F40.000
-rw-r--r-- 1 hazwong frank 34586624 Dec  7 13:51 /scratch/hazwong/824927/1P5M_3/usrc/1P5M_3_fmo_input.F40.001
-rw-r--r-- 1 hazwong frank 34586624 Dec  7 13:51 /scratch/hazwong/824927/1P5M_3/usrc/1P5M_3_fmo_input.F40.002
-rw-r--r-- 1 hazwong frank 34586624 Dec  7 13:51 /scratch/hazwong/824927/1P5M_3/usrc/1P5M_3_fmo_input.F40.003
-rw-r--r-- 1 hazwong frank 34586624 Dec  7 13:51 /scratch/hazwong/824927/1P5M_3/usrc/1P5M_3_fmo_input.F40.004
-rw-r--r-- 1 hazwong frank 34586624 Dec  7 13:51 /scratch/hazwong/824927/1P5M_3/usrc/1P5M_3_fmo_input.F40.005
-rw-r--r-- 1 hazwong frank 34586624 Dec  7 13:51 /scratch/hazwong/824927/1P5M_3/usrc/1P5M_3_fmo_input.F40.006
-rw-r--r-- 1 hazwong frank 34586624 Dec  7 13:51 /scratch/hazwong/824927/1P5M_3/usrc/1P5M_3_fmo_input.F40.007
-rw-r--r-- 1 hazwong frank 34586624 Dec  7 13:51 /scratch/hazwong/824927/1P5M_3/usrc/1P5M_3_fmo_input.F40.008
-rw-r--r-- 1 hazwong frank 34586624 Dec  7 13:51 /scratch/hazwong/824927/1P5M_3/usrc/1P5M_3_fmo_input.F40.009
-rw-r--r-- 1 hazwong frank 34586624 Dec  7 13:51 /scratch/hazwong/824927/1P5M_3/usrc/1P5M_3_fmo_input.F40.010
-rw-r--r-- 1 hazwong frank 34586624 Dec  7 13:51 /scratch/hazwong/824927/1P5M_3/usrc/1P5M_3_fmo_input.F40.011
-rw-r--r-- 1 hazwong frank 34586624 Dec  7 13:51 /scratch/hazwong/824927/1P5M_3/usrc/1P5M_3_fmo_input.F40.012
-rw-r--r-- 1 hazwong frank 34586624 Dec  7 13:51 /scratch/hazwong/824927/1P5M_3/usrc/1P5M_3_fmo_input.F40.013
-rw-r--r-- 1 hazwong frank 34586624 Dec  7 13:51 /scratch/hazwong/824927/1P5M_3/usrc/1P5M_3_fmo_input.F40.014
-rw-r--r-- 1 hazwong frank 34586624 Dec  7 13:51 /scratch/hazwong/824927/1P5M_3/usrc/1P5M_3_fmo_input.F40.015
ls: No match.
ls: No match.
ls: No match.
Sun Dec  8 00:34:22 EST 2019
0.187u 0.097s 16:36:30.58 0.0%	0+0k 1576+192io 26pf+0w
