‘1P5M_4_fmo_input.inp’ -> ‘/scratch/hazwong/824937/./1P5M_4_fmo_input.inp’
‘rungms’ -> ‘/scratch/hazwong/824937/./rungms’
‘gms-files.csh’ -> ‘/scratch/hazwong/824937/./gms-files.csh’
----- GAMESS execution script 'rungms' -----
This job is running on host gollum062.lsa.umich.edu
under operating system Linux at Sat Dec 7 08:06:40 EST 2019
Available scratch disk space (Kbyte units) at beginning of the job is
Filesystem     1K-blocks    Used Available Use% Mounted on
/dev/sda4      426933580 9722948 417210632   3% /scratch
GAMESS temporary binary files will be written to /scratch/hazwong/824937/1P5M_4/usrc
GAMESS supplementary output files will be written to /scratch/hazwong/824937/1P5M_4/src
Copying input file 1P5M_4_fmo_input.inp to your run's scratch directory...
cp 1P5M_4_fmo_input.inp /scratch/hazwong/824937/1P5M_4/usrc/1P5M_4_fmo_input.F05
unset echo
This is a GDDI run, keeping various output files on local disks
setenv OUTPUT /scratch/hazwong/824937/1P5M_4/usrc/1P5M_4_fmo_input.F06
setenv PUNCH /scratch/hazwong/824937/1P5M_4/usrc/1P5M_4_fmo_input.F07
unset echo
 
Assuming a single but multicore node.
 
/export/apps/CentOS7/gamess/src/build//ddikick.x /export/apps/CentOS7/gamess/src/build//gamess.R3.x 1P5M_4_fmo_input -ddi 1 16 gollum062.lsa.umich.edu:cpus=16 -scr /scratch/hazwong/824937/1P5M_4/usrc

 Distributed Data Interface kickoff program.
 Initiating 16 compute processes on 1 nodes to run the following command:
 /export/apps/CentOS7/gamess/src/build//gamess.R3.x 1P5M_4_fmo_input 

          ******************************************************
          *         GAMESS VERSION = 30 SEP 2018 (R3)         *
          *             FROM IOWA STATE UNIVERSITY             *
          * M.W.SCHMIDT, K.K.BALDRIDGE, J.A.BOATZ, S.T.ELBERT, *
          *   M.S.GORDON, J.H.JENSEN, S.KOSEKI, N.MATSUNAGA,   *
          *          K.A.NGUYEN, S.J.SU, T.L.WINDUS,           *
          *       TOGETHER WITH M.DUPUIS, J.A.MONTGOMERY       *
          *         J.COMPUT.CHEM.  14, 1347-1363(1993)        *
          **************** 64 BIT LINUX VERSION ****************

  SINCE 1993, STUDENTS AND POSTDOCS WORKING AT IOWA STATE UNIVERSITY
  AND ALSO IN THEIR VARIOUS JOBS AFTER LEAVING ISU HAVE MADE IMPORTANT
  CONTRIBUTIONS TO THE CODE:
     IVANA ADAMOVIC, CHRISTINE AIKENS, YURI ALEXEEV, POOJA ARORA,
     ANDREY ASADCHEV, ROB BELL, PRADIPTA BANDYOPADHYAY, JONATHAN BENTZ,
     BRETT BODE, KURT BRORSEN, CALEB CARLIN, GALINA CHABAN, WEI CHEN,
     CHEOL HO CHOI, PAUL DAY, ALBERT DEFUSCO, NUWAN DESILVA, TIM DUDLEY,
     DMITRI FEDOROV, ALEX FINDLATER, GRAHAM FLETCHER, MARK FREITAG,
     KURT GLAESEMANN, ANASTASIA GUNINA,
     DAN KEMP, GRANT MERRILL, NORIYUKI MINEZAWA, JONATHAN MULLIN,
     TAKESHI NAGATA, SEAN NEDD, HEATHER NETZLOFF, BOSILJKA NJEGIC, RYAN OLSON,
     MIKE PAK, BUU PHAM,
     SPENCER PRUITT, LUKE ROSKOP, JIM SHOEMAKER, LYUDMILA SLIPCHENKO,
     TONY SMITH, SAROM SOK LEANG, JIE SONG, TETSUYA TAKETSUGU, SIMON WEBB,
     PENG XU, SOOHAENG YOO, FEDERICO ZAHARIEV

  ADDITIONAL CODE HAS BEEN PROVIDED BY COLLABORATORS IN OTHER GROUPS:
     IOWA STATE UNIVERSITY:
          JOE IVANIC, AARON WEST, LAIMUTIS BYTAUTAS, KLAUS RUEDENBERG
     UNIVERSITY OF TOKYO: KIMIHIKO HIRAO, TAKAHITO NAKAJIMA,
          TAKAO TSUNEDA, MUNEAKI KAMIYA, SUSUMU YANAGISAWA,
          KIYOSHI YAGI, MAHITO CHIBA, SEIKEN TOKURA, NAOAKI KAWAKAMI
     UNIVERSITY OF AARHUS: FRANK JENSEN
     UNIVERSITY OF IOWA: VISVALDAS KAIRYS, HUI LI
     NATIONAL INST. OF STANDARDS AND TECHNOLOGY: WALT STEVENS, DAVID GARMER
     UNIVERSITY OF PISA: BENEDETTA MENNUCCI, JACOPO TOMASI
     UNIVERSITY OF MEMPHIS: HENRY KURTZ, PRAKASHAN KORAMBATH
     UNIVERSITY OF ALBERTA: TOBY ZENG, MARIUSZ KLOBUKOWSKI
     UNIVERSITY OF NEW ENGLAND: MARK SPACKMAN
     MIE UNIVERSITY: HIROAKI UMEDA
     NAT. INST. OF ADVANCED INDUSTRIAL SCIENCE AND TECHNOLOGY: KAZUO KITAURA
     MICHIGAN STATE UNIVERSITY:
          KAROL KOWALSKI, MARTA WLOCH, JEFFREY GOUR, JESSE LUTZ,
          WEI LI, JUN SHEN, J. EMILIANO DEUSTUA, PIOTR PIECUCH
     UNIVERSITY OF MINNESOTA:
          YINAN SHU
     UNIVERSITY OF SILESIA: MONIKA MUSIAL, STANISLAW KUCHARSKI
     FACULTES UNIVERSITAIRES NOTRE-DAME DE LA PAIX:
          OLIVIER QUINET, BENOIT CHAMPAGNE
     UNIVERSITY OF CALIFORNIA - SANTA BARBARA: BERNARD KIRTMAN
     INSTITUTE FOR MOLECULAR SCIENCE:
          KAZUYA ISHIMURA, MICHIO KATOUDA, AND SHIGERU NAGASE
     UNIVERSITY OF NOTRE DAME: ANNA POMOGAEVA, DAN CHIPMAN
     KYUSHU UNIVERSITY:
          HARUYUKI NAKANO,
          FENG LONG GU, JACEK KORCHOWIEC, MARCIN MAKOWSKI, AND YURIKO AOKI,
          HIROTOSHI MORI AND EISAKU MIYOSHI
     PENNSYLVANIA STATE UNIVERSITY:
          TZVETELIN IORDANOV, CHET SWALINA, JONATHAN SKONE,
          SHARON HAMMES-SCHIFFER
     WASEDA UNIVERSITY:
          MASATO KOBAYASHI, TOMOKO AKAMA, TSUGUKI TOUMA,
          TAKESHI YOSHIKAWA, YASUHIRO IKABATA, JUNJI SEINO,
          YUYA NAKAJIMA, HIROMI NAKAI
     NANJING UNIVERSITY: SHUHUA LI
     UNIVERSITY OF NEBRASKA:
          PEIFENG SU, DEJUN SI, NANDUN THELLAMUREGE, YALI WANG, HUI LI
     UNIVERSITY OF ZURICH: ROBERTO PEVERATI, KIM BALDRIDGE
     N. COPERNICUS UNIVERSITY AND JACKSON STATE UNIVERSITY:
          MARIA BARYSZ
     UNIVERSITY OF COPENHAGEN: Jimmy Kromann, CASPER STEINMANN
     TOKYO INSTITUTE OF TECHNOLOGY: HIROYA NAKATA
     NAGOYA UNIVERSITY: YOSHIO NISHIMOTO, STEPHAN IRLE
     MOSCOW STATE UNIVERSITY: VLADIMIR MIRONOV


 PARALLEL VERSION RUNNING ON       16 PROCESSORS IN        1 NODES.

 EXECUTION OF GAMESS BEGUN Sat Dec  7 08:06:41 2019

            ECHO OF THE FIRST FEW INPUT CARDS -
 INPUT CARD>!*** FMO 5.3 (Gamess) INPUT generated by Facio 22.1.1.32 ***                    
 INPUT CARD> $CONTRL RUNTYP=ENERGY NPRINT=-5 ISPHER=1 MAXIT=200 $END                        
 INPUT CARD> $SYSTEM MWORDS=63 MEMDDI=63 $END                                               
 INPUT CARD> $GDDI NGROUP=1 $END                                                            
 INPUT CARD> $SCF DIRSCF=.TRUE. NPUNCH=0 $END                                               
 INPUT CARD>!*** NumCPU : 2  MemPerNode : 512MB                                             
 INPUT CARD> $PCM SOLVNT=WATER IEF=-10 ICOMP=2 ICAV=1 IDISP=1 IFMO=-1 $END                  
 INPUT CARD> $PCMCAV RADII=SUAHF $END                                                       
 INPUT CARD> $TESCAV NTSALL=60 $END                                                         
 INPUT CARD> $FMOPRP                                                                        
 INPUT CARD>    NAODIR=200                                                                  
 INPUT CARD>    NGRFMO(1)=1, 1, 0, 0, 0,   0, 0, 0, 0, 0                                    
 INPUT CARD>    IPIEDA=1                                                                    
 INPUT CARD>    NPRINT=9                                                                    
 INPUT CARD> $END                                                                           
 INPUT CARD> $FMO                                                                           
 INPUT CARD>      SCFTYP(1)=RHF                                                             
 INPUT CARD>      MODGRD=10                                                                 
 INPUT CARD>      MODMUL=0                                                                  
 INPUT CARD>      MAXCAO=5                                                                  
 INPUT CARD>      MAXBND=19                                                                 
 INPUT CARD>      NLAYER=1                                                                  
 INPUT CARD>      MPLEVL(1)=2                                                               
 INPUT CARD>      NFRAG=17                                                                  
 INPUT CARD>      ICHARG(1)=-1, -1, -1, -1, -1, -1, -1, -1, -1, -1, 0, -1, -1, -1,          
 INPUT CARD>-1, -1, 0                                                                       
 INPUT CARD>      FRGNAM(1)=F1, F2, F3, F4, F5, F6, F7, F8, F9, F10, F11, F12, F13,         
 INPUT CARD>F14, F15, F16, F17                                                              
 INPUT CARD>      indat(1)=0                                                                
 INPUT CARD>               1   -35   0                                                      
 INPUT CARD>               36   -69   0                                                     
 INPUT CARD>               70   -103   0                                                    
 INPUT CARD>               104   -136   0                                                   
 INPUT CARD>               137   -169   0                                                   
 INPUT CARD>               170   -200   0                                                   
 INPUT CARD>               201   -230   0                                                   
 INPUT CARD>               231   -263   0                                                   
 INPUT CARD>               264   -294   0                                                   
 INPUT CARD>               295   -324   0                                                   
 INPUT CARD>               325   -357   0                                                   
 INPUT CARD>               358   -388   0                                                   
 INPUT CARD>               389   -421   0                                                   
 INPUT CARD>               422   -455   0                                                   
 INPUT CARD>               456   -486   0                                                   
 INPUT CARD>               487   -517   0                                                   
 INPUT CARD>               518   -544   0                                                   
 INPUT CARD> $END                                                                           
 INPUT CARD>                                                                                
 INPUT CARD> $FMOBND                                                                        
 INPUT CARD>   -36   35       6-31G*    MINI                                                


 -------------------------------------------------------------
 GROUP DDI, PROGRAMMED BY: RYAN M. OLSON AND DMITRI G. FEDOROV
        FEDOROV ET AL., J. COMPUT. CHEM., 25 (2004) 872.
 -------------------------------------------------------------

 -------------------------------------------------------
 GDDI: INITIALIZATION COMPLETED FOR GROUP     1 OF     1
 WITH    16 PROCESSES BALTYP=DLB   global rank=        0
 -------------------------------------------------------

   63000000 WORDS OF MEMORY AVAILABLE


     RUN TITLE
     ---------
  FMO calculation                                                                

 THE POINT GROUP OF THE MOLECULE IS C1      
 THE ORDER OF THE PRINCIPAL AXIS IS     0

 ATOM   ATOMIC CHARGE
 H.1-1       1.0
 O.1-1       8.0
 C.1-1       6.0
 N.1-1       7.0
 P.1-1      15.0

     ATOMIC BASIS SET LIBRARY
     ----------------
 THE CONTRACTED PRIMITIVE FUNCTIONS HAVE BEEN UNNORMALIZED
 THE CONTRACTED BASIS FUNCTIONS ARE NOW NORMALIZED TO UNITY

  SHELL TYPE  PRIMITIVE        EXPONENT          CONTRACTION COEFFICIENT(S)

 H.1-1     

      1   S       1            18.7311370    0.033494604338
      1   S       2             2.8253944    0.234726953484
      1   S       3             0.6401217    0.813757326146

      2   S       4             0.1612778    1.000000000000

 O.1-1     

      3   S       5          5484.6716600    0.001831074430
      3   S       6           825.2349460    0.013950172200
      3   S       7           188.0469580    0.068445078098
      3   S       8            52.9645000    0.232714335992
      3   S       9            16.8975704    0.470192897984
      3   S      10             5.7996353    0.358520852987

      4   L      11            15.5396162   -0.110777549525    0.070874268231
      4   L      12             3.5999336   -0.148026262701    0.339752839147
      4   L      13             1.0137618    1.130767015354    0.727158577316

      5   L      14             0.2700058    1.000000000000    1.000000000000

      6   D      15             0.8000000    1.000000000000

 C.1-1     

      7   S      16          3047.5248800    0.001834737132
      7   S      17           457.3695180    0.014037322813
      7   S      18           103.9486850    0.068842622264
      7   S      19            29.2101553    0.232184443216
      7   S      20             9.2866630    0.467941348435
      7   S      21             3.1639270    0.362311985337

      8   L      22             7.8682723   -0.119332419775    0.068999066591
      8   L      23             1.8812885   -0.160854151696    0.316423960957
      8   L      24             0.5442493    1.143456437840    0.744308290898

      9   L      25             0.1687145    1.000000000000    1.000000000000

     10   D      26             0.8000000    1.000000000000

 N.1-1     

     11   S      27          4173.5114600    0.001834772160
     11   S      28           627.4579110    0.013994627002
     11   S      29           142.9020930    0.068586551812
     11   S      30            40.2343293    0.232240873040
     11   S      31            12.8202129    0.469069948082
     11   S      32             4.3904370    0.360455199063

     12   L      33            11.6263619   -0.114961181702    0.067579743878
     12   L      34             2.7162798   -0.169117478561    0.323907295893
     12   L      35             0.7722184    1.145851947027    0.740895139755

     13   L      36             0.2120315    1.000000000000    1.000000000000

     14   D      37             0.8000000    1.000000000000

 P.1-1     

     15   S      38         19413.3000000    0.001851598923
     15   S      39          2909.4200000    0.014206191735
     15   S      40           661.3640000    0.069999459277
     15   S      41           185.7590000    0.240078860331
     15   S      42            59.1943000    0.484761717984
     15   S      43            20.0310000    0.335199804993

     16   L      44           339.4780000   -0.002782170105    0.004564616191
     16   L      45            81.0101000   -0.036049901354    0.033693571881
     16   L      46            25.8780000   -0.116631004382    0.139754883368
     16   L      47             9.4522100    0.096832803638    0.339361716786
     16   L      48             3.6656600    0.614418023082    0.450920623685
     16   L      49             1.4674600    0.403798015170    0.238585800889

     17   L      50             2.1562300   -0.252924113863   -0.017765312733
     17   L      51             0.7489970    0.032851844678    0.274058196433
     17   L      52             0.2831450    1.081254761783    0.785421562957

     18   L      53             0.0998317    1.000000000000    1.000000000000

     19   D      54             0.5500000    1.000000000000

 TOTAL NUMBER OF BASIS SET SHELLS             =   19
 NUMBER OF CARTESIAN GAUSSIAN BASIS FUNCTIONS =   66

     $CONTRL OPTIONS
     ---------------
 SCFTYP=RHF          RUNTYP=ENERGY       EXETYP=RUN     
 MPLEVL=       0     CITYP =NONE         CCTYP =NONE         VBTYP =NONE    
 DFTTYP=NONE         TDDFT =NONE    
 MULT  =       1     ICHARG=       0     NZVAR =       0     COORD =UNIQUE  
 PP    =NONE         RELWFN=NONE         LOCAL =NONE         NUMGRD=       F
 ISPHER=       1     NOSYM =       0     MAXIT =     200     UNITS =ANGS    
 PLTORB=       F     MOLPLT=       F     AIMPAC=       F     FRIEND=        
 NPRINT=      -5     IREST =       0     GEOM  =INPUT   
 NORMF =       0     NORMP =       0     ITOL  =      24     ICUT  =      12
 INTTYP=BEST         GRDTYP=BEST         QMTTOL= 1.0E-06

     $SYSTEM OPTIONS
     ---------------
  REPLICATED MEMORY=    63000000 WORDS (ON EVERY NODE).
 DISTRIBUTED MEMDDI=          63 MILLION WORDS IN AGGREGATE,
 MEMDDI DISTRIBUTED OVER  16 PROCESSORS IS     3937500 WORDS/PROCESSOR.
 TOTAL MEMORY REQUESTED ON EACH PROCESSOR=    66937500 WORDS.
 TIMLIM=      525600.00 MINUTES, OR     365.0 DAYS.
 PARALL= T  BALTYP=  DLB     KDIAG=    0  COREFL= F
 MXSEQ2=     300 MXSEQ3=     150  mem10=         0

 ** LOOKING UP INTERNALLY STORED DATA FOR SOLVENT=WATER    **
 OPTICAL AND PHYSICAL CONSTANTS:
 EPS= 78.390; EPSINF=  1.776; RSOLV=  1.385 A; VMOL=  18.070 ML/MOL;
 TCE= .25700E-03 1/K; STEN= 71.810 DYN/CM;  DSTEN=  0.6500; CMF=  1.2770


     -----------------------------------
     INPUT FOR PCM SOLVATION CALCULATION 
     -----------------------------------
     IEF   =     -10
     ICOMP =       2     IFIELD=       0     ICAV  =       1
     IDISP =       1     IREP  =       0     IDP   =       0

     SOLVNT=WATER        EPS   = 78.3900     EPSINF=  1.7760
     VMOL  = 18.0700     TCE   =  0.00025700 STEN  = 71.8100
     DSTEN =  0.6500     CMF   =  1.2770     RSOLV =  1.3850

     NESFP =       0
     OMEGA = 40.0000     RET   =100.0000     FRO   =  0.7000

     TABS  =298.0000     IPRINT=       0

     --------------------------------
     INPUT FOR ITERATIVE C-PCM METHOD 
     --------------------------------
     IPCMIT  =         1     MXDIIS  =        50
     MXITR1  =       200     MXITR2  =       200
     THRES   = 0.100E-09     IMUL    =         3
     RCUT(1) =   20.0000     RCUT(2) =   50.0000

     IDIRCT  =         1
     IMGABI  =         0     RABI    =    4.0000
     IMGASC  =         0     RASC    =   20.0000
     THRSLS  = 0.500E-03     DENSLS  =    0.0100
     IEFPOL  =         1     REFPOL  =    0.0000

     INPUT FOR ISOTROPIC DIELECTRICS
     -------------------------------
     EPS=    78.39

          ----------------
          PROPERTIES INPUT
          ----------------

     MOMENTS            FIELD           POTENTIAL          DENSITY
 IEMOM =       1   IEFLD =       0   IEPOT =       0   IEDEN =       0
 WHERE =COMASS     WHERE =NUCLEI     WHERE =NUCLEI     WHERE =NUCLEI  
 OUTPUT=BOTH       OUTPUT=BOTH       OUTPUT=NONE       OUTPUT=BOTH    
 IEMINT=       0   IEFINT=       0                     IEDINT=       0
                                                       MORB  =       0
          EXTRAPOLATION IN EFFECT
          SOSCF IN EFFECT
 ORBITAL PRINTING OPTION: NPREO=     1 32767     2     1

     -------------------------------
     INTEGRAL TRANSFORMATION OPTIONS
     -------------------------------
     NWORD  =            0
     CUTOFF = 1.0E-10     MPTRAN =       0
     DIRTRF =       T     AOINTS =DUP     

          ----------------------
          INTEGRAL INPUT OPTIONS
          ----------------------
 NOPK  =       1 NORDER=       0 SCHWRZ=       T

 ..... DONE SETTING UP THE RUN .....
 CPU     0: STEP CPU TIME=     0.03 TOTAL CPU TIME=          0.0 (      0.0 MIN)
 TOTAL WALL CLOCK TIME=          0.1 SECONDS, CPU UTILIZATION IS    33.33%
 CPU     0: STEP CPU TIME=     0.00 TOTAL CPU TIME=          0.0 (      0.0 MIN)
 TOTAL WALL CLOCK TIME=          0.1 SECONDS, CPU UTILIZATION IS    33.33%

                    ----------------------
                    AO INTEGRAL TECHNOLOGY
                    ----------------------
     S,P,L SHELL ROTATED AXIS INTEGRALS, REPROGRAMMED BY
        KAZUYA ISHIMURA (IMS) AND JOSE SIERRA (SYNSTAR).
     S,P,D,L SHELL ROTATED AXIS INTEGRALS PROGRAMMED BY
        KAZUYA ISHIMURA (INSTITUTE FOR MOLECULAR SCIENCE).
     S,P,D,F,G SHELL TO TOTAL QUARTET ANGULAR MOMENTUM SUM 5,
        ERIC PROGRAM BY GRAHAM FLETCHER (ELORET AND NASA ADVANCED
        SUPERCOMPUTING DIVISION, AMES RESEARCH CENTER).
     S,P,D,F,G,L SHELL GENERAL RYS QUADRATURE PROGRAMMED BY
        MICHEL DUPUIS (PACIFIC NORTHWEST NATIONAL LABORATORY).
 Setting modorb=1 flag...
 Setting modorb=1 flag...

          -----------------------
          MP2 CONTROL INFORMATION
          -----------------------
          NACORE =        8  NBCORE =        8
          LMOMP2 =        F  AOINTS = DUP     
          METHOD =        2  NWORD  =               0
          MP2PRP =        F  OSPT   = NONE    
          CUTOFF = 1.00E-12  CPHFBS = BASISAO 
          CODE   = IMS     

          NUMBER OF CORE -A-  ORBITALS =     8
          NUMBER OF CORE -B-  ORBITALS =     8
          NUMBER OF OCC. -A-  ORBITALS =    18
          NUMBER OF OCC. -B-  ORBITALS =    18
          NUMBER OF MOLECULAR ORBITALS =    66
          NUMBER OF   BASIS  FUNCTIONS =    66

 CPU     0: STEP CPU TIME=     0.04 TOTAL CPU TIME=          0.1 (      0.0 MIN)
 TOTAL WALL CLOCK TIME=          0.1 SECONDS, CPU UTILIZATION IS    50.00%
 CPU     0: STEP CPU TIME=     0.00 TOTAL CPU TIME=          0.1 (      0.0 MIN)
 TOTAL WALL CLOCK TIME=          0.1 SECONDS, CPU UTILIZATION IS    50.00%

     INPUT FOR CAVITY DEFINITION 
     ---------------------------
   ATOM               COORDINATES                RADIUS       EPS
      1     11.1590      9.6250      4.8120      0.0100     78.3900
      2     11.8390     10.1660      4.3620      1.5900     78.3900
      3     12.6590     10.7340      5.3950      1.7700     78.3900
      4     13.0630      9.9170      6.0360      0.0100     78.3900
      5     12.0340     11.3920      6.0370      0.0100     78.3900
      6     13.8250     11.5600      4.8470      1.7700     78.3900
      7     14.4080     12.0200      5.6750      0.0100     78.3900
      8     14.7300     10.6970      4.0990      1.5900     78.3900
      9     15.2330     11.4060      2.9810      1.7700     78.3900
     10     16.3440     11.3820      3.0560      0.0100     78.3900
     11     14.8240     10.7720      1.7210      1.6800     78.3900
     12     14.7220     10.1200     -0.3780      1.7700     78.3900
     13     13.7370      9.4040      0.2970      1.6800     78.3900
     14     13.8360      9.8310      1.5360      1.7700     78.3900
     15     13.2170      9.4930      2.3710      0.0100     78.3900
     16     16.1950     10.9160     -2.0610      1.6800     78.3900
     17     16.7290     11.6940     -1.1120      1.7700     78.3900
     18     17.5550     12.3330     -1.4460      0.0100     78.3900
     19     16.4200     11.7810      0.1860      1.6800     78.3900
     20     15.3960     10.9640      0.4880      1.7700     78.3900
     21     15.1650     10.0990     -1.7200      1.7700     78.3900
     22     14.6440      9.2950     -2.6650      1.6800     78.3900
     23     13.8670      8.6910     -2.4620      0.0100     78.3900
     24     14.9660      9.3400     -3.6140      0.0100     78.3900
     25     14.7530     12.8340      3.0990      1.7700     78.3900
     26     14.5980     13.3120      2.1120      0.0100     78.3900
     27     15.6800     13.5890      3.8530      1.5900     78.3900
     28     15.3520     14.4940      3.8500      0.0100     78.3900
     29     13.4360     12.6600      3.8500      1.7700     78.3900
     30     12.6620     12.2250      3.1770      0.0100     78.3900
     31     12.9650     13.8300      4.5620      1.5900     78.3900
     32     12.0260     14.8520      3.8120      2.1000     78.3900
     33     10.9240     14.1090      3.1630      1.5900     78.3900
     34     11.6500     15.9510      4.7300      1.5900     78.3900
     35     12.9470     15.4540      2.6880      1.5900     78.3900
     36     14.0170     16.3610      3.0450      1.7700     78.3900
     37     14.6810     15.9320      3.8270      0.0100     78.3900
     38     13.6100     17.3170      3.4490      0.0100     78.3900
     39     14.8660     16.7030      1.8180      1.7700     78.3900
     40     15.7230     17.3490      2.1060      0.0100     78.3900
     41     15.4170     15.4960      1.2170      1.5900     78.3900
     42     15.4400     15.6500     -0.1930      1.7700     78.3900
     43     16.4940     15.4870     -0.5150      0.0100     78.3900
     44     14.5840     14.6630     -0.8670      1.6800     78.3900
     45     14.6490     14.3080     -2.1890      1.7700     78.3900
     46     15.9920     14.7290     -5.3520      1.6800     78.3900
     47     16.6610     15.4540     -5.2110      0.0100     78.3900
     48     15.8270     14.3970     -6.2860      0.0100     78.3900
     49     15.4920     14.8190     -3.1030      1.6800     78.3900
     50     15.2930     14.3070     -4.3130      1.7700     78.3900
     51     14.3760     13.3230     -4.5710      1.6800     78.3900
     52     14.3080     12.9740     -5.5140      0.0100     78.3900
     53     13.5150     12.7500     -3.6440      1.7700     78.3900
     54     12.7240     11.8600     -3.9740      1.5900     78.3900
     55     13.6860     13.3280     -2.3560      1.7700     78.3900
     56     13.0190     13.0810     -1.1620      1.6800     78.3900
     57     13.5800     13.9030     -0.3090      1.7700     78.3900
     58     13.3050     14.0110      0.7420      0.0100     78.3900
     59     15.0360     17.0730     -0.4950      1.7700     78.3900
     60     14.5150     17.1750     -1.4690      0.0100     78.3900
     61     16.1790     17.9040     -0.4660      1.5900     78.3900
     62     15.8500     18.8070     -0.5330      0.0100     78.3900
     63     14.1170     17.4000      0.6750      1.7700     78.3900
     64     13.1340     16.8860      0.5700      0.0100     78.3900
     65     13.9860     18.8120      0.9610      1.5900     78.3900
     66     12.8990     19.6560      0.1940      2.1000     78.3900
     67     11.5950     18.9880      0.3920      1.5900     78.3900
     68     12.9980     21.0610      0.6490      1.5900     78.3900
     69     13.3100     19.5670     -1.3330      1.5900     78.3900
     70     14.4210     20.3520     -1.8330      1.7700     78.3900
     71     15.3590     20.1360     -1.2750      0.0100     78.3900
     72     14.2110     21.4450     -1.7190      0.0100     78.3900
     73     14.6780     20.0780     -3.3240      1.7700     78.3900
     74     15.5890     20.6080     -3.6720      0.0100     78.3900
     75     14.8850     18.6600     -3.5730      1.5900     78.3900
     76     14.2810     18.3000     -4.8100      1.7700     78.3900
     77     15.0910     17.8650     -5.4390      0.0100     78.3900
     78     13.2370     17.2800     -4.6380      1.6800     78.3900
     79     12.7620     16.4300     -5.6030      1.7700     78.3900
     80     12.7440     15.3060     -8.8870      1.6800     78.3900
     81     13.4370     15.8810     -9.3200      0.0100     78.3900
     82     12.2820     14.6030     -9.4360      0.0100     78.3900
     83     13.1490     16.3960     -6.8900      1.6800     78.3900
     84     12.5220     15.4540     -7.5910      1.7700     78.3900
     85     11.6250     14.5840     -7.0270      1.6800     78.3900
     86     11.1950     13.8940     -7.6250      0.0100     78.3900
     87     11.2410     14.5630     -5.6890      1.7700     78.3900
     88     10.4520     13.7200     -5.2530      1.5900     78.3900
     89     11.8510     15.6160     -4.9590      1.7700     78.3900
     90     11.7160     15.9780     -3.6250      1.6800     78.3900
     91     12.5560     16.9760     -3.4830      1.7700     78.3900
     92     12.7330     17.5300     -2.5590      0.0100     78.3900
     93     13.7660     19.5660     -5.4550      1.7700     78.3900
     94     12.8300     19.4080     -6.0320      0.0100     78.3900
     95     14.7630     20.1000     -6.3030      1.5900     78.3900
     96     14.4760     20.9900     -6.5440      0.0100     78.3900
     97     13.5210     20.4650     -4.2460      1.7700     78.3900
     98     12.5900     20.1510     -3.7160      0.0100     78.3900
     99     13.5680     21.8870     -4.5200      1.5900     78.3900
    100     12.2170     22.6070     -4.8990      2.1000     78.3900
    101     11.2250     22.3460     -3.8330      1.5900     78.3900
    102     12.5180     24.0250     -5.1980      1.5900     78.3900
    103     11.7530     21.8900     -6.2190      1.5900     78.3900
    104     12.3420     22.2820     -7.4830      1.7700     78.3900
    105     13.4370     22.0700     -7.4870      0.0100     78.3900
    106     12.2170     23.3740     -7.6640      0.0100     78.3900
    107     11.6690     21.5400     -8.6480      1.7700     78.3900
    108     12.1110     21.8590     -9.6200      0.0100     78.3900
    109     11.8980     20.1090     -8.5070      1.5900     78.3900
    110     10.7680     19.4030     -8.9890      1.7700     78.3900
    111     11.1330     18.7480     -9.8140      0.0100     78.3900
    112     10.1750     18.5730     -7.9420      1.6800     78.3900
    113      9.1290     16.9600     -6.8850      1.7700     78.3900
    114      9.6130     17.8170     -5.9060      1.6800     78.3900
    115     10.2180     18.7620     -6.5820      1.7700     78.3900
    116     10.7240     19.6280     -6.1480      0.0100     78.3900
    117      8.0970     15.1390     -7.9900      1.6800     78.3900
    118      8.4860     15.7090     -9.1330      1.7700     78.3900
    119      8.2050     15.1740    -10.0470      0.0100     78.3900
    120      9.1630     16.8480     -9.3160      1.6800     78.3900
    121      9.4660     17.4190     -8.1430      1.7700     78.3900
    122      8.4020     15.7520     -6.8200      1.7700     78.3900
    123      8.0300     15.1820     -5.6660      1.6800     78.3900
    124      8.3040     15.5420     -4.7740      0.0100     78.3900
    125      7.5150     14.3240     -5.6780      0.0100     78.3900
    126      9.7880     20.4140     -9.5430      1.7700     78.3900
    127      8.7300     20.1210     -9.3750      0.0100     78.3900
    128     10.0300     20.6040    -10.9250      1.5900     78.3900
    129      9.5500     21.3990    -11.1940      0.0100     78.3900
    130     10.1350     21.6600     -8.7430      1.7700     78.3900
    131      9.7460     21.5660     -7.7040      0.0100     78.3900
    132      9.7480     22.8960     -9.3860      1.5900     78.3900
    133      8.4110     23.6120     -8.9570      2.1000     78.3900
    134      8.4150     23.7530     -7.4850      1.5900     78.3900
    135      8.2880     24.8620     -9.7380      1.5900     78.3900
    136      7.2630     22.6160     -9.3500      1.5900     78.3900
    137      6.9290     22.3120    -10.7200      1.7700     78.3900
    138      7.8260     21.9980    -11.2990      0.0100     78.3900
    139      6.5030     23.2110    -11.2220      0.0100     78.3900
    140      5.8850     21.1830    -10.8090      1.7700     78.3900
    141      5.6050     20.9970    -11.8710      0.0100     78.3900
    142      6.4380     19.9390    -10.2790      1.5900     78.3900
    143      5.4280     19.2380     -9.5710      1.7700     78.3900
    144      5.3630     18.2210    -10.0290      0.0100     78.3900
    145      5.7820     19.1200     -8.1490      1.6800     78.3900
    146      6.0280     18.3990     -6.0840      1.7700     78.3900
    147      6.7210     19.5980     -6.1640      1.6800     78.3900
    148      6.5470     19.9820     -7.4030      1.7700     78.3900
    149      6.9670     20.8880     -7.8400      0.0100     78.3900
    150      5.1010     16.3620     -5.3020      1.6800     78.3900
    151      4.5670     16.2390     -6.5180      1.7700     78.3900
    152      3.9730     15.3350     -6.6700      0.0100     78.3900
    153      4.6990     17.0260     -7.5910      1.6800     78.3900
    154      5.4380     18.1010     -7.2990      1.7700     78.3900
    155      5.8510     17.4640     -5.0390      1.7700     78.3900
    156      6.4140     17.5860     -3.8240      1.6800     78.3900
    157      6.9700     18.3780     -3.5650      0.0100     78.3900
    158      6.1930     16.9160     -3.1170      0.0100     78.3900
    159      4.1150     19.9740     -9.7950      1.7700     78.3900
    160      3.4270     19.9020     -8.9250      0.0100     78.3900
    161      3.4820     19.4760    -10.9590      1.5900     78.3900
    162      2.6980     20.0230    -11.1270      0.0100     78.3900
    163      4.6020     21.4050     -9.9980      1.7700     78.3900
    164      4.9270     21.8340     -9.0270      0.0100     78.3900
    165      3.6990     22.2720    -10.7240      1.5900     78.3900
    166      2.6330     23.1170     -9.9220      2.1000     78.3900
    167      3.2090     23.4740     -8.6100      1.5900     78.3900
    168      2.1710     24.2250    -10.7830      1.5900     78.3900
    169      1.4190     22.1450     -9.7020      1.5900     78.3900
    170      0.4620     22.4000     -8.6330      1.7700     78.3900
    171     -0.4090     22.9680     -9.0310      0.0100     78.3900
    172      0.8980     23.0030     -7.8000      0.0100     78.3900
    173     -0.0470     21.0880     -8.0120      1.7700     78.3900
    174     -0.7550     20.5940     -8.7060      0.0100     78.3900
    175      1.0800     20.1710     -7.8300      1.5900     78.3900
    176      0.9190     19.4520     -6.6250      1.7700     78.3900
    177      0.9990     18.3760     -6.9040      0.0100     78.3900
    178      1.9790     19.7640     -5.6220      1.6800     78.3900
    179      2.6720     20.9540     -5.7220      1.7700     78.3900
    180      2.3840     21.6200     -6.5420      0.0100     78.3900
    181      3.6650     21.2550     -4.8780      1.7700     78.3900
    182      4.2410     22.1740     -4.9600      0.0100     78.3900
    183      2.2780     18.8760     -4.5840      1.7700     78.3900
    184      1.6390     17.8210     -4.4740      1.5900     78.3900
    185      3.2790     19.1740     -3.7280      1.6800     78.3900
    186      3.9820     20.3040     -3.8670      1.7700     78.3900
    187      5.0000     20.5290     -3.0430      1.6800     78.3900
    188      5.1970     19.8470     -2.3380      0.0100     78.3900
    189      5.5680     21.3510     -3.0870      0.0100     78.3900
    190     -0.4800     19.7260     -6.1350      1.7700     78.3900
    191     -0.5470     19.6720     -5.0360      0.0100     78.3900
    192     -1.3950     18.8220     -6.7460      1.5900     78.3900
    193     -1.2210     17.9160     -6.4230      0.0100     78.3900
    194     -0.7040     21.1600     -6.6100      1.7700     78.3900
    195     -0.1130     21.8710     -5.9950      0.0100     78.3900
    196     -2.0790     21.5810     -6.6950      1.5900     78.3900
    197     -3.0450     21.5820     -5.4360      2.1000     78.3900
    198     -2.4900     22.4770     -4.3910      1.5900     78.3900
    199     -4.3970     21.9350     -5.9220      1.5900     78.3900
    200     -3.1080     20.1160     -4.8680      1.5900     78.3900
    201     -3.5310     19.7690     -3.5360      1.7700     78.3900
    202     -4.5800     19.4020     -3.5780      0.0100     78.3900
    203     -3.5090     20.6380     -2.8460      0.0100     78.3900
    204     -2.6770     18.6290     -2.9360      1.7700     78.3900
    205     -2.8670     17.7010     -3.5180      0.0100     78.3900
    206     -1.2550     18.9200     -2.9940      1.5900     78.3900
    207     -0.7250     19.0530     -1.6990      1.7700     78.3900
    208     -0.2660     18.0580     -1.4770      0.0100     78.3900
    209      0.2680     20.1520     -1.6580      1.6800     78.3900
    210      0.0180     21.3330     -2.3200      1.7700     78.3900
    211     -0.9480     21.3860     -2.8310      0.0100     78.3900
    212      1.4430     19.9560     -0.9720      1.7700     78.3900
    213      1.6940     18.9180     -0.3660      1.5900     78.3900
    214      2.3150     21.0140     -1.0080      1.6800     78.3900
    215      3.2020     20.8530     -0.5570      0.0100     78.3900
    216      2.1490     22.2160     -1.6610      1.7700     78.3900
    217      3.0410     23.0630     -1.6330      1.5900     78.3900
    218      0.8940     22.3490     -2.3420      1.7700     78.3900
    219      0.6810     23.2780     -2.8660      0.0100     78.3900
    220     -1.9100     19.2860     -0.7850      1.7700     78.3900
    221     -2.2390     20.3470     -0.8250      0.0100     78.3900
    222     -1.6590     18.8880      0.5460      1.5900     78.3900
    223     -1.5680     17.9220      0.5230      0.0100     78.3900
    224     -2.9440     18.3780     -1.4390      1.7700     78.3900
    225     -3.9610     18.7590     -1.1780      0.0100     78.3900
    226     -2.7590     16.9910     -1.0700      1.5900     78.3900
    227     -3.9620     15.9860     -1.0450      2.1000     78.3900
    228     -3.9440     15.2680      0.2490      1.5900     78.3900
    229     -5.2180     16.6960     -1.3780      1.5900     78.3900
    230     -3.6220     14.9570     -2.1830      1.5900     78.3900
    231     -2.3340     14.3230     -2.2940      1.7700     78.3900
    232     -2.4640     13.2620     -2.6100      0.0100     78.3900
    233     -1.7860     14.3120     -1.3220      0.0100     78.3900
    234     -1.4930     15.0330     -3.3480      1.7700     78.3900
    235     -1.4780     16.1290     -3.1830      0.0100     78.3900
    236     -0.1180     14.5830     -3.2230      1.5900     78.3900
    237      0.4850     14.5510     -4.5100      1.7700     78.3900
    238      1.3550     15.2480     -4.4780      0.0100     78.3900
    239      0.9710     13.1980     -4.8310      1.6800     78.3900
    240      2.0280     11.4890     -5.7350      1.7700     78.3900
    241      1.3690     10.9900     -4.6170      1.6800     78.3900
    242      0.7650     12.0400     -4.1140      1.7700     78.3900
    243      0.1370     12.0260     -3.2190      0.0100     78.3900
    244      3.3590     11.6620     -7.6910      1.6800     78.3900
    245      3.0060     12.9500     -7.7160      1.7700     78.3900
    246      3.4160     13.5360     -8.5470      0.0100     78.3900
    247      2.2470     13.6370     -6.8550      1.6800     78.3900
    248      1.7860     12.8430     -5.8800      1.7700     78.3900
    249      2.8690     10.8820     -6.6940      1.7700     78.3900
    250      3.2170      9.5840     -6.6630      1.6800     78.3900
    251      2.8740      8.9540     -5.9660      0.0100     78.3900
    252      3.8250      9.2240     -7.3680      0.0100     78.3900
    253     -0.5400     15.0750     -5.5090      1.7700     78.3900
    254     -0.4660     14.5670     -6.4900      0.0100     78.3900
    255     -0.3840     16.4650     -5.7100      1.5900     78.3900
    256     -0.3610     16.9270     -4.8560      0.0100     78.3900
    257     -1.8530     14.7520     -4.8110      1.7700     78.3900
    258     -2.0430     13.6540     -4.8640      0.0100     78.3900
    259     -2.9790     15.5660     -5.2310      1.5900     78.3900
    260     -4.1390     14.9140     -6.0650      2.1000     78.3900
    261     -4.3170     13.5130     -5.6240      1.5900     78.3900
    262     -5.3390     15.7740     -6.0280      1.5900     78.3900
    263     -3.6140     14.8950     -7.5460      1.5900     78.3900
    264     -3.2310     16.1190     -8.2170      1.7700     78.3900
    265     -2.7000     16.8120     -7.5240      0.0100     78.3900
    266     -4.1320     16.6450     -8.6080      0.0100     78.3900
    267     -2.2750     15.8440     -9.3880      1.7700     78.3900
    268     -2.0090     16.7830     -9.9190      0.0100     78.3900
    269     -1.0410     15.2790     -8.8730      1.5900     78.3900
    270     -0.5670     14.2730     -9.7530      1.7700     78.3900
    271      0.4700     14.5800    -10.0190      0.0100     78.3900
    272     -0.5190     12.9220     -9.1220      1.6800     78.3900
    273     -1.3090     12.6400     -8.0330      1.7700     78.3900
    274     -1.9250     13.4600     -7.6730      0.0100     78.3900
    275     -1.2700     11.4490     -7.4250      1.7700     78.3900
    276     -1.8670     11.2260     -6.5420      0.0100     78.3900
    277      0.3070     11.9300     -9.6430      1.7700     78.3900
    278      0.9940     12.1840    -10.6440      1.5900     78.3900
    279      0.3430     10.7120     -9.0570      1.6800     78.3900
    280     -0.3950     10.4640     -7.9630      1.7700     78.3900
    281     -0.2970      9.2770     -7.3710      1.6800     78.3900
    282      0.3530      8.6040     -7.7340      0.0100     78.3900
    283     -0.7960      9.0610     -6.5330      0.0100     78.3900
    284     -1.4340     14.3240    -10.9950      1.7700     78.3900
    285     -1.5430     13.3320    -11.4750      0.0100     78.3900
    286     -0.8990     15.2460    -11.9250      1.5900     78.3900
    287     -1.5340     15.3010    -12.6510      0.0100     78.3900
    288     -2.7590     14.8200    -10.4220      1.7700     78.3900
    289     -3.2480     14.0050     -9.8420      0.0100     78.3900
    290     -3.6450     15.4610    -11.3730      1.5900     78.3900
    291     -4.7150     14.5760    -12.1190      2.1000     78.3900
    292     -5.3350     13.6560    -11.1460      1.5900     78.3900
    293     -5.6290     15.4940    -12.8370      1.5900     78.3900
    294     -3.9070     13.7260    -13.1540      1.5900     78.3900
    295     -3.2730     14.3060    -14.3100      1.7700     78.3900
    296     -2.6200     15.1600    -14.0260      0.0100     78.3900
    297     -4.0470     14.6750    -15.0240      0.0100     78.3900
    298     -2.3940     13.2720    -15.0290      1.7700     78.3900
    299     -1.8890     13.7270    -15.9070      0.0100     78.3900
    300     -1.3490     12.7850    -14.1360      1.5900     78.3900
    301     -1.1230     11.4030    -14.3860      1.7700     78.3900
    302     -0.0400     11.3190    -14.6400      0.0100     78.3900
    303     -1.4390     10.5650    -13.1890      1.6800     78.3900
    304     -2.3350     10.9990    -12.2390      1.7700     78.3900
    305     -2.7530     11.9850    -12.4190      0.0100     78.3900
    306     -0.8500      9.3270    -13.0730      1.7700     78.3900
    307     -0.1090      8.8670    -13.9330      1.5900     78.3900
    308     -1.1340      8.6560    -11.9120      1.6800     78.3900
    309     -0.7490      7.7210    -11.8400      0.0100     78.3900
    310     -1.9760      9.0540    -10.8990      1.7700     78.3900
    311     -2.1270      8.3530     -9.9010      1.5900     78.3900
    312     -2.6220     10.3080    -11.1270      1.7700     78.3900
    313     -3.2930     10.7030    -10.3700      0.0100     78.3900
    314     -1.9450     11.0310    -15.6070      1.7700     78.3900
    315     -2.2870      9.9800    -15.5750      0.0100     78.3900
    316     -1.1860     11.2470    -16.7840      1.5900     78.3900
    317     -1.7630     11.0520    -17.5320      0.0100     78.3900
    318     -3.1170     12.0060    -15.4980      1.7700     78.3900
    319     -3.7940     11.7000    -14.6670      0.0100     78.3900
    320     -3.8210     12.2760    -16.7330      1.5900     78.3900
    321     -5.1120     11.4430    -17.0760      2.1000     78.3900
    322     -5.9930     11.3880    -15.8930      1.5900     78.3900
    323     -5.7130     11.9780    -18.3170      1.5900     78.3900
    324     -4.5510     10.0000    -17.3560      1.5900     78.3900
    325     -3.7760      9.7680    -18.5590      1.7700     78.3900
    326     -2.9020     10.4560    -18.6180      0.0100     78.3900
    327     -4.3960      9.9470    -19.4690      0.0100     78.3900
    328     -3.2620      8.3250    -18.6140      1.7700     78.3900
    329     -2.6900      8.1410    -19.5510      0.0100     78.3900
    330     -2.3470      8.0810    -17.5060      1.5900     78.3900
    331     -2.5430      6.7560    -17.0280      1.7700     78.3900
    332     -1.5520      6.2480    -17.0860      0.0100     78.3900
    333     -2.9940      6.7500    -15.6280      1.6800     78.3900
    334     -2.9200      5.7000    -14.7520      1.7700     78.3900
    335     -2.1120      2.4040    -14.0780      1.6800     78.3900
    336     -1.7730      2.0760    -14.9590      0.0100     78.3900
    337     -2.1570      1.7650    -13.3040      0.0100     78.3900
    338     -2.4440      4.4720    -15.0300      1.6800     78.3900
    339     -2.5100      3.6580    -13.9800      1.7700     78.3900
    340     -3.0080      4.0410    -12.7610      1.6800     78.3900
    341     -3.0150      3.3620    -12.0150      0.0100     78.3900
    342     -3.4810      5.3070    -12.4370      1.7700     78.3900
    343     -3.9170      5.5670    -11.3100      1.5900     78.3900
    344     -3.4410      6.1750    -13.5610      1.7700     78.3900
    345     -3.8510      7.4970    -13.6920      1.6800     78.3900
    346     -3.5720      7.7910    -14.9390      1.7700     78.3900
    347     -3.7800      8.7450    -15.4240      0.0100     78.3900
    348     -3.5270      6.0640    -17.9570      1.7700     78.3900
    349     -4.1740      5.3410    -17.4160      0.0100     78.3900
    350     -2.8180      5.4020    -18.9940      1.5900     78.3900
    351     -3.4550      5.0990    -19.6680      0.0100     78.3900
    352     -4.3410      7.2450    -18.4730      1.7700     78.3900
    353     -5.0730      7.5780    -17.7020      0.0100     78.3900
    354     -4.9910      7.0040    -19.7350      1.5900     78.3900
    355     -5.6970      6.3420    -19.6230      0.0100     78.3900
    356     -2.3390     -2.2440     -5.4190      0.0100     78.3900
    357     -2.0580     -1.9950     -6.3190      1.5900     78.3900
    358     -1.8550     -3.2170     -7.0440      1.7700     78.3900
    359     -2.7900     -3.8200     -7.0050      0.0100     78.3900
    360     -1.0460     -3.8030     -6.5520      0.0100     78.3900
    361     -1.4690     -3.0050     -8.5150      1.7700     78.3900
    362     -1.1920     -3.9760     -8.9850      0.0100     78.3900
    363     -2.6110     -2.4800     -9.2510      1.5900     78.3900
    364     -2.1600     -1.5070    -10.1870      1.7700     78.3900
    365     -2.5550     -1.8380    -11.1780      0.0100     78.3900
    366     -2.6620     -0.1330     -9.8910      1.6800     78.3900
    367     -3.1310      0.1850     -8.6350      1.7700     78.3900
    368     -3.1280     -0.6210     -7.8990      0.0100     78.3900
    369     -3.5910      1.4100     -8.3530      1.7700     78.3900
    370     -3.9970      1.6680     -7.3780      0.0100     78.3900
    371     -2.6150      0.8530    -10.8740      1.7700     78.3900
    372     -2.1470      0.5730    -11.9880      1.5900     78.3900
    373     -3.0950      2.0910    -10.6130      1.6800     78.3900
    374     -3.5750      2.3830     -9.3910      1.7700     78.3900
    375     -4.0620      3.6030     -9.1610      1.6800     78.3900
    376     -4.0300      4.2910     -9.8900      0.0100     78.3900
    377     -4.4600      3.8520     -8.2770      0.0100     78.3900
    378     -0.6480     -1.5760    -10.2120      1.7700     78.3900
    379     -0.1800     -0.6000    -10.4550      0.0100     78.3900
    380     -0.2180     -2.5530    -11.1420      1.5900     78.3900
    381      0.7440     -2.5570    -11.0840      0.0100     78.3900
    382     -0.3400     -1.9960     -8.7740      1.7700     78.3900
    383     -0.5120     -1.1380     -8.0830      0.0100     78.3900
    384      0.9440     -2.6370     -8.5670      1.5900     78.3900
    385      2.1930     -1.7320     -8.2270      2.1000     78.3900
    386      1.8300     -0.7820     -7.1560      1.5900     78.3900
    387      3.3680     -2.5920     -7.9700      1.5900     78.3900
    388      2.4210     -0.9310     -9.5580      1.5900     78.3900
    389      2.9780     -1.5770    -10.7240      1.7700     78.3900
    390      2.3320     -2.4130    -11.0740      0.0100     78.3900
    391      3.9780     -2.0160    -10.5030      0.0100     78.3900
    392      3.1420     -0.5700    -11.8680      1.7700     78.3900
    393      3.5520     -1.0650    -12.7740      0.0100     78.3900
    394      1.8410     -0.0120    -12.2270      1.5900     78.3900
    395      1.9980      1.3640    -12.5430      1.7700     78.3900
    396      1.5750      1.5070    -13.5670      0.0100     78.3900
    397      1.2790      2.2220    -11.5960      1.6800     78.3900
    398      0.2290      3.9140    -10.6670      1.7700     78.3900
    399      0.2550      2.9030     -9.7110      1.6800     78.3900
    400      0.8840      1.9240    -10.3150      1.7700     78.3900
    401      1.0820      0.9450     -9.8790      0.0100     78.3900
    402     -0.1390      5.9750    -11.7780      1.6800     78.3900
    403      0.5470      5.4580    -12.8030      1.7700     78.3900
    404      0.6750      6.1170    -13.6720      0.0100     78.3900
    405      1.0580      4.2310    -12.9400      1.6800     78.3900
    406      0.8700      3.5090    -11.8250      1.7700     78.3900
    407     -0.3290      5.2110    -10.6710      1.7700     78.3900
    408     -1.0480      5.7060     -9.6470      1.6800     78.3900
    409     -1.1620      5.2000     -8.7870      0.0100     78.3900
    410     -1.4560      6.6210     -9.7170      0.0100     78.3900
    411      3.4820      1.6580    -12.5660      1.7700     78.3900
    412      3.7220      2.6980    -12.2630      0.0100     78.3900
    413      3.9980      1.3990    -13.8560      1.5900     78.3900
    414      4.9540      1.5210    -13.8010      0.0100     78.3900
    415      4.0110      0.6550    -11.5490      1.7700     78.3900
    416      3.7370      0.9740    -10.5170      0.0100     78.3900
    417      5.4170      0.3240    -11.6860      1.5900     78.3900
    418      6.4590      1.1910    -10.8810      2.1000     78.3900
    419      5.9710      1.3740     -9.4970      1.5900     78.3900
    420      7.7880      0.5670    -11.0400      1.5900     78.3900
    421      6.4720      2.5900    -11.5920      1.5900     78.3900
    422      6.9730      2.7490    -12.9410      1.7700     78.3900
    423      6.4930      2.0310    -13.6420      0.0100     78.3900
    424      8.0690      2.5580    -12.9820      0.0100     78.3900
    425      6.7270      4.1730    -13.4630      1.7700     78.3900
    426      7.0810      4.2760    -14.5090      0.0100     78.3900
    427      5.3010      4.4610    -13.4600      1.5900     78.3900
    428      5.0970      5.8120    -13.0720      1.7700     78.3900
    429      4.5060      6.2860    -13.8910      0.0100     78.3900
    430      4.3400      5.9050    -11.8140      1.6800     78.3900
    431      3.5560      6.9570    -11.4300      1.7700     78.3900
    432      2.2500     10.1120    -12.0270      1.6800     78.3900
    433      2.6530     10.3510    -12.9080      0.0100     78.3900
    434      1.7190     10.8010    -11.5260      0.0100     78.3900
    435      3.3690      8.0910    -12.1270      1.6800     78.3900
    436      2.5520      8.9390    -11.4990      1.7700     78.3900
    437      1.9890      8.6710    -10.2790      1.6800     78.3900
    438      1.4010      9.3760     -9.8620      0.0100     78.3900
    439      2.1550      7.5050     -9.5430      1.7700     78.3900
    440      1.5970      7.3460     -8.4530      1.5900     78.3900
    441      3.0330      6.6020    -10.1990      1.7700     78.3900
    442      3.4890      5.3470     -9.8100      1.6800     78.3900
    443      4.2710      4.9780    -10.7970      1.7700     78.3900
    444      4.8210      4.0380    -10.8480      0.0100     78.3900
    445      6.4570      6.4800    -12.9880      1.7700     78.3900
    446      6.5080      7.2740    -12.2130      0.0100     78.3900
    447      6.8040      7.0170    -14.2510      1.5900     78.3900
    448      7.7380      7.2550    -14.2030      0.0100     78.3900
    449      7.3540      5.3020    -12.6300      1.7700     78.3900
    450      7.2010      5.0080    -11.5660      0.0100     78.3900
    451      8.7510      5.4760    -12.9800      1.5900     78.3900
    452      9.7060      6.1500    -11.9170      2.1000     78.3900
    453      9.1020      6.0230    -10.5740      1.5900     78.3900
    454     11.0510      5.5640    -12.0880      1.5900     78.3900
    455      9.7360      7.6720    -12.3240      1.5900     78.3900
    456     10.0580      8.1010    -13.6680      1.7700     78.3900
    457      9.1230      8.1810    -14.2620      0.0100     78.3900
    458     10.7320      7.3820    -14.1960      0.0100     78.3900
    459     10.7140      9.4980    -13.6870      1.7700     78.3900
    460     10.8690      9.8390    -14.7340      0.0100     78.3900
    461      9.8370     10.4730    -13.0450      1.5900     78.3900
    462     10.6250     11.4190    -12.3280      1.7700     78.3900
    463     10.3480     12.4140    -12.7480      0.0100     78.3900
    464     10.3490     11.4360    -10.8590      1.6800     78.3900
    465      9.6460     10.4020    -10.2800      1.7700     78.3900
    466      9.3390      9.5920    -10.9460      0.0100     78.3900
    467      9.3430     10.4090     -8.9750      1.7700     78.3900
    468      8.7700      9.6130     -8.5060      0.0100     78.3900
    469     10.7920     12.4960    -10.0640      1.7700     78.3900
    470     11.4410     13.4180    -10.5810      1.5900     78.3900
    471     10.5010     12.5110     -8.7430      1.6800     78.3900
    472      9.7830     11.5140     -8.1960      1.7700     78.3900
    473      9.5020     11.5510     -6.8950      1.6800     78.3900
    474      9.7900     12.3380     -6.3450      0.0100     78.3900
    475      8.9630     10.8320     -6.4560      0.0100     78.3900
    476     12.0780     11.1380    -12.6570      1.7700     78.3900
    477     12.7560     11.3770    -11.8170      0.0100     78.3900
    478     12.4660     11.8800    -13.8000      1.5900     78.3900
    479     13.3570     11.5890    -14.0330      0.0100     78.3900
    480     12.0520      9.6400    -12.9430      1.7700     78.3900
    481     11.9500      9.0580    -11.9990      0.0100     78.3900
    482     13.1290      9.1770    -13.7800      1.5900     78.3900
    483     14.4260      8.5330    -13.1720      2.1000     78.3900
    484     14.0470      7.6530    -12.0510      1.5900     78.3900
    485     15.1980      7.9050    -14.2690      1.5900     78.3900
    486     15.2120      9.7540    -12.5790      1.5900     78.3900
    487     15.8500     10.7380    -13.4140      1.7700     78.3900
    488     15.1380     11.1570    -14.1590      0.0100     78.3900
    489     16.6910     10.2750    -13.9810      0.0100     78.3900
    490     16.4100     11.9000    -12.5760      1.7700     78.3900
    491     16.9350     12.6340    -13.2260      0.0100     78.3900
    492     15.3180     12.6130    -11.9190      1.5900     78.3900
    493     15.7410     13.0060    -10.6130      1.7700     78.3900
    494     15.6010     14.1130    -10.5620      0.0100     78.3900
    495     14.9410     12.3640     -9.5260      1.6800     78.3900
    496     14.2690     11.1910     -9.7700      1.7700     78.3900
    497     14.3550     10.7990    -10.7820      0.0100     78.3900
    498     13.5250     10.5960     -8.8300      1.7700     78.3900
    499     12.9570      9.6890     -9.0270      0.0100     78.3900
    500     14.9230     12.9030     -8.2430      1.7700     78.3900
    501     15.5970     13.9140     -8.0020      1.5900     78.3900
    502     14.1690     12.3240     -7.2790      1.6800     78.3900
    503     13.4700     11.2060     -7.5460      1.7700     78.3900
    504     12.7210     10.6620     -6.5900      1.6800     78.3900
    505     12.6890     11.0780     -5.6770      0.0100     78.3900
    506     12.2440      9.7920     -6.7320      0.0100     78.3900
    507     17.2240     12.7040    -10.5050      1.7700     78.3900
    508     17.5300     12.4580     -9.4690      0.0100     78.3900
    509     17.9860     13.8040    -10.9660      1.5900     78.3900
    510     18.9090     13.5210    -10.9580      0.0100     78.3900
    511     17.3580     11.5020    -11.4330      1.7700     78.3900
    512     16.9100     10.6020    -10.9550      0.0100     78.3900
    513     18.6890     11.2700    -11.9530      1.5900     78.3900
    514     19.6170     10.2050    -11.2550      2.1000     78.3900
    515     18.8190      9.0120    -10.8990      1.5900     78.3900
    516     20.8040      9.9810    -12.1060      1.5900     78.3900
    517     20.0600     10.9040     -9.9210      1.5900     78.3900
    518     20.8960     12.0830     -9.9390      1.7700     78.3900
    519     20.4620     12.8830    -10.5810      0.0100     78.3900
    520     21.9030     11.8310    -10.3460      0.0100     78.3900
    521     21.0890     12.6510     -8.5230      1.7700     78.3900
    522     21.7960     13.5080     -8.5280      0.0100     78.3900
    523     19.8180     13.1410     -8.0030      1.5900     78.3900
    524     19.7300     12.8540     -6.6110      1.7700     78.3900
    525     19.5690     13.8360     -6.1070      0.0100     78.3900
    526     18.5920     11.9380     -6.3050      1.6800     78.3900
    527     18.0450     11.1340     -7.2800      1.7700     78.3900
    528     18.5190     11.2030     -8.2570      0.0100     78.3900
    529     18.1080     11.9030     -5.0160      1.7700     78.3900
    530     18.5880     12.5720     -4.1080      1.5900     78.3900
    531     17.0470     11.0560     -4.8190      1.6800     78.3900
    532     16.7240     10.9840     -3.8610      0.0100     78.3900
    533     16.4520     10.2240     -5.7430      1.7700     78.3900
    534     15.5270      9.4900     -5.4040      1.5900     78.3900
    535     17.0110     10.3100     -7.0580      1.7700     78.3900
    536     16.6000      9.6820     -7.8460      0.0100     78.3900
    537     21.0770     12.2830     -6.1790      1.7700     78.3900
    538     20.9670     11.5230     -5.3760      0.0100     78.3900
    539     21.9310     13.3280     -5.7400      1.5900     78.3900
    540     22.8360     12.9790     -5.6740      0.0100     78.3900
    541     21.5650     11.6380     -7.4740      1.7700     78.3900
    542     21.0360     10.6760     -7.6450      0.0100     78.3900
    543     22.9910     11.4640     -7.5520      1.5900     78.3900
    544     23.2940     10.8110     -6.8920      0.0100     78.3900

     ----------------------------
     INPUT FOR TESSERA DEFINITION
     ----------------------------
     NTSALL  =        60     MTHALL  =         4
     MTHAUT  =         0     AUTFRE  =    2.0000
     NTSFRZ  =        60     KEEPSM  =         0
     AREAKP  =   10.0000     BONDRY  =    1.0000
     AREATL  =    0.0100

     SPHERE     INITS       METHOD
          1        60       FIXPVA
          2        60       FIXPVA
          3        60       FIXPVA
          4        60       FIXPVA
          5        60       FIXPVA
          6        60       FIXPVA
          7        60       FIXPVA
          8        60       FIXPVA
          9        60       FIXPVA
         10        60       FIXPVA
         11        60       FIXPVA
         12        60       FIXPVA
         13        60       FIXPVA
         14        60       FIXPVA
         15        60       FIXPVA
         16        60       FIXPVA
         17        60       FIXPVA
         18        60       FIXPVA
         19        60       FIXPVA
         20        60       FIXPVA
         21        60       FIXPVA
         22        60       FIXPVA
         23        60       FIXPVA
         24        60       FIXPVA
         25        60       FIXPVA
         26        60       FIXPVA
         27        60       FIXPVA
         28        60       FIXPVA
         29        60       FIXPVA
         30        60       FIXPVA
         31        60       FIXPVA
         32        60       FIXPVA
         33        60       FIXPVA
         34        60       FIXPVA
         35        60       FIXPVA
         36        60       FIXPVA
         37        60       FIXPVA
         38        60       FIXPVA
         39        60       FIXPVA
         40        60       FIXPVA
         41        60       FIXPVA
         42        60       FIXPVA
         43        60       FIXPVA
         44        60       FIXPVA
         45        60       FIXPVA
         46        60       FIXPVA
         47        60       FIXPVA
         48        60       FIXPVA
         49        60       FIXPVA
         50        60       FIXPVA
         51        60       FIXPVA
         52        60       FIXPVA
         53        60       FIXPVA
         54        60       FIXPVA
         55        60       FIXPVA
         56        60       FIXPVA
         57        60       FIXPVA
         58        60       FIXPVA
         59        60       FIXPVA
         60        60       FIXPVA
         61        60       FIXPVA
         62        60       FIXPVA
         63        60       FIXPVA
         64        60       FIXPVA
         65        60       FIXPVA
         66        60       FIXPVA
         67        60       FIXPVA
         68        60       FIXPVA
         69        60       FIXPVA
         70        60       FIXPVA
         71        60       FIXPVA
         72        60       FIXPVA
         73        60       FIXPVA
         74        60       FIXPVA
         75        60       FIXPVA
         76        60       FIXPVA
         77        60       FIXPVA
         78        60       FIXPVA
         79        60       FIXPVA
         80        60       FIXPVA
         81        60       FIXPVA
         82        60       FIXPVA
         83        60       FIXPVA
         84        60       FIXPVA
         85        60       FIXPVA
         86        60       FIXPVA
         87        60       FIXPVA
         88        60       FIXPVA
         89        60       FIXPVA
         90        60       FIXPVA
         91        60       FIXPVA
         92        60       FIXPVA
         93        60       FIXPVA
         94        60       FIXPVA
         95        60       FIXPVA
         96        60       FIXPVA
         97        60       FIXPVA
         98        60       FIXPVA
         99        60       FIXPVA
        100        60       FIXPVA
        101        60       FIXPVA
        102        60       FIXPVA
        103        60       FIXPVA
        104        60       FIXPVA
        105        60       FIXPVA
        106        60       FIXPVA
        107        60       FIXPVA
        108        60       FIXPVA
        109        60       FIXPVA
        110        60       FIXPVA
        111        60       FIXPVA
        112        60       FIXPVA
        113        60       FIXPVA
        114        60       FIXPVA
        115        60       FIXPVA
        116        60       FIXPVA
        117        60       FIXPVA
        118        60       FIXPVA
        119        60       FIXPVA
        120        60       FIXPVA
        121        60       FIXPVA
        122        60       FIXPVA
        123        60       FIXPVA
        124        60       FIXPVA
        125        60       FIXPVA
        126        60       FIXPVA
        127        60       FIXPVA
        128        60       FIXPVA
        129        60       FIXPVA
        130        60       FIXPVA
        131        60       FIXPVA
        132        60       FIXPVA
        133        60       FIXPVA
        134        60       FIXPVA
        135        60       FIXPVA
        136        60       FIXPVA
        137        60       FIXPVA
        138        60       FIXPVA
        139        60       FIXPVA
        140        60       FIXPVA
        141        60       FIXPVA
        142        60       FIXPVA
        143        60       FIXPVA
        144        60       FIXPVA
        145        60       FIXPVA
        146        60       FIXPVA
        147        60       FIXPVA
        148        60       FIXPVA
        149        60       FIXPVA
        150        60       FIXPVA
        151        60       FIXPVA
        152        60       FIXPVA
        153        60       FIXPVA
        154        60       FIXPVA
        155        60       FIXPVA
        156        60       FIXPVA
        157        60       FIXPVA
        158        60       FIXPVA
        159        60       FIXPVA
        160        60       FIXPVA
        161        60       FIXPVA
        162        60       FIXPVA
        163        60       FIXPVA
        164        60       FIXPVA
        165        60       FIXPVA
        166        60       FIXPVA
        167        60       FIXPVA
        168        60       FIXPVA
        169        60       FIXPVA
        170        60       FIXPVA
        171        60       FIXPVA
        172        60       FIXPVA
        173        60       FIXPVA
        174        60       FIXPVA
        175        60       FIXPVA
        176        60       FIXPVA
        177        60       FIXPVA
        178        60       FIXPVA
        179        60       FIXPVA
        180        60       FIXPVA
        181        60       FIXPVA
        182        60       FIXPVA
        183        60       FIXPVA
        184        60       FIXPVA
        185        60       FIXPVA
        186        60       FIXPVA
        187        60       FIXPVA
        188        60       FIXPVA
        189        60       FIXPVA
        190        60       FIXPVA
        191        60       FIXPVA
        192        60       FIXPVA
        193        60       FIXPVA
        194        60       FIXPVA
        195        60       FIXPVA
        196        60       FIXPVA
        197        60       FIXPVA
        198        60       FIXPVA
        199        60       FIXPVA
        200        60       FIXPVA
        201        60       FIXPVA
        202        60       FIXPVA
        203        60       FIXPVA
        204        60       FIXPVA
        205        60       FIXPVA
        206        60       FIXPVA
        207        60       FIXPVA
        208        60       FIXPVA
        209        60       FIXPVA
        210        60       FIXPVA
        211        60       FIXPVA
        212        60       FIXPVA
        213        60       FIXPVA
        214        60       FIXPVA
        215        60       FIXPVA
        216        60       FIXPVA
        217        60       FIXPVA
        218        60       FIXPVA
        219        60       FIXPVA
        220        60       FIXPVA
        221        60       FIXPVA
        222        60       FIXPVA
        223        60       FIXPVA
        224        60       FIXPVA
        225        60       FIXPVA
        226        60       FIXPVA
        227        60       FIXPVA
        228        60       FIXPVA
        229        60       FIXPVA
        230        60       FIXPVA
        231        60       FIXPVA
        232        60       FIXPVA
        233        60       FIXPVA
        234        60       FIXPVA
        235        60       FIXPVA
        236        60       FIXPVA
        237        60       FIXPVA
        238        60       FIXPVA
        239        60       FIXPVA
        240        60       FIXPVA
        241        60       FIXPVA
        242        60       FIXPVA
        243        60       FIXPVA
        244        60       FIXPVA
        245        60       FIXPVA
        246        60       FIXPVA
        247        60       FIXPVA
        248        60       FIXPVA
        249        60       FIXPVA
        250        60       FIXPVA
        251        60       FIXPVA
        252        60       FIXPVA
        253        60       FIXPVA
        254        60       FIXPVA
        255        60       FIXPVA
        256        60       FIXPVA
        257        60       FIXPVA
        258        60       FIXPVA
        259        60       FIXPVA
        260        60       FIXPVA
        261        60       FIXPVA
        262        60       FIXPVA
        263        60       FIXPVA
        264        60       FIXPVA
        265        60       FIXPVA
        266        60       FIXPVA
        267        60       FIXPVA
        268        60       FIXPVA
        269        60       FIXPVA
        270        60       FIXPVA
        271        60       FIXPVA
        272        60       FIXPVA
        273        60       FIXPVA
        274        60       FIXPVA
        275        60       FIXPVA
        276        60       FIXPVA
        277        60       FIXPVA
        278        60       FIXPVA
        279        60       FIXPVA
        280        60       FIXPVA
        281        60       FIXPVA
        282        60       FIXPVA
        283        60       FIXPVA
        284        60       FIXPVA
        285        60       FIXPVA
        286        60       FIXPVA
        287        60       FIXPVA
        288        60       FIXPVA
        289        60       FIXPVA
        290        60       FIXPVA
        291        60       FIXPVA
        292        60       FIXPVA
        293        60       FIXPVA
        294        60       FIXPVA
        295        60       FIXPVA
        296        60       FIXPVA
        297        60       FIXPVA
        298        60       FIXPVA
        299        60       FIXPVA
        300        60       FIXPVA
        301        60       FIXPVA
        302        60       FIXPVA
        303        60       FIXPVA
        304        60       FIXPVA
        305        60       FIXPVA
        306        60       FIXPVA
        307        60       FIXPVA
        308        60       FIXPVA
        309        60       FIXPVA
        310        60       FIXPVA
        311        60       FIXPVA
        312        60       FIXPVA
        313        60       FIXPVA
        314        60       FIXPVA
        315        60       FIXPVA
        316        60       FIXPVA
        317        60       FIXPVA
        318        60       FIXPVA
        319        60       FIXPVA
        320        60       FIXPVA
        321        60       FIXPVA
        322        60       FIXPVA
        323        60       FIXPVA
        324        60       FIXPVA
        325        60       FIXPVA
        326        60       FIXPVA
        327        60       FIXPVA
        328        60       FIXPVA
        329        60       FIXPVA
        330        60       FIXPVA
        331        60       FIXPVA
        332        60       FIXPVA
        333        60       FIXPVA
        334        60       FIXPVA
        335        60       FIXPVA
        336        60       FIXPVA
        337        60       FIXPVA
        338        60       FIXPVA
        339        60       FIXPVA
        340        60       FIXPVA
        341        60       FIXPVA
        342        60       FIXPVA
        343        60       FIXPVA
        344        60       FIXPVA
        345        60       FIXPVA
        346        60       FIXPVA
        347        60       FIXPVA
        348        60       FIXPVA
        349        60       FIXPVA
        350        60       FIXPVA
        351        60       FIXPVA
        352        60       FIXPVA
        353        60       FIXPVA
        354        60       FIXPVA
        355        60       FIXPVA
        356        60       FIXPVA
        357        60       FIXPVA
        358        60       FIXPVA
        359        60       FIXPVA
        360        60       FIXPVA
        361        60       FIXPVA
        362        60       FIXPVA
        363        60       FIXPVA
        364        60       FIXPVA
        365        60       FIXPVA
        366        60       FIXPVA
        367        60       FIXPVA
        368        60       FIXPVA
        369        60       FIXPVA
        370        60       FIXPVA
        371        60       FIXPVA
        372        60       FIXPVA
        373        60       FIXPVA
        374        60       FIXPVA
        375        60       FIXPVA
        376        60       FIXPVA
        377        60       FIXPVA
        378        60       FIXPVA
        379        60       FIXPVA
        380        60       FIXPVA
        381        60       FIXPVA
        382        60       FIXPVA
        383        60       FIXPVA
        384        60       FIXPVA
        385        60       FIXPVA
        386        60       FIXPVA
        387        60       FIXPVA
        388        60       FIXPVA
        389        60       FIXPVA
        390        60       FIXPVA
        391        60       FIXPVA
        392        60       FIXPVA
        393        60       FIXPVA
        394        60       FIXPVA
        395        60       FIXPVA
        396        60       FIXPVA
        397        60       FIXPVA
        398        60       FIXPVA
        399        60       FIXPVA
        400        60       FIXPVA
        401        60       FIXPVA
        402        60       FIXPVA
        403        60       FIXPVA
        404        60       FIXPVA
        405        60       FIXPVA
        406        60       FIXPVA
        407        60       FIXPVA
        408        60       FIXPVA
        409        60       FIXPVA
        410        60       FIXPVA
        411        60       FIXPVA
        412        60       FIXPVA
        413        60       FIXPVA
        414        60       FIXPVA
        415        60       FIXPVA
        416        60       FIXPVA
        417        60       FIXPVA
        418        60       FIXPVA
        419        60       FIXPVA
        420        60       FIXPVA
        421        60       FIXPVA
        422        60       FIXPVA
        423        60       FIXPVA
        424        60       FIXPVA
        425        60       FIXPVA
        426        60       FIXPVA
        427        60       FIXPVA
        428        60       FIXPVA
        429        60       FIXPVA
        430        60       FIXPVA
        431        60       FIXPVA
        432        60       FIXPVA
        433        60       FIXPVA
        434        60       FIXPVA
        435        60       FIXPVA
        436        60       FIXPVA
        437        60       FIXPVA
        438        60       FIXPVA
        439        60       FIXPVA
        440        60       FIXPVA
        441        60       FIXPVA
        442        60       FIXPVA
        443        60       FIXPVA
        444        60       FIXPVA
        445        60       FIXPVA
        446        60       FIXPVA
        447        60       FIXPVA
        448        60       FIXPVA
        449        60       FIXPVA
        450        60       FIXPVA
        451        60       FIXPVA
        452        60       FIXPVA
        453        60       FIXPVA
        454        60       FIXPVA
        455        60       FIXPVA
        456        60       FIXPVA
        457        60       FIXPVA
        458        60       FIXPVA
        459        60       FIXPVA
        460        60       FIXPVA
        461        60       FIXPVA
        462        60       FIXPVA
        463        60       FIXPVA
        464        60       FIXPVA
        465        60       FIXPVA
        466        60       FIXPVA
        467        60       FIXPVA
        468        60       FIXPVA
        469        60       FIXPVA
        470        60       FIXPVA
        471        60       FIXPVA
        472        60       FIXPVA
        473        60       FIXPVA
        474        60       FIXPVA
        475        60       FIXPVA
        476        60       FIXPVA
        477        60       FIXPVA
        478        60       FIXPVA
        479        60       FIXPVA
        480        60       FIXPVA
        481        60       FIXPVA
        482        60       FIXPVA
        483        60       FIXPVA
        484        60       FIXPVA
        485        60       FIXPVA
        486        60       FIXPVA
        487        60       FIXPVA
        488        60       FIXPVA
        489        60       FIXPVA
        490        60       FIXPVA
        491        60       FIXPVA
        492        60       FIXPVA
        493        60       FIXPVA
        494        60       FIXPVA
        495        60       FIXPVA
        496        60       FIXPVA
        497        60       FIXPVA
        498        60       FIXPVA
        499        60       FIXPVA
        500        60       FIXPVA
        501        60       FIXPVA
        502        60       FIXPVA
        503        60       FIXPVA
        504        60       FIXPVA
        505        60       FIXPVA
        506        60       FIXPVA
        507        60       FIXPVA
        508        60       FIXPVA
        509        60       FIXPVA
        510        60       FIXPVA
        511        60       FIXPVA
        512        60       FIXPVA
        513        60       FIXPVA
        514        60       FIXPVA
        515        60       FIXPVA
        516        60       FIXPVA
        517        60       FIXPVA
        518        60       FIXPVA
        519        60       FIXPVA
        520        60       FIXPVA
        521        60       FIXPVA
        522        60       FIXPVA
        523        60       FIXPVA
        524        60       FIXPVA
        525        60       FIXPVA
        526        60       FIXPVA
        527        60       FIXPVA
        528        60       FIXPVA
        529        60       FIXPVA
        530        60       FIXPVA
        531        60       FIXPVA
        532        60       FIXPVA
        533        60       FIXPVA
        534        60       FIXPVA
        535        60       FIXPVA
        536        60       FIXPVA
        537        60       FIXPVA
        538        60       FIXPVA
        539        60       FIXPVA
        540        60       FIXPVA
        541        60       FIXPVA
        542        60       FIXPVA
        543        60       FIXPVA
        544        60       FIXPVA

     ------------------------------
      FIXPVA TESSELLATION FOR PCM
         PEIFENG SU AND HUI LI
     UNIVERSITY OF NEBRASKA-LINCOLN
     ------------------------------


 PCM DIMENSIONS: MXSP=   544, MXTS=     21760, MEMORY=        223587

     INPUT FOR CAVITY DEFINITION 
     ---------------------------
   ATOM               COORDINATES                RADIUS       EPS
      1     11.1590      9.6250      4.8120      0.0100     78.3900
      2     11.8390     10.1660      4.3620      1.5900     78.3900
      3     12.6590     10.7340      5.3950      1.7700     78.3900
      4     13.0630      9.9170      6.0360      0.0100     78.3900
      5     12.0340     11.3920      6.0370      0.0100     78.3900
      6     13.8250     11.5600      4.8470      1.7700     78.3900
      7     14.4080     12.0200      5.6750      0.0100     78.3900
      8     14.7300     10.6970      4.0990      1.5900     78.3900
      9     15.2330     11.4060      2.9810      1.7700     78.3900
     10     16.3440     11.3820      3.0560      0.0100     78.3900
     11     14.8240     10.7720      1.7210      1.6800     78.3900
     12     14.7220     10.1200     -0.3780      1.7700     78.3900
     13     13.7370      9.4040      0.2970      1.6800     78.3900
     14     13.8360      9.8310      1.5360      1.7700     78.3900
     15     13.2170      9.4930      2.3710      0.0100     78.3900
     16     16.1950     10.9160     -2.0610      1.6800     78.3900
     17     16.7290     11.6940     -1.1120      1.7700     78.3900
     18     17.5550     12.3330     -1.4460      0.0100     78.3900
     19     16.4200     11.7810      0.1860      1.6800     78.3900
     20     15.3960     10.9640      0.4880      1.7700     78.3900
     21     15.1650     10.0990     -1.7200      1.7700     78.3900
     22     14.6440      9.2950     -2.6650      1.6800     78.3900
     23     13.8670      8.6910     -2.4620      0.0100     78.3900
     24     14.9660      9.3400     -3.6140      0.0100     78.3900
     25     14.7530     12.8340      3.0990      1.7700     78.3900
     26     14.5980     13.3120      2.1120      0.0100     78.3900
     27     15.6800     13.5890      3.8530      1.5900     78.3900
     28     15.3520     14.4940      3.8500      0.0100     78.3900
     29     13.4360     12.6600      3.8500      1.7700     78.3900
     30     12.6620     12.2250      3.1770      0.0100     78.3900
     31     12.9650     13.8300      4.5620      1.5900     78.3900
     32     12.0260     14.8520      3.8120      2.1000     78.3900
     33     10.9240     14.1090      3.1630      1.5900     78.3900
[...]
   492   16   8.0   3.61    7.9    0.045967   -0.726153   -0.734661
   493   16   6.0   3.78    6.7   -0.045048    0.420682    0.420820
   494   16   1.0   0.00    0.0    0.000000    0.259137    0.255753
   495   16   7.0   0.00    0.0    0.000000   -0.823632   -0.838385
   496   16   6.0   1.45    2.6    0.002338    0.183802    0.167484
   497   16   1.0   0.00    0.0    0.000000    0.306593    0.331921
   498   16   6.0   7.54   13.3   -0.045696   -0.412366   -0.424011
   499   16   1.0   0.00    0.0    0.000000    0.274567    0.277767
   500   16   6.0   0.00    0.0    0.000000    1.065022    1.099032
   501   16   8.0   5.96   13.0    0.098507   -0.789639   -0.770695
   502   16   7.0   0.00    0.0    0.000000   -0.878013   -0.876268
   503   16   6.0   0.02    0.0    0.001423    0.758600    0.772517
   504   16   7.0   8.04   15.7   -0.098495   -0.943163   -1.004909
   505   16   1.0   0.00    0.0    0.000000    0.467333    0.511059
   506   16   1.0   0.00    0.0    0.000000    0.443386    0.440338
   507   16   6.0   0.73    1.3    0.011761    0.143160    0.107448
   508   16   1.0   0.00    0.0    0.000000    0.183065    0.218995
   509   16   8.0  16.60   36.3    0.088820   -0.820416   -0.839930
   510   16   1.0   0.00    0.0    0.000000    0.494187    0.521273
   511   16   6.0   0.94    1.7   -0.023105    0.138454    0.106222
   512   16   1.0   0.00    0.0    0.000000    0.253884    0.256067
   513   16   8.0   5.28   11.5    0.064261   -0.796068   -0.802204
   514   16  15.0  10.26   12.9    0.129322    1.599710    1.652374
   515   16   8.0  13.68   29.9    0.305793   -0.893169   -0.891811
   516   16   8.0  18.01   39.4    0.358299   -0.890842   -0.886292
   517   16   8.0   1.52    3.3    0.020660   -0.970012   -0.783083
   518   17   6.0  12.53   22.1   -0.091695    0.207302   -0.027576
   519   17   1.0   0.00    0.0    0.000000    0.151391    0.171674
   520   17   1.0   0.00    0.0    0.000000    0.244996    0.229190
   521   17   6.0   6.68   11.8   -0.046841    0.087558    0.148600
   522   17   1.0   0.00    0.0    0.000000    0.256672    0.229328
   523   17   8.0   4.52    9.9    0.046090   -0.728848   -0.737119
   524   17   6.0   4.59    8.1   -0.047075    0.415100    0.414602
   525   17   1.0   0.00    0.0    0.000000    0.264326    0.259948
   526   17   7.0   0.10    0.2   -0.001530   -0.831004   -0.838589
   527   17   6.0   2.86    5.1   -0.000250    0.195639    0.182752
   528   17   1.0   0.00    0.0    0.000000    0.307644    0.328569
   529   17   6.0   1.94    3.4   -0.008497    1.119642    1.125244
   530   17   8.0  10.79   23.6    0.159181   -0.683061   -0.693490
   531   17   7.0   0.97    1.9    0.001913   -0.935345   -1.018182
   532   17   1.0   0.00    0.0    0.000000    0.482988    0.543072
   533   17   6.0   1.89    3.3   -0.004390    0.892461    0.898670
   534   17   8.0   9.04   19.8    0.127113   -0.728783   -0.713990
   535   17   6.0   8.85   15.6   -0.030874   -0.462775   -0.467012
   536   17   1.0   0.00    0.0    0.000000    0.273282    0.272621
   537   17   6.0   5.00    8.8   -0.061481    0.116821    0.117576
   538   17   1.0   0.00    0.0    0.000000    0.226579    0.225578
   539   17   8.0  21.44   46.9    0.060838   -0.835433   -0.837161
   540   17   1.0   0.00    0.0    0.000000    0.500000    0.500466
   541   17   6.0   6.03   10.6   -0.064031    0.160757    0.144220
   542   17   1.0   0.00    0.0    0.000000    0.226372    0.228454
   543   17   8.0  22.39   48.9   -0.037179   -0.852192   -0.855458
   544   17   1.0   0.00    0.0    0.000000    0.511537    0.511152

 Done with FMO properties.
 CPU     0: STEP CPU TIME=     0.01 TOTAL CPU TIME=      28875.8 (    481.3 MIN)
 TOTAL WALL CLOCK TIME=      64612.9 SECONDS, CPU UTILIZATION IS    44.69%
 CPU     0: STEP CPU TIME=     0.00 TOTAL CPU TIME=      28875.8 (    481.3 MIN)
 TOTAL WALL CLOCK TIME=      64612.9 SECONDS, CPU UTILIZATION IS    44.69%

 Total timing statistics in pairs (CPU,wall) for each rank, sec

    Rank   total     SCF    corr     DFT    CPHF     EFP    solv     ESP    geom
 -------------------------------------------------------------------------------
       1   28875.8   7892.1  10932.1      0.0    0.0   0.0  376.8  8857.8    0.0
       1   64613.0  16921.5  27111.9      0.0    0.0   0.0  985.3 17740.4    0.0
       2   28713.9   7840.6  10774.3      0.0    0.0   0.0  379.0  8910.6    0.0
       2   64613.0  16901.9  27127.5      0.0    0.0   0.0  984.8 17739.4    0.0
       3   28999.0   7883.0  11026.6      0.0    0.0   0.0  381.8  8889.8    0.0
       3   64613.0  16901.8  27127.6      0.0    0.0   0.0  985.5 17739.3    0.0
       4   28947.8   7839.6  11071.5      0.0    0.0   0.0  380.1  8850.7    0.0
       4   64613.0  16903.2  27127.5      0.0    0.0   0.0  983.7 17738.9    0.0
       5   28863.9   7883.3  10988.8      0.0    0.0   0.0  377.3  8820.5    0.0
       5   64613.0  16903.1  27127.5      0.0    0.0   0.0  984.5 17739.5    0.0
       6   28918.5   7836.7  11086.8      0.0    0.0   0.0  377.5  8821.7    0.0
       6   64613.0  16903.3  27127.5      0.0    0.0   0.0  983.3 17739.1    0.0
       7   28807.3   7879.4  10921.6      0.0    0.0   0.0  376.6  8840.8    0.0
       7   64613.0  16903.6  27127.4      0.0    0.0   0.0  983.6 17739.3    0.0
       8   29055.9   7843.3  11136.6      0.0    0.0   0.0  376.9  8907.9    0.0
       8   64613.0  16904.3  27127.4      0.0    0.0   0.0  982.1 17739.1    0.0
       9   28314.0   7876.6  10562.2      0.0    0.0   0.0  371.2  8703.1    0.0
       9   64613.0  16904.3  27127.4      0.0    0.0   0.0  983.3 17739.3    0.0
      10   28353.0   7842.9  10644.7      0.0    0.0   0.0  372.9  8705.5    0.0
      10   64613.0  16904.0  27127.4      0.0    0.0   0.0  983.0 17739.2    0.0
      11   28505.6   7888.1  10723.2      0.0    0.0   0.0  373.7  8733.5    0.0
      11   64613.0  16904.8  27127.4      0.0    0.0   0.0  982.4 17738.9    0.0
      12   28668.5   7849.0  10865.1      0.0    0.0   0.0  373.0  8785.3    0.0
      12   64613.0  16905.4  27127.4      0.0    0.0   0.0  981.1 17738.8    0.0
      13   28531.3   7864.1  10857.4      0.0    0.0   0.0  369.6  8636.0    0.0
      13   64613.0  16906.0  27127.5      0.0    0.0   0.0  981.9 17738.8    0.0
      14   28261.3   7869.8  10473.3      0.0    0.0   0.0  374.1  8729.3    0.0
      14   64613.1  16905.7  27127.4      0.0    0.0   0.0  981.4 17738.6    0.0
      15   28412.8   7904.2  10615.8      0.0    0.0   0.0  375.4  8705.2    0.0
      15   64613.0  16906.3  27127.4      0.0    0.0   0.0  981.1 17738.6    0.0
      16   28855.4   7876.4  11057.1      0.0    0.0   0.0  374.6  8758.4    0.0
      16   64613.0  16906.6  27127.4      0.0    0.0   0.0  979.8 17738.5    0.0
averaged   28692.7   7866.8  10858.6      0.0    0.0   0.0  375.6  8791.0    0.0
averaged   64613.0  16905.4  27126.5      0.0    0.0   0.0  982.9 17739.1    0.0

  FMO  timing statistics in pairs (CPU,wall) for each rank, sec

    Rank  FMOini FMOscf1  FMOdm1 FMOsyn1 FMOscf2  FMOes2 FMOsyn2 FMOscf3 FMOsyn3
 -------------------------------------------------------------------------------
       1    3.4   10807.1    0.5    0.0   17472.4     592.3    0.0    0.0    0.0
       1    8.5   22537.7    3.5    0.0   40876.0    1186.7    0.0    0.0    0.0
       2    2.5   10798.2    0.1    0.0   17323.2     589.8    0.0    0.0    0.0
       2    8.5   22537.7    3.5    0.0   40878.7    1184.1    0.0    0.0    0.0
       3    2.8   10809.0    0.2    0.0   17592.4     594.6    0.0    0.0    0.0
       3    8.5   22537.7    3.5    0.0   40874.7    1188.1    0.0    0.0    0.0
       4    2.5   10778.7    0.1    0.0   17581.0     585.4    0.0    0.0    0.0
       4    8.5   22537.7    3.5    0.0   40876.5    1186.2    0.0    0.0    0.0
       5    3.0   10757.8    0.3    0.0   17528.5     574.2    0.0    0.0    0.0
       5    8.5   22537.7    3.5    0.0   40877.2    1185.6    0.0    0.0    0.0
       6    2.6   10736.7    0.1    0.0   17601.0     578.1    0.0    0.0    0.0
       6    8.5   22537.7    3.5    0.0   40878.6    1184.2    0.0    0.0    0.0
       7    2.8   10776.9    0.2    0.0   17456.5     570.9    0.0    0.0    0.0
       7    8.5   22537.7    3.5    0.0   40875.8    1187.0    0.0    0.0    0.0
       8    2.4   10861.3    0.1    0.0   17616.9     575.1    0.0    0.0    0.0
       8    8.5   22537.7    3.5    0.0   40876.9    1185.9    0.0    0.0    0.0
       9    3.0   10683.7    0.3    0.0   17043.4     583.5    0.0    0.0    0.0
       9    8.5   22537.7    3.5    0.0   40875.8    1187.0    0.0    0.0    0.0
      10    2.4   10751.4    0.1    0.0   17026.8     572.3    0.0    0.0    0.0
      10    8.5   22537.7    3.5    0.0   40876.7    1186.0    0.0    0.0    0.0
      11    2.5   10710.1    0.2    0.0   17220.4     572.3    0.0    0.0    0.0
      11    8.5   22537.7    3.5    0.0   40877.8    1185.0    0.0    0.0    0.0
      12    2.3   10795.6    0.1    0.0   17287.8     582.7    0.0    0.0    0.0
      12    8.5   22537.7    3.5    0.0   40876.5    1186.3    0.0    0.0    0.0
      13    2.7   10692.0    0.3    0.0   17246.2     590.0    0.0    0.0    0.0
      13    8.5   22537.7    3.5    0.0   40877.8    1185.0    0.0    0.0    0.0
      14    2.3   10768.8    0.2    0.0   16889.3     600.7    0.0    0.0    0.0
      14    8.5   22537.7    3.5    0.0   40876.6    1186.2    0.0    0.0    0.0
      15    2.5   10821.3    0.2    0.0   16994.1     594.7    0.0    0.0    0.0
      15    8.5   22537.7    3.5    0.0   40877.4    1185.4    0.0    0.0    0.0
      16    2.4   10768.6    0.2    0.0   17510.0     574.2    0.0    0.0    0.0
      16    8.5   22537.7    3.5    0.0   40876.5    1186.2    0.0    0.0    0.0
averaged    2.6   10769.8    0.2    0.0   17336.9     583.2    0.0    0.0    0.0
averaged    8.5   22537.7    3.5    0.0   40876.8    1185.9    0.0    0.0    0.0
             62805691  WORDS OF DYNAMIC MEMORY USED
 EXECUTION OF GAMESS TERMINATED NORMALLY Sun Dec  8 02:03:34 2019
 DDI: 263640 bytes (0.3 MB / 0 MWords) used by master data server.

 ----------------------------------------
 CPU timing information for all processes
 ========================================
 0: 28207.550 + 668.303 = 28875.853
 1: 28130.429 + 583.574 = 28714.04
 2: 28373.223 + 625.783 = 28999.06
 3: 28346.553 + 601.276 = 28947.830
 4: 28226.53 + 637.885 = 28863.939
 5: 28304.702 + 613.862 = 28918.564
 6: 28190.285 + 617.121 = 28807.406
 7: 28454.577 + 601.344 = 29055.921
 8: 27690.316 + 623.718 = 28314.35
 9: 27766.307 + 586.767 = 28353.75
 10: 27901.209 + 604.442 = 28505.651
 11: 28090.522 + 578.03 = 28668.525
 12: 27907.98 + 624.270 = 28531.368
 13: 27691.806 + 569.532 = 28261.339
 14: 27819.628 + 593.207 = 28412.836
 15: 28243.430 + 611.991 = 28855.422
 ----------------------------------------
 ddikick.x: exited gracefully.
unset echo
----- accounting info -----
Files used on the master node gollum062.lsa.umich.edu were:
-rw-r--r-- 1 hazwong frank    26583 Dec  7 08:06 /scratch/hazwong/824937/1P5M_4/usrc/1P5M_4_fmo_input.F05
-rw-r--r-- 1 hazwong frank      634 Dec  8 02:03 /scratch/hazwong/824937/1P5M_4/usrc/1P5M_4_fmo_input.F06.001
-rw-r--r-- 1 hazwong frank      634 Dec  8 02:03 /scratch/hazwong/824937/1P5M_4/usrc/1P5M_4_fmo_input.F06.002
-rw-r--r-- 1 hazwong frank      634 Dec  8 02:03 /scratch/hazwong/824937/1P5M_4/usrc/1P5M_4_fmo_input.F06.003
-rw-r--r-- 1 hazwong frank      634 Dec  8 02:03 /scratch/hazwong/824937/1P5M_4/usrc/1P5M_4_fmo_input.F06.004
-rw-r--r-- 1 hazwong frank      634 Dec  8 02:03 /scratch/hazwong/824937/1P5M_4/usrc/1P5M_4_fmo_input.F06.005
-rw-r--r-- 1 hazwong frank      634 Dec  8 02:03 /scratch/hazwong/824937/1P5M_4/usrc/1P5M_4_fmo_input.F06.006
-rw-r--r-- 1 hazwong frank      634 Dec  8 02:03 /scratch/hazwong/824937/1P5M_4/usrc/1P5M_4_fmo_input.F06.007
-rw-r--r-- 1 hazwong frank      634 Dec  8 02:03 /scratch/hazwong/824937/1P5M_4/usrc/1P5M_4_fmo_input.F06.008
-rw-r--r-- 1 hazwong frank      634 Dec  8 02:03 /scratch/hazwong/824937/1P5M_4/usrc/1P5M_4_fmo_input.F06.009
-rw-r--r-- 1 hazwong frank      634 Dec  8 02:03 /scratch/hazwong/824937/1P5M_4/usrc/1P5M_4_fmo_input.F06.010
-rw-r--r-- 1 hazwong frank      634 Dec  8 02:03 /scratch/hazwong/824937/1P5M_4/usrc/1P5M_4_fmo_input.F06.011
-rw-r--r-- 1 hazwong frank      634 Dec  8 02:03 /scratch/hazwong/824937/1P5M_4/usrc/1P5M_4_fmo_input.F06.012
-rw-r--r-- 1 hazwong frank      634 Dec  8 02:03 /scratch/hazwong/824937/1P5M_4/usrc/1P5M_4_fmo_input.F06.013
-rw-r--r-- 1 hazwong frank      634 Dec  8 02:03 /scratch/hazwong/824937/1P5M_4/usrc/1P5M_4_fmo_input.F06.014
-rw-r--r-- 1 hazwong frank      634 Dec  8 02:03 /scratch/hazwong/824937/1P5M_4/usrc/1P5M_4_fmo_input.F06.015
-rw-r--r-- 1 hazwong frank    24606 Dec  8 02:03 /scratch/hazwong/824937/1P5M_4/usrc/1P5M_4_fmo_input.F07
-rw-r--r-- 1 hazwong frank        0 Dec  7 08:06 /scratch/hazwong/824937/1P5M_4/usrc/1P5M_4_fmo_input.F07.001
-rw-r--r-- 1 hazwong frank        0 Dec  7 08:06 /scratch/hazwong/824937/1P5M_4/usrc/1P5M_4_fmo_input.F07.002
-rw-r--r-- 1 hazwong frank        0 Dec  7 08:06 /scratch/hazwong/824937/1P5M_4/usrc/1P5M_4_fmo_input.F07.003
-rw-r--r-- 1 hazwong frank        0 Dec  7 08:06 /scratch/hazwong/824937/1P5M_4/usrc/1P5M_4_fmo_input.F07.004
-rw-r--r-- 1 hazwong frank        0 Dec  7 08:06 /scratch/hazwong/824937/1P5M_4/usrc/1P5M_4_fmo_input.F07.005
-rw-r--r-- 1 hazwong frank        0 Dec  7 08:06 /scratch/hazwong/824937/1P5M_4/usrc/1P5M_4_fmo_input.F07.006
-rw-r--r-- 1 hazwong frank        0 Dec  7 08:06 /scratch/hazwong/824937/1P5M_4/usrc/1P5M_4_fmo_input.F07.007
-rw-r--r-- 1 hazwong frank        0 Dec  7 08:06 /scratch/hazwong/824937/1P5M_4/usrc/1P5M_4_fmo_input.F07.008
-rw-r--r-- 1 hazwong frank        0 Dec  7 08:06 /scratch/hazwong/824937/1P5M_4/usrc/1P5M_4_fmo_input.F07.009
-rw-r--r-- 1 hazwong frank        0 Dec  7 08:06 /scratch/hazwong/824937/1P5M_4/usrc/1P5M_4_fmo_input.F07.010
-rw-r--r-- 1 hazwong frank        0 Dec  7 08:06 /scratch/hazwong/824937/1P5M_4/usrc/1P5M_4_fmo_input.F07.011
-rw-r--r-- 1 hazwong frank        0 Dec  7 08:06 /scratch/hazwong/824937/1P5M_4/usrc/1P5M_4_fmo_input.F07.012
-rw-r--r-- 1 hazwong frank        0 Dec  7 08:06 /scratch/hazwong/824937/1P5M_4/usrc/1P5M_4_fmo_input.F07.013
-rw-r--r-- 1 hazwong frank        0 Dec  7 08:06 /scratch/hazwong/824937/1P5M_4/usrc/1P5M_4_fmo_input.F07.014
-rw-r--r-- 1 hazwong frank        0 Dec  7 08:06 /scratch/hazwong/824937/1P5M_4/usrc/1P5M_4_fmo_input.F07.015
-rw-r--r-- 1 hazwong frank    65440 Dec  8 02:03 /scratch/hazwong/824937/1P5M_4/usrc/1P5M_4_fmo_input.F10.000
-rw-r--r-- 1 hazwong frank        0 Dec  7 08:06 /scratch/hazwong/824937/1P5M_4/usrc/1P5M_4_fmo_input.F26.000
-rw-r--r-- 1 hazwong frank        0 Dec  7 08:06 /scratch/hazwong/824937/1P5M_4/usrc/1P5M_4_fmo_input.F26.001
-rw-r--r-- 1 hazwong frank        0 Dec  7 08:06 /scratch/hazwong/824937/1P5M_4/usrc/1P5M_4_fmo_input.F26.002
-rw-r--r-- 1 hazwong frank        0 Dec  7 08:06 /scratch/hazwong/824937/1P5M_4/usrc/1P5M_4_fmo_input.F26.003
-rw-r--r-- 1 hazwong frank        0 Dec  7 08:06 /scratch/hazwong/824937/1P5M_4/usrc/1P5M_4_fmo_input.F26.004
-rw-r--r-- 1 hazwong frank        0 Dec  7 08:06 /scratch/hazwong/824937/1P5M_4/usrc/1P5M_4_fmo_input.F26.005
-rw-r--r-- 1 hazwong frank        0 Dec  7 08:06 /scratch/hazwong/824937/1P5M_4/usrc/1P5M_4_fmo_input.F26.006
-rw-r--r-- 1 hazwong frank        0 Dec  7 08:06 /scratch/hazwong/824937/1P5M_4/usrc/1P5M_4_fmo_input.F26.007
-rw-r--r-- 1 hazwong frank        0 Dec  7 08:06 /scratch/hazwong/824937/1P5M_4/usrc/1P5M_4_fmo_input.F26.008
-rw-r--r-- 1 hazwong frank        0 Dec  7 08:06 /scratch/hazwong/824937/1P5M_4/usrc/1P5M_4_fmo_input.F26.009
-rw-r--r-- 1 hazwong frank        0 Dec  7 08:06 /scratch/hazwong/824937/1P5M_4/usrc/1P5M_4_fmo_input.F26.010
-rw-r--r-- 1 hazwong frank        0 Dec  7 08:06 /scratch/hazwong/824937/1P5M_4/usrc/1P5M_4_fmo_input.F26.011
-rw-r--r-- 1 hazwong frank        0 Dec  7 08:06 /scratch/hazwong/824937/1P5M_4/usrc/1P5M_4_fmo_input.F26.012
-rw-r--r-- 1 hazwong frank        0 Dec  7 08:06 /scratch/hazwong/824937/1P5M_4/usrc/1P5M_4_fmo_input.F26.013
-rw-r--r-- 1 hazwong frank        0 Dec  7 08:06 /scratch/hazwong/824937/1P5M_4/usrc/1P5M_4_fmo_input.F26.014
-rw-r--r-- 1 hazwong frank        0 Dec  7 08:06 /scratch/hazwong/824937/1P5M_4/usrc/1P5M_4_fmo_input.F26.015
-rw-r--r-- 1 hazwong frank        0 Dec  7 08:06 /scratch/hazwong/824937/1P5M_4/usrc/1P5M_4_fmo_input.F27.000
-rw-r--r-- 1 hazwong frank        0 Dec  7 08:06 /scratch/hazwong/824937/1P5M_4/usrc/1P5M_4_fmo_input.F27.001
-rw-r--r-- 1 hazwong frank        0 Dec  7 08:06 /scratch/hazwong/824937/1P5M_4/usrc/1P5M_4_fmo_input.F27.002
-rw-r--r-- 1 hazwong frank        0 Dec  7 08:06 /scratch/hazwong/824937/1P5M_4/usrc/1P5M_4_fmo_input.F27.003
-rw-r--r-- 1 hazwong frank        0 Dec  7 08:06 /scratch/hazwong/824937/1P5M_4/usrc/1P5M_4_fmo_input.F27.004
-rw-r--r-- 1 hazwong frank        0 Dec  7 08:06 /scratch/hazwong/824937/1P5M_4/usrc/1P5M_4_fmo_input.F27.005
-rw-r--r-- 1 hazwong frank        0 Dec  7 08:06 /scratch/hazwong/824937/1P5M_4/usrc/1P5M_4_fmo_input.F27.006
-rw-r--r-- 1 hazwong frank        0 Dec  7 08:06 /scratch/hazwong/824937/1P5M_4/usrc/1P5M_4_fmo_input.F27.007
-rw-r--r-- 1 hazwong frank        0 Dec  7 08:06 /scratch/hazwong/824937/1P5M_4/usrc/1P5M_4_fmo_input.F27.008
-rw-r--r-- 1 hazwong frank        0 Dec  7 08:06 /scratch/hazwong/824937/1P5M_4/usrc/1P5M_4_fmo_input.F27.009
-rw-r--r-- 1 hazwong frank        0 Dec  7 08:06 /scratch/hazwong/824937/1P5M_4/usrc/1P5M_4_fmo_input.F27.010
-rw-r--r-- 1 hazwong frank        0 Dec  7 08:06 /scratch/hazwong/824937/1P5M_4/usrc/1P5M_4_fmo_input.F27.011
-rw-r--r-- 1 hazwong frank        0 Dec  7 08:06 /scratch/hazwong/824937/1P5M_4/usrc/1P5M_4_fmo_input.F27.012
-rw-r--r-- 1 hazwong frank        0 Dec  7 08:06 /scratch/hazwong/824937/1P5M_4/usrc/1P5M_4_fmo_input.F27.013
-rw-r--r-- 1 hazwong frank        0 Dec  7 08:06 /scratch/hazwong/824937/1P5M_4/usrc/1P5M_4_fmo_input.F27.014
-rw-r--r-- 1 hazwong frank        0 Dec  7 08:06 /scratch/hazwong/824937/1P5M_4/usrc/1P5M_4_fmo_input.F27.015
-rw-r--r-- 1 hazwong frank 34586624 Dec  7 14:22 /scratch/hazwong/824937/1P5M_4/usrc/1P5M_4_fmo_input.F40.000
-rw-r--r-- 1 hazwong frank 34586624 Dec  7 14:22 /scratch/hazwong/824937/1P5M_4/usrc/1P5M_4_fmo_input.F40.001
-rw-r--r-- 1 hazwong frank 34586624 Dec  7 14:22 /scratch/hazwong/824937/1P5M_4/usrc/1P5M_4_fmo_input.F40.002
-rw-r--r-- 1 hazwong frank 34586624 Dec  7 14:22 /scratch/hazwong/824937/1P5M_4/usrc/1P5M_4_fmo_input.F40.003
-rw-r--r-- 1 hazwong frank 34586624 Dec  7 14:22 /scratch/hazwong/824937/1P5M_4/usrc/1P5M_4_fmo_input.F40.004
-rw-r--r-- 1 hazwong frank 34586624 Dec  7 14:22 /scratch/hazwong/824937/1P5M_4/usrc/1P5M_4_fmo_input.F40.005
-rw-r--r-- 1 hazwong frank 34586624 Dec  7 14:22 /scratch/hazwong/824937/1P5M_4/usrc/1P5M_4_fmo_input.F40.006
-rw-r--r-- 1 hazwong frank 34586624 Dec  7 14:22 /scratch/hazwong/824937/1P5M_4/usrc/1P5M_4_fmo_input.F40.007
-rw-r--r-- 1 hazwong frank 34586624 Dec  7 14:22 /scratch/hazwong/824937/1P5M_4/usrc/1P5M_4_fmo_input.F40.008
-rw-r--r-- 1 hazwong frank 34586624 Dec  7 14:22 /scratch/hazwong/824937/1P5M_4/usrc/1P5M_4_fmo_input.F40.009
-rw-r--r-- 1 hazwong frank 34586624 Dec  7 14:22 /scratch/hazwong/824937/1P5M_4/usrc/1P5M_4_fmo_input.F40.010
-rw-r--r-- 1 hazwong frank 34586624 Dec  7 14:22 /scratch/hazwong/824937/1P5M_4/usrc/1P5M_4_fmo_input.F40.011
-rw-r--r-- 1 hazwong frank 34586624 Dec  7 14:22 /scratch/hazwong/824937/1P5M_4/usrc/1P5M_4_fmo_input.F40.012
-rw-r--r-- 1 hazwong frank 34586624 Dec  7 14:22 /scratch/hazwong/824937/1P5M_4/usrc/1P5M_4_fmo_input.F40.013
-rw-r--r-- 1 hazwong frank 34586624 Dec  7 14:22 /scratch/hazwong/824937/1P5M_4/usrc/1P5M_4_fmo_input.F40.014
-rw-r--r-- 1 hazwong frank 34586624 Dec  7 14:22 /scratch/hazwong/824937/1P5M_4/usrc/1P5M_4_fmo_input.F40.015
ls: No match.
ls: No match.
ls: No match.
Sun Dec  8 02:03:37 EST 2019
0.189u 0.110s 17:57:01.27 0.0%	0+0k 2000+184io 31pf+0w
