‘EXP_6_fmo_input.inp’ -> ‘/scratch/hazwong/824334/./EXP_6_fmo_input.inp’
‘rungms’ -> ‘/scratch/hazwong/824334/./rungms’
‘gms-files.csh’ -> ‘/scratch/hazwong/824334/./gms-files.csh’
----- GAMESS execution script 'rungms' -----
This job is running on host gollum087.lsa.umich.edu
under operating system Linux at Sun Dec 8 02:58:56 EST 2019
Available scratch disk space (Kbyte units) at beginning of the job is
Filesystem     1K-blocks   Used Available Use% Mounted on
/dev/sda4      426933580 590508 426343072   1% /scratch
GAMESS temporary binary files will be written to /scratch/hazwong/824334/EXP_6/usrc
GAMESS supplementary output files will be written to /scratch/hazwong/824334/EXP_6/src
Copying input file EXP_6_fmo_input.inp to your run's scratch directory...
cp EXP_6_fmo_input.inp /scratch/hazwong/824334/EXP_6/usrc/EXP_6_fmo_input.F05
unset echo
This is a GDDI run, keeping various output files on local disks
setenv OUTPUT /scratch/hazwong/824334/EXP_6/usrc/EXP_6_fmo_input.F06
setenv PUNCH /scratch/hazwong/824334/EXP_6/usrc/EXP_6_fmo_input.F07
unset echo
 
Assuming a single but multicore node.
 
/export/apps/CentOS7/gamess/src/build//ddikick.x /export/apps/CentOS7/gamess/src/build//gamess.R3.x EXP_6_fmo_input -ddi 1 16 gollum087.lsa.umich.edu:cpus=16 -scr /scratch/hazwong/824334/EXP_6/usrc

 Distributed Data Interface kickoff program.
 Initiating 16 compute processes on 1 nodes to run the following command:
 /export/apps/CentOS7/gamess/src/build//gamess.R3.x EXP_6_fmo_input 

          ******************************************************
          *         GAMESS VERSION = 30 SEP 2018 (R3)         *
          *             FROM IOWA STATE UNIVERSITY             *
          * M.W.SCHMIDT, K.K.BALDRIDGE, J.A.BOATZ, S.T.ELBERT, *
          *   M.S.GORDON, J.H.JENSEN, S.KOSEKI, N.MATSUNAGA,   *
          *          K.A.NGUYEN, S.J.SU, T.L.WINDUS,           *
          *       TOGETHER WITH M.DUPUIS, J.A.MONTGOMERY       *
          *         J.COMPUT.CHEM.  14, 1347-1363(1993)        *
          **************** 64 BIT LINUX VERSION ****************

  SINCE 1993, STUDENTS AND POSTDOCS WORKING AT IOWA STATE UNIVERSITY
  AND ALSO IN THEIR VARIOUS JOBS AFTER LEAVING ISU HAVE MADE IMPORTANT
  CONTRIBUTIONS TO THE CODE:
     IVANA ADAMOVIC, CHRISTINE AIKENS, YURI ALEXEEV, POOJA ARORA,
     ANDREY ASADCHEV, ROB BELL, PRADIPTA BANDYOPADHYAY, JONATHAN BENTZ,
     BRETT BODE, KURT BRORSEN, CALEB CARLIN, GALINA CHABAN, WEI CHEN,
     CHEOL HO CHOI, PAUL DAY, ALBERT DEFUSCO, NUWAN DESILVA, TIM DUDLEY,
     DMITRI FEDOROV, ALEX FINDLATER, GRAHAM FLETCHER, MARK FREITAG,
     KURT GLAESEMANN, ANASTASIA GUNINA,
     DAN KEMP, GRANT MERRILL, NORIYUKI MINEZAWA, JONATHAN MULLIN,
     TAKESHI NAGATA, SEAN NEDD, HEATHER NETZLOFF, BOSILJKA NJEGIC, RYAN OLSON,
     MIKE PAK, BUU PHAM,
     SPENCER PRUITT, LUKE ROSKOP, JIM SHOEMAKER, LYUDMILA SLIPCHENKO,
     TONY SMITH, SAROM SOK LEANG, JIE SONG, TETSUYA TAKETSUGU, SIMON WEBB,
     PENG XU, SOOHAENG YOO, FEDERICO ZAHARIEV

  ADDITIONAL CODE HAS BEEN PROVIDED BY COLLABORATORS IN OTHER GROUPS:
     IOWA STATE UNIVERSITY:
          JOE IVANIC, AARON WEST, LAIMUTIS BYTAUTAS, KLAUS RUEDENBERG
     UNIVERSITY OF TOKYO: KIMIHIKO HIRAO, TAKAHITO NAKAJIMA,
          TAKAO TSUNEDA, MUNEAKI KAMIYA, SUSUMU YANAGISAWA,
          KIYOSHI YAGI, MAHITO CHIBA, SEIKEN TOKURA, NAOAKI KAWAKAMI
     UNIVERSITY OF AARHUS: FRANK JENSEN
     UNIVERSITY OF IOWA: VISVALDAS KAIRYS, HUI LI
     NATIONAL INST. OF STANDARDS AND TECHNOLOGY: WALT STEVENS, DAVID GARMER
     UNIVERSITY OF PISA: BENEDETTA MENNUCCI, JACOPO TOMASI
     UNIVERSITY OF MEMPHIS: HENRY KURTZ, PRAKASHAN KORAMBATH
     UNIVERSITY OF ALBERTA: TOBY ZENG, MARIUSZ KLOBUKOWSKI
     UNIVERSITY OF NEW ENGLAND: MARK SPACKMAN
     MIE UNIVERSITY: HIROAKI UMEDA
     NAT. INST. OF ADVANCED INDUSTRIAL SCIENCE AND TECHNOLOGY: KAZUO KITAURA
     MICHIGAN STATE UNIVERSITY:
          KAROL KOWALSKI, MARTA WLOCH, JEFFREY GOUR, JESSE LUTZ,
          WEI LI, JUN SHEN, J. EMILIANO DEUSTUA, PIOTR PIECUCH
     UNIVERSITY OF MINNESOTA:
          YINAN SHU
     UNIVERSITY OF SILESIA: MONIKA MUSIAL, STANISLAW KUCHARSKI
     FACULTES UNIVERSITAIRES NOTRE-DAME DE LA PAIX:
          OLIVIER QUINET, BENOIT CHAMPAGNE
     UNIVERSITY OF CALIFORNIA - SANTA BARBARA: BERNARD KIRTMAN
     INSTITUTE FOR MOLECULAR SCIENCE:
          KAZUYA ISHIMURA, MICHIO KATOUDA, AND SHIGERU NAGASE
     UNIVERSITY OF NOTRE DAME: ANNA POMOGAEVA, DAN CHIPMAN
     KYUSHU UNIVERSITY:
          HARUYUKI NAKANO,
          FENG LONG GU, JACEK KORCHOWIEC, MARCIN MAKOWSKI, AND YURIKO AOKI,
          HIROTOSHI MORI AND EISAKU MIYOSHI
     PENNSYLVANIA STATE UNIVERSITY:
          TZVETELIN IORDANOV, CHET SWALINA, JONATHAN SKONE,
          SHARON HAMMES-SCHIFFER
     WASEDA UNIVERSITY:
          MASATO KOBAYASHI, TOMOKO AKAMA, TSUGUKI TOUMA,
          TAKESHI YOSHIKAWA, YASUHIRO IKABATA, JUNJI SEINO,
          YUYA NAKAJIMA, HIROMI NAKAI
     NANJING UNIVERSITY: SHUHUA LI
     UNIVERSITY OF NEBRASKA:
          PEIFENG SU, DEJUN SI, NANDUN THELLAMUREGE, YALI WANG, HUI LI
     UNIVERSITY OF ZURICH: ROBERTO PEVERATI, KIM BALDRIDGE
     N. COPERNICUS UNIVERSITY AND JACKSON STATE UNIVERSITY:
          MARIA BARYSZ
     UNIVERSITY OF COPENHAGEN: Jimmy Kromann, CASPER STEINMANN
     TOKYO INSTITUTE OF TECHNOLOGY: HIROYA NAKATA
     NAGOYA UNIVERSITY: YOSHIO NISHIMOTO, STEPHAN IRLE
     MOSCOW STATE UNIVERSITY: VLADIMIR MIRONOV


 PARALLEL VERSION RUNNING ON       16 PROCESSORS IN        1 NODES.

 EXECUTION OF GAMESS BEGUN Sun Dec  8 02:58:56 2019

            ECHO OF THE FIRST FEW INPUT CARDS -
 INPUT CARD>!*** FMO 5.3 (Gamess) INPUT generated by Facio 22.1.1.32 ***                    
 INPUT CARD> $CONTRL RUNTYP=ENERGY NPRINT=-5 ISPHER=1 MAXIT=200 $END                        
 INPUT CARD> $SYSTEM MWORDS=63 MEMDDI=63 $END                                               
 INPUT CARD> $GDDI NGROUP=1 $END                                                            
 INPUT CARD> $SCF DIRSCF=.TRUE. NPUNCH=0 $END                                               
 INPUT CARD>!*** NumCPU : 2  MemPerNode : 512MB                                             
 INPUT CARD> $PCM SOLVNT=WATER IEF=-10 ICOMP=2 ICAV=1 IDISP=1 IFMO=-1 $END                  
 INPUT CARD> $PCMCAV RADII=SUAHF $END                                                       
 INPUT CARD> $TESCAV NTSALL=60 $END                                                         
 INPUT CARD> $FMOPRP                                                                        
 INPUT CARD>    NAODIR=200                                                                  
 INPUT CARD>    NGRFMO(1)=1, 1, 0, 0, 0,   0, 0, 0, 0, 0                                    
 INPUT CARD>    IPIEDA=1                                                                    
 INPUT CARD>    NPRINT=9                                                                    
 INPUT CARD> $END                                                                           
 INPUT CARD> $FMO                                                                           
 INPUT CARD>      SCFTYP(1)=RHF                                                             
 INPUT CARD>      MODGRD=10                                                                 
 INPUT CARD>      MODMUL=0                                                                  
 INPUT CARD>      MAXCAO=5                                                                  
 INPUT CARD>      MAXBND=15                                                                 
 INPUT CARD>      NLAYER=1                                                                  
 INPUT CARD>      MPLEVL(1)=2                                                               
 INPUT CARD>      NFRAG=13                                                                  
 INPUT CARD>      ICHARG(1)=-1, -1, -1, -1, -1, 0, -1, -1, -1, -1, -1, -1, 0                
 INPUT CARD>      FRGNAM(1)=F1, F2, F3, F4, F5, F6, F7, F8, F9, F10, F11, F12, F13          
 INPUT CARD>      indat(1)=0                                                                
 INPUT CARD>               1   -33   0                                                      
 INPUT CARD>               34   -67   0                                                     
 INPUT CARD>               68   -101   0                                                    
 INPUT CARD>               102   -135   0                                                   
 INPUT CARD>               136   -169   0                                                   
 INPUT CARD>               170   -202   0                                                   
 INPUT CARD>               203   -233   0                                                   
 INPUT CARD>               234   -264   0                                                   
 INPUT CARD>               265   -294   0                                                   
 INPUT CARD>               295   -327   0                                                   
 INPUT CARD>               328   -357   0                                                   
 INPUT CARD>               358   -388   0                                                   
 INPUT CARD>               389   -419   0                                                   
 INPUT CARD> $END                                                                           
 INPUT CARD>                                                                                
 INPUT CARD> $FMOBND                                                                        
 INPUT CARD>   -34   33       6-31G*    MINI                                                
 INPUT CARD>   -68   67       6-31G*    MINI                                                
 INPUT CARD>   -102   101       6-31G*    MINI                                              
 INPUT CARD>   -136   135       6-31G*    MINI                                              
 INPUT CARD>   -170   169       6-31G*    MINI                                              
 INPUT CARD>   -203   202       6-31G*    MINI                                              
 INPUT CARD>   -234   233       6-31G*    MINI                                              


 -------------------------------------------------------------
 GROUP DDI, PROGRAMMED BY: RYAN M. OLSON AND DMITRI G. FEDOROV
        FEDOROV ET AL., J. COMPUT. CHEM., 25 (2004) 872.
 -------------------------------------------------------------

 -------------------------------------------------------
 GDDI: INITIALIZATION COMPLETED FOR GROUP     1 OF     1
 WITH    16 PROCESSES BALTYP=DLB   global rank=        0
 -------------------------------------------------------

   63000000 WORDS OF MEMORY AVAILABLE


     RUN TITLE
     ---------
  FMO calculation                                                                

 THE POINT GROUP OF THE MOLECULE IS C1      
 THE ORDER OF THE PRINCIPAL AXIS IS     0

 ATOM   ATOMIC CHARGE
 H.1-1       1.0
 O.1-1       8.0
 C.1-1       6.0
 N.1-1       7.0
 P.1-1      15.0

     ATOMIC BASIS SET LIBRARY
     ----------------
 THE CONTRACTED PRIMITIVE FUNCTIONS HAVE BEEN UNNORMALIZED
 THE CONTRACTED BASIS FUNCTIONS ARE NOW NORMALIZED TO UNITY

  SHELL TYPE  PRIMITIVE        EXPONENT          CONTRACTION COEFFICIENT(S)

 H.1-1     

      1   S       1            18.7311370    0.033494604338
      1   S       2             2.8253944    0.234726953484
      1   S       3             0.6401217    0.813757326146

      2   S       4             0.1612778    1.000000000000

 O.1-1     

      3   S       5          5484.6716600    0.001831074430
      3   S       6           825.2349460    0.013950172200
      3   S       7           188.0469580    0.068445078098
      3   S       8            52.9645000    0.232714335992
      3   S       9            16.8975704    0.470192897984
      3   S      10             5.7996353    0.358520852987

      4   L      11            15.5396162   -0.110777549525    0.070874268231
      4   L      12             3.5999336   -0.148026262701    0.339752839147
      4   L      13             1.0137618    1.130767015354    0.727158577316

      5   L      14             0.2700058    1.000000000000    1.000000000000

      6   D      15             0.8000000    1.000000000000

 C.1-1     

      7   S      16          3047.5248800    0.001834737132
      7   S      17           457.3695180    0.014037322813
      7   S      18           103.9486850    0.068842622264
      7   S      19            29.2101553    0.232184443216
      7   S      20             9.2866630    0.467941348435
      7   S      21             3.1639270    0.362311985337

      8   L      22             7.8682723   -0.119332419775    0.068999066591
      8   L      23             1.8812885   -0.160854151696    0.316423960957
      8   L      24             0.5442493    1.143456437840    0.744308290898

      9   L      25             0.1687145    1.000000000000    1.000000000000

     10   D      26             0.8000000    1.000000000000

 N.1-1     

     11   S      27          4173.5114600    0.001834772160
     11   S      28           627.4579110    0.013994627002
     11   S      29           142.9020930    0.068586551812
     11   S      30            40.2343293    0.232240873040
     11   S      31            12.8202129    0.469069948082
     11   S      32             4.3904370    0.360455199063

     12   L      33            11.6263619   -0.114961181702    0.067579743878
     12   L      34             2.7162798   -0.169117478561    0.323907295893
     12   L      35             0.7722184    1.145851947027    0.740895139755

     13   L      36             0.2120315    1.000000000000    1.000000000000

     14   D      37             0.8000000    1.000000000000

 P.1-1     

     15   S      38         19413.3000000    0.001851598923
     15   S      39          2909.4200000    0.014206191735
     15   S      40           661.3640000    0.069999459277
     15   S      41           185.7590000    0.240078860331
     15   S      42            59.1943000    0.484761717984
     15   S      43            20.0310000    0.335199804993

     16   L      44           339.4780000   -0.002782170105    0.004564616191
     16   L      45            81.0101000   -0.036049901354    0.033693571881
     16   L      46            25.8780000   -0.116631004382    0.139754883368
     16   L      47             9.4522100    0.096832803638    0.339361716786
     16   L      48             3.6656600    0.614418023082    0.450920623685
     16   L      49             1.4674600    0.403798015170    0.238585800889

     17   L      50             2.1562300   -0.252924113863   -0.017765312733
     17   L      51             0.7489970    0.032851844678    0.274058196433
     17   L      52             0.2831450    1.081254761783    0.785421562957

     18   L      53             0.0998317    1.000000000000    1.000000000000

     19   D      54             0.5500000    1.000000000000

 TOTAL NUMBER OF BASIS SET SHELLS             =   19
 NUMBER OF CARTESIAN GAUSSIAN BASIS FUNCTIONS =   66

     $CONTRL OPTIONS
     ---------------
 SCFTYP=RHF          RUNTYP=ENERGY       EXETYP=RUN     
 MPLEVL=       0     CITYP =NONE         CCTYP =NONE         VBTYP =NONE    
 DFTTYP=NONE         TDDFT =NONE    
 MULT  =       1     ICHARG=       0     NZVAR =       0     COORD =UNIQUE  
 PP    =NONE         RELWFN=NONE         LOCAL =NONE         NUMGRD=       F
 ISPHER=       1     NOSYM =       0     MAXIT =     200     UNITS =ANGS    
 PLTORB=       F     MOLPLT=       F     AIMPAC=       F     FRIEND=        
 NPRINT=      -5     IREST =       0     GEOM  =INPUT   
 NORMF =       0     NORMP =       0     ITOL  =      24     ICUT  =      12
 INTTYP=BEST         GRDTYP=BEST         QMTTOL= 1.0E-06

     $SYSTEM OPTIONS
     ---------------
  REPLICATED MEMORY=    63000000 WORDS (ON EVERY NODE).
 DISTRIBUTED MEMDDI=          63 MILLION WORDS IN AGGREGATE,
 MEMDDI DISTRIBUTED OVER  16 PROCESSORS IS     3937500 WORDS/PROCESSOR.
 TOTAL MEMORY REQUESTED ON EACH PROCESSOR=    66937500 WORDS.
 TIMLIM=      525600.00 MINUTES, OR     365.0 DAYS.
 PARALL= T  BALTYP=  DLB     KDIAG=    0  COREFL= F
 MXSEQ2=     300 MXSEQ3=     150  mem10=         0

 ** LOOKING UP INTERNALLY STORED DATA FOR SOLVENT=WATER    **
 OPTICAL AND PHYSICAL CONSTANTS:
 EPS= 78.390; EPSINF=  1.776; RSOLV=  1.385 A; VMOL=  18.070 ML/MOL;
 TCE= .25700E-03 1/K; STEN= 71.810 DYN/CM;  DSTEN=  0.6500; CMF=  1.2770


     -----------------------------------
     INPUT FOR PCM SOLVATION CALCULATION 
     -----------------------------------
     IEF   =     -10
     ICOMP =       2     IFIELD=       0     ICAV  =       1
     IDISP =       1     IREP  =       0     IDP   =       0

     SOLVNT=WATER        EPS   = 78.3900     EPSINF=  1.7760
     VMOL  = 18.0700     TCE   =  0.00025700 STEN  = 71.8100
     DSTEN =  0.6500     CMF   =  1.2770     RSOLV =  1.3850

     NESFP =       0
     OMEGA = 40.0000     RET   =100.0000     FRO   =  0.7000

     TABS  =298.0000     IPRINT=       0

     --------------------------------
     INPUT FOR ITERATIVE C-PCM METHOD 
     --------------------------------
     IPCMIT  =         1     MXDIIS  =        50
     MXITR1  =       200     MXITR2  =       200
     THRES   = 0.100E-09     IMUL    =         3
     RCUT(1) =   20.0000     RCUT(2) =   50.0000

     IDIRCT  =         1
     IMGABI  =         0     RABI    =    4.0000
     IMGASC  =         0     RASC    =   20.0000
     THRSLS  = 0.500E-03     DENSLS  =    0.0100
     IEFPOL  =         1     REFPOL  =    0.0000

     INPUT FOR ISOTROPIC DIELECTRICS
     -------------------------------
     EPS=    78.39

          ----------------
          PROPERTIES INPUT
          ----------------

     MOMENTS            FIELD           POTENTIAL          DENSITY
 IEMOM =       1   IEFLD =       0   IEPOT =       0   IEDEN =       0
 WHERE =COMASS     WHERE =NUCLEI     WHERE =NUCLEI     WHERE =NUCLEI  
 OUTPUT=BOTH       OUTPUT=BOTH       OUTPUT=NONE       OUTPUT=BOTH    
 IEMINT=       0   IEFINT=       0                     IEDINT=       0
                                                       MORB  =       0
          EXTRAPOLATION IN EFFECT
          SOSCF IN EFFECT
 ORBITAL PRINTING OPTION: NPREO=     1 32767     2     1

     -------------------------------
     INTEGRAL TRANSFORMATION OPTIONS
     -------------------------------
     NWORD  =            0
     CUTOFF = 1.0E-10     MPTRAN =       0
     DIRTRF =       T     AOINTS =DUP     

          ----------------------
          INTEGRAL INPUT OPTIONS
          ----------------------
 NOPK  =       1 NORDER=       0 SCHWRZ=       T

 ..... DONE SETTING UP THE RUN .....
 CPU     0: STEP CPU TIME=     0.05 TOTAL CPU TIME=          0.0 (      0.0 MIN)
 TOTAL WALL CLOCK TIME=          0.1 SECONDS, CPU UTILIZATION IS    71.43%
 CPU     0: STEP CPU TIME=     0.00 TOTAL CPU TIME=          0.0 (      0.0 MIN)
 TOTAL WALL CLOCK TIME=          0.1 SECONDS, CPU UTILIZATION IS    71.43%

                    ----------------------
                    AO INTEGRAL TECHNOLOGY
                    ----------------------
     S,P,L SHELL ROTATED AXIS INTEGRALS, REPROGRAMMED BY
        KAZUYA ISHIMURA (IMS) AND JOSE SIERRA (SYNSTAR).
     S,P,D,L SHELL ROTATED AXIS INTEGRALS PROGRAMMED BY
        KAZUYA ISHIMURA (INSTITUTE FOR MOLECULAR SCIENCE).
     S,P,D,F,G SHELL TO TOTAL QUARTET ANGULAR MOMENTUM SUM 5,
        ERIC PROGRAM BY GRAHAM FLETCHER (ELORET AND NASA ADVANCED
        SUPERCOMPUTING DIVISION, AMES RESEARCH CENTER).
     S,P,D,F,G,L SHELL GENERAL RYS QUADRATURE PROGRAMMED BY
        MICHEL DUPUIS (PACIFIC NORTHWEST NATIONAL LABORATORY).
 Setting modorb=1 flag...
 Setting modorb=1 flag...

          -----------------------
          MP2 CONTROL INFORMATION
          -----------------------
          NACORE =        8  NBCORE =        8
          LMOMP2 =        F  AOINTS = DUP     
          METHOD =        2  NWORD  =               0
          MP2PRP =        F  OSPT   = NONE    
          CUTOFF = 1.00E-12  CPHFBS = BASISAO 
          CODE   = IMS     

          NUMBER OF CORE -A-  ORBITALS =     8
          NUMBER OF CORE -B-  ORBITALS =     8
          NUMBER OF OCC. -A-  ORBITALS =    18
          NUMBER OF OCC. -B-  ORBITALS =    18
          NUMBER OF MOLECULAR ORBITALS =    66
          NUMBER OF   BASIS  FUNCTIONS =    66

 CPU     0: STEP CPU TIME=     0.03 TOTAL CPU TIME=          0.1 (      0.0 MIN)
 TOTAL WALL CLOCK TIME=          0.1 SECONDS, CPU UTILIZATION IS    72.73%
 CPU     0: STEP CPU TIME=     0.00 TOTAL CPU TIME=          0.1 (      0.0 MIN)
 TOTAL WALL CLOCK TIME=          0.1 SECONDS, CPU UTILIZATION IS    72.73%

     INPUT FOR CAVITY DEFINITION 
     ---------------------------
   ATOM               COORDINATES                RADIUS       EPS
      1     10.5470     12.6440     -9.7010      0.0100     78.3900
      2      9.5810     12.7640     -9.6240      1.5900     78.3900
      3      9.3640     14.1330     -9.2560      1.7700     78.3900
      4      9.7040     14.7930    -10.0870      0.0100     78.3900
      5      9.9840     14.3680     -8.3630      0.0100     78.3900
      6      7.8980     14.4320     -8.9350      1.7700     78.3900
      7      7.7970     15.3360     -8.2990      0.0100     78.3900
      8      7.1830     14.6880    -10.1820      1.5900     78.3900
      9      5.8500     14.2300    -10.0550      1.7700     78.3900
     10      5.2170     15.1450    -10.1510      0.0100     78.3900
     11      5.4560     13.2480    -11.0830      1.6800     78.3900
     12      6.3780     12.3230    -11.4950      1.7700     78.3900
     13      7.3850     12.4290    -11.0790      0.0100     78.3900
     14      6.0640     11.3940    -12.4050      1.7700     78.3900
     15      6.7900     10.6720    -12.7700      0.0100     78.3900
     16      4.1410     13.1820    -11.5420      1.7700     78.3900
     17      3.3050     13.9970    -11.1190      1.5900     78.3900
     18      3.7980     12.2390    -12.4510      1.6800     78.3900
     19      4.7220     11.3590    -12.8860      1.7700     78.3900
     20      4.3780     10.4340    -13.7830      1.6800     78.3900
     21      3.4480     10.3670    -14.1460      0.0100     78.3900
     22      5.0420      9.7600    -14.1080      0.0100     78.3900
     23      5.7000     13.6520     -8.6770      1.7700     78.3900
     24      5.1030     12.7180     -8.6810      0.0100     78.3900
     25      5.1190     14.6300     -7.8410      1.5900     78.3900
     26      4.2040     14.3330     -7.6970      0.0100     78.3900
     27      7.1200     13.2840     -8.2800      1.7700     78.3900
     28      7.4050     12.3330     -8.7870      0.0100     78.3900
     29      7.3710     13.2350     -6.8540      1.5900     78.3900
     30      6.9400     11.9510     -6.0350      2.1000     78.3900
     31      7.2700     12.1900     -4.6120      1.5900     78.3900
     32      7.5660     10.7650     -6.6570      1.5900     78.3900
     33      5.3760     11.8080     -6.1890      1.5900     78.3900
     34      4.4820     12.7630     -5.5600      1.7700     78.3900
     35      4.8880     13.7990     -5.5920      0.0100     78.3900
     36      4.3570     12.5160     -4.4840      0.0100     78.3900
     37      3.0680     12.7660     -6.1800      1.7700     78.3900
     38      2.4980     13.6680     -5.8720      0.0100     78.3900
     39      3.0930     12.7240     -7.6340      1.5900     78.3900
     40      1.9650     12.0430     -8.1190      1.7700     78.3900
     41      1.3490     12.8120     -8.6360      0.0100     78.3900
     42      2.2740     10.9890     -9.0930      1.6800     78.3900
     43      1.3450     10.4170     -9.9200      1.7700     78.3900
     44     -1.9350     10.1100    -10.9720      1.6800     78.3900
     45     -2.3970     10.8520    -10.4930      0.0100     78.3900
     46     -2.4750      9.5240    -11.5850      0.0100     78.3900
     47      0.0380     10.7340     -9.9710      1.6800     78.3900
     48     -0.6350      9.9600    -10.8130      1.7700     78.3900
     49     -0.0390      9.0020    -11.5880      1.6800     78.3900
     50     -0.6350      8.4730    -12.2070      0.0100     78.3900
     51      1.3110      8.6740    -11.5830      1.7700     78.3900
     52      1.7530      7.7980    -12.3300      1.5900     78.3900
     53      2.0330      9.4680    -10.6520      1.7700     78.3900
     54      3.3760      9.4410    -10.2870      1.6800     78.3900
     55      3.4720     10.3610     -9.3510      1.7700     78.3900
     56      4.3830     10.6210     -8.8050      0.0100     78.3900
     57      1.2250     11.5030     -6.9260      1.7700     78.3900
     58      0.9360     10.4470     -7.0770      0.0100     78.3900
     59      0.0960     12.3180     -6.6730      1.5900     78.3900
     60     -0.5600     12.2020     -7.3760      0.0100     78.3900
     61      2.2540     11.5530     -5.7990      1.7700     78.3900
     62      2.9590     10.6940     -5.8670      0.0100     78.3900
     63      1.7230     11.7240     -4.4700      1.5900     78.3900
     64      0.9620     10.5630     -3.7360      2.1000     78.3900
     65      1.0700     10.8000     -2.2810      1.5900     78.3900
     66      1.4770      9.2600     -4.2260      1.5900     78.3900
     67     -0.5550     10.6750     -4.1120      1.5900     78.3900
     68     -1.4270     11.7590     -3.7510      1.7700     78.3900
     69     -1.0180     12.7300     -4.1050      0.0100     78.3900
     70     -1.5120     11.8120     -2.6430      0.0100     78.3900
     71     -2.8550     11.5730     -4.3210      1.7700     78.3900
     72     -3.5250     12.3890     -3.9690      0.0100     78.3900
     73     -2.8520     11.6430     -5.7830      1.5900     78.3900
     74     -3.5380     10.5200     -6.3340      1.7700     78.3900
     75     -4.2120     10.8960     -7.1400      0.0100     78.3900
     76     -2.5980      9.5320     -6.9070      1.6800     78.3900
     77     -2.8490      8.4710     -7.7270      1.7700     78.3900
     78     -5.0180      6.5360     -9.5890      1.6800     78.3900
     79     -5.9070      6.9480     -9.4050      0.0100     78.3900
     80     -4.9540      5.7580    -10.2100      0.0100     78.3900
     81     -4.0450      8.1120     -8.2080      1.6800     78.3900
     82     -3.9530      7.0510     -9.0060      1.7700     78.3900
     83     -2.7730      6.4200     -9.2940      1.6800     78.3900
     84     -2.8080      5.6560     -9.9470      0.0100     78.3900
     85     -1.5220      6.7910     -8.8450      1.7700     78.3900
     86     -0.4930      6.2020     -9.1920      1.5900     78.3900
     87     -1.6120      7.8880     -7.9720      1.7700     78.3900
     88     -0.6170      8.5470     -7.3100      1.6800     78.3900
     89     -1.2560      9.5040     -6.6980      1.7700     78.3900
     90     -0.7970     10.2950     -6.1410      0.0100     78.3900
     91     -4.3640      9.9220     -5.2220      1.7700     78.3900
     92     -4.4900      8.8350     -5.3610      0.0100     78.3900
     93     -5.6380     10.5420     -5.1540      1.5900     78.3900
     94     -5.5240     11.4210     -4.7630      0.0100     78.3900
     95     -3.5020     10.2150     -3.9900      1.7700     78.3900
     96     -2.6780      9.4670     -3.9290      0.0100     78.3900
     97     -4.2350     10.3270     -2.7620      1.5900     78.3900
     98     -4.2060      9.2580     -1.6180      2.1000     78.3900
     99     -5.1290      9.7100     -0.5550      1.5900     78.3900
    100     -2.8140      8.9950     -1.2010      1.5900     78.3900
    101     -4.7850      7.9420     -2.2510      1.5900     78.3900
    102     -6.0760      7.8950     -2.9050      1.7700     78.3900
    103     -6.2900      8.8330     -3.4630      0.0100     78.3900
    104     -6.8830      7.7770     -2.1490      0.0100     78.3900
    105     -6.1760      6.7320     -3.9110      1.7700     78.3900
    106     -7.0290      6.8950     -4.6080      0.0100     78.3900
    107     -4.9630      6.6900     -4.7100      1.5900     78.3900
    108     -4.5490      5.3710     -4.9120      1.7700     78.3900
    109     -4.8900      5.1230     -5.9440      0.0100     78.3900
    110     -3.0980      5.2020     -4.8320      1.6800     78.3900
    111     -2.3960      4.0950     -5.2340      1.7700     78.3900
    112     -2.3220      0.8580     -6.4660      1.6800     78.3900
    113     -3.2790      0.6550     -6.6550      0.0100     78.3900
    114     -1.6400      0.1370     -6.5580      0.0100     78.3900
    115     -2.9100      2.9910     -5.8140      1.6800     78.3900
    116     -2.0050      2.0410     -5.9640      1.7700     78.3900
    117     -0.6870      2.2060     -5.6470      1.6800     78.3900
    118     -0.0790      1.4330     -5.8410      0.0100     78.3900
    119     -0.1040      3.3490     -5.1330      1.7700     78.3900
    120      1.1120      3.3940     -4.9110      1.5900     78.3900
    121     -1.0800      4.3520     -4.8940      1.7700     78.3900
    122     -0.9570      5.6040     -4.3080      1.6800     78.3900
    123     -2.1840      6.0740     -4.2970      1.7700     78.3900
    124     -2.4940      7.0500     -3.9180      0.0100     78.3900
    125     -5.2170      4.4950     -3.8960      1.7700     78.3900
    126     -4.5290      4.1320     -3.0960      0.0100     78.3900
    127     -5.7560      3.4290     -4.6230      1.5900     78.3900
    128     -6.7120      3.5580     -4.6530      0.0100     78.3900
    129     -6.3150      5.3520     -3.2670      1.7700     78.3900
    130     -6.0570      5.5250     -2.1960      0.0100     78.3900
    131     -7.6650      4.8450     -3.4040      1.5900     78.3900
    132     -8.2370      3.7790     -2.3880      2.1000     78.3900
    133     -9.7110      3.8040     -2.5120      1.5900     78.3900
    134     -7.7020      4.0020     -1.0250      1.5900     78.3900
    135     -7.7040      2.3900     -2.9130      1.5900     78.3900
    136     -8.2780      1.7370     -4.0680      1.7700     78.3900
    137     -8.2160      2.3840     -4.9740      0.0100     78.3900
    138     -9.3550      1.5130     -3.8900      0.0100     78.3900
    139     -7.5800      0.4000     -4.3750      1.7700     78.3900
    140     -8.1990     -0.2260     -5.0480      0.0100     78.3900
    141     -6.3120      0.6300     -5.0630      1.5900     78.3900
    142     -5.3680     -0.3570     -4.6640      1.7700     78.3900
    143     -5.0240     -0.8720     -5.5930      0.0100     78.3900
    144     -4.1990      0.1990     -3.9710      1.6800     78.3900
    145     -2.9610     -0.3760     -3.8550      1.7700     78.3900
    146     -0.7830     -2.9880     -4.5000      1.6800     78.3900
    147     -1.3570     -3.6640     -4.9550      0.0100     78.3900
    148      0.1780     -3.2210     -4.3160      0.0100     78.3900
    149     -2.5890     -1.5600     -4.3660      1.6800     78.3900
    150     -1.3120     -1.8400     -4.1160      1.7700     78.3900
    151     -0.4760     -0.9920     -3.4380      1.6800     78.3900
    152      0.4970     -1.2460     -3.3680      0.0100     78.3900
    153     -0.8180      0.2610     -2.9520      1.7700     78.3900
    154      0.0130      0.9860     -2.3970      1.5900     78.3900
    155     -2.1950      0.5350     -3.1520      1.7700     78.3900
    156     -2.9560      1.6290     -2.7720      1.6800     78.3900
    157     -4.1420      1.3730     -3.2760      1.7700     78.3900
    158     -5.0370      1.9720     -3.1500      0.0100     78.3900
    159     -6.0990     -1.3160     -3.7830      1.7700     78.3900
    160     -5.4570     -1.6960     -2.9660      0.0100     78.3900
    161     -6.6080     -2.3780     -4.5740      1.5900     78.3900
    162     -5.9240     -3.0650     -4.5920      0.0100     78.3900
    163     -7.1840     -0.4470     -3.1680      1.7700     78.3900
    164     -6.7450      0.2400     -2.4100      0.0100     78.3900
    165     -8.3180     -1.1770     -2.6580      1.5900     78.3900
    166     -8.2050     -1.8560     -1.2370      2.1000     78.3900
    167     -9.4600     -2.6000     -0.9810      1.5900     78.3900
    168     -7.8600     -0.8150     -0.2450      1.5900     78.3900
    169     -7.0010     -2.8800     -1.3140      1.5900     78.3900
    170     -7.1350     -4.1030     -2.0790      1.7700     78.3900
    171     -7.6650     -3.9340     -3.0440      0.0100     78.3900
    172     -7.7590     -4.8340     -1.5130      0.0100     78.3900
    173     -5.7770     -4.7810     -2.3930      1.7700     78.3900
    174     -5.9150     -5.5420     -3.1930      0.0100     78.3900
    175     -4.7570     -3.8550     -2.8600      1.5900     78.3900
    176     -3.4770     -4.2850     -2.4180      1.7700     78.3900
    177     -2.8810     -4.4740     -3.3400      0.0100     78.3900
    178     -2.7770     -3.2680     -1.6050      1.6800     78.3900
    179     -1.4410     -3.2930     -1.2800      1.7700     78.3900
    180      1.6790     -4.8040     -1.4750      1.6800     78.3900
    181      1.5130     -5.5250     -2.1430      0.0100     78.3900
    182      2.6250     -4.5730     -1.2430      0.0100     78.3900
    183     -0.5570     -4.2380     -1.6480      1.6800     78.3900
    184      0.6810     -3.9710     -1.2370      1.7700     78.3900
    185      1.0030     -2.8550     -0.5170      1.6800     78.3900
    186      1.9630     -2.7620     -0.2370      0.0100     78.3900
    187      0.1140     -1.8670     -0.1080      1.7700     78.3900
    188      0.5120     -0.8990      0.5460      1.5900     78.3900
    189     -1.2140     -2.1470     -0.5410      1.7700     78.3900
    190     -2.3910     -1.4200     -0.3860      1.6800     78.3900
    191     -3.2920     -2.1230     -1.0390      1.7700     78.3900
    192     -4.3500     -1.8650     -1.1390      0.0100     78.3900
    193     -3.6690     -5.5760     -1.6530      1.7700     78.3900
    194     -2.9960     -5.6400     -0.7690      0.0100     78.3900
    195     -3.4470     -6.6810     -2.5130      1.5900     78.3900
    196     -3.7220     -7.4950     -2.0550      0.0100     78.3900
    197     -5.1230     -5.4620     -1.2050      1.7700     78.3900
    198     -5.2230     -4.7710     -0.3380      0.0100     78.3900
    199     -5.7620     -6.7230     -0.9470      1.5900     78.3900
    200     -5.3180     -7.1620     -0.2020      0.0100     78.3900
    201     10.6430     -1.3670      0.7700      0.0100     78.3900
    202      9.9710     -1.9980      0.4510      1.5900     78.3900
    203     10.6130     -3.2790      0.3580      1.7700     78.3900
    204     10.8670     -3.6360      1.3810      0.0100     78.3900
    205     11.5560     -3.1690     -0.2210      0.0100     78.3900
    206      9.7490     -4.3350     -0.3280      1.7700     78.3900
    207     10.3220     -5.2700     -0.5240      0.0100     78.3900
    208      8.5980     -4.6740      0.5300      1.5900     78.3900
    209      7.4430     -4.8440     -0.2900      1.7700     78.3900
    210      7.0460     -5.8680     -0.0810      0.0100     78.3900
    211      6.3520     -3.8440     -0.0480      1.6800     78.3900
    212      6.6910     -2.6320      0.4930      1.7700     78.3900
    213      7.7430     -2.5010      0.7440      0.0100     78.3900
    214      5.7750     -1.6900      0.7340      1.7700     78.3900
    215      6.0340     -0.7360      1.1840      0.0100     78.3900
    216      5.0170     -4.0900     -0.4000      1.7700     78.3900
    217      4.7110     -5.1860     -0.8960      1.5900     78.3900
    218      4.0710     -3.1330     -0.1850      1.6800     78.3900
    219      4.4270     -1.9630      0.3820      1.7700     78.3900
    220      3.5110     -1.0160      0.6040      1.6800     78.3900
    221      2.5400     -1.1440      0.4150      0.0100     78.3900
    222      3.7700     -0.1630      1.0560      0.0100     78.3900
    223      7.9400     -4.7940     -1.7050      1.7700     78.3900
    224      7.2380     -4.2640     -2.3470      0.0100     78.3900
    225      8.2600     -6.1000     -2.1570      1.5900     78.3900
    226      7.4360     -6.5440     -2.4100      0.0100     78.3900
    227      9.1320     -3.8620     -1.6420      1.7700     78.3900
    228      8.7750     -2.8130     -1.5080      0.0100     78.3900
    229     10.0620     -3.9680     -2.7450      1.5900     78.3900
    230      9.7720     -3.2290     -4.1210      2.1000     78.3900
    231     10.7120     -3.7530     -5.1410      1.5900     78.3900
    232      9.8070     -1.7670     -3.8890      1.5900     78.3900
    233      8.2990     -3.6100     -4.5540      1.5900     78.3900
    234      8.0050     -4.9380     -5.0560      1.7700     78.3900
    235      8.5610     -5.7220     -4.4980      0.0100     78.3900
    236      8.3280     -5.0270     -6.1190      0.0100     78.3900
    237      6.5070     -5.3060     -4.9930      1.7700     78.3900
    238      6.3780     -6.4080     -5.0340      0.0100     78.3900
    239      5.8270     -4.8350     -3.8040      1.5900     78.3900
    240      4.5090     -4.4710     -4.0810      1.7700     78.3900
    241      3.9050     -5.1710     -3.4570      0.0100     78.3900
    242      4.1200     -3.0950     -3.6690      1.6800     78.3900
    243      5.0500     -2.1820     -3.2290      1.7700     78.3900
    244      6.0920     -2.5140     -3.2530      0.0100     78.3900
    245      4.6730     -0.9670     -2.7940      1.7700     78.3900
    246      5.3800     -0.2310     -2.4170      0.0100     78.3900
    247      2.7670     -2.7570     -3.6760      1.7700     78.3900
    248      1.9320     -3.5870     -4.0650      1.5900     78.3900
    249      2.3740     -1.5480     -3.2320      1.6800     78.3900
    250      3.2780     -0.6640     -2.7920      1.7700     78.3900
    251      2.8340      0.5120     -2.3600      1.6800     78.3900
    252      1.8440      0.6800     -2.3380      0.0100     78.3900
    253      3.4390      1.2170     -1.9880      0.0100     78.3900
    254      4.3050     -4.7550     -5.5290      1.7700     78.3900
    255      3.7130     -3.9670     -6.0220      0.0100     78.3900
    256      3.6850     -6.0240     -5.6020      1.5900     78.3900
    257      2.7320     -5.8680     -5.5070      0.0100     78.3900
    258      5.7220     -4.7220     -6.1110      1.7700     78.3900
    259      6.0780     -3.6700     -6.2230      0.0100     78.3900
    260      5.9540     -5.5300     -7.2790      1.5900     78.3900
    261      5.7600     -4.8970     -8.6870      2.1000     78.3900
    262      5.8520     -5.9750     -9.6920      1.5900     78.3900
    263      6.7110     -3.7680     -8.8310      1.5900     78.3900
    264      4.3090     -4.3240     -8.6160      1.5900     78.3900
    265      3.1800     -5.2270     -8.5490      1.7700     78.3900
    266      3.2910     -6.0230     -7.8020      0.0100     78.3900
    267      3.1050     -5.8000     -9.4920      0.0100     78.3900
    268      1.8680     -4.4710     -8.3550      1.7700     78.3900
    269      0.9950     -5.1510     -8.4160      0.0100     78.3900
    270      1.7430     -3.7930     -7.0750      1.5900     78.3900
    271      1.2010     -2.5090     -7.2620      1.7700     78.3900
    272      0.2670     -2.5080     -6.6600      0.0100     78.3900
    273      2.1270     -1.4270     -6.8010      1.6800     78.3900
    274      3.4680     -1.4510     -7.0860      1.7700     78.3900
    275      3.8020     -2.3320     -7.6300      0.0100     78.3900
    276      1.5740     -0.3380     -6.1840      1.7700     78.3900
    277      0.3630     -0.2250     -6.0560      1.5900     78.3900
    278      2.4530      0.6240     -5.7470      1.6800     78.3900
    279      2.0830      1.4020     -5.2270      0.0100     78.3900
    280      3.8160      0.6310     -5.9390      1.7700     78.3900
    281      4.4980      1.5420     -5.4720      1.5900     78.3900
    282      4.3110     -0.4800     -6.6990      1.7700     78.3900
    283      5.3720     -0.5200     -6.9240      0.0100     78.3900
    284      0.8220     -2.3860     -8.7220      1.7700     78.3900
    285      1.0260     -1.3560     -9.0730      0.0100     78.3900
    286     -0.5430     -2.6940     -8.9050      1.5900     78.3900
    287     -0.6540     -2.8400     -9.8600      0.0100     78.3900
    288      1.7430     -3.4040     -9.4110      1.7700     78.3900
    289      2.7240     -2.9060     -9.5950      0.0100     78.3900
    290      1.2330     -4.0600    -10.5720      1.5900     78.3900
    291      2.0210     -4.4570    -11.8750      2.1000     78.3900
    292      3.3870     -4.8910    -11.5820      1.5900     78.3900
    293      1.2060     -5.4400    -12.6360      1.5900     78.3900
    294      2.1220     -3.0910    -12.6570      1.5900     78.3900
    295      1.1980     -2.7740    -13.7190      1.7700     78.3900
    296      1.4110     -3.4190    -14.6000      0.0100     78.3900
    297      1.4190     -1.7380    -14.0490      0.0100     78.3900
    298     -0.3130     -2.8820    -13.3620      1.7700     78.3900
    299     -0.6570     -3.9160    -13.5820      0.0100     78.3900
    300     -0.5470     -2.6480    -11.9500      1.5900     78.3900
    301     -1.0320     -1.3800    -11.7210      1.7700     78.3900
    302     -1.7280     -1.5410    -10.8630      0.0100     78.3900
    303     -0.0500     -0.4000    -11.2570      1.6800     78.3900
    304      0.7780      1.2650    -10.0850      1.7700     78.3900
    305      1.8390      0.7260    -10.7970      1.6800     78.3900
    306      1.3010     -0.2600    -11.4760      1.7700     78.3900
    307      1.8590     -0.9030    -12.1520      0.0100     78.3900
    308     -0.5570      2.6770     -8.7390      1.6800     78.3900
    309     -1.5930      1.9310     -9.1260      1.7700     78.3900
    310     -2.5600      2.1970     -8.6880      0.0100     78.3900
    311     -1.6070      0.8320     -9.8750      1.6800     78.3900
    312     -0.3870      0.5780    -10.3620      1.7700     78.3900
    313      0.6770      2.3550     -9.1930      1.7700     78.3900
    314      1.7290      3.0780     -8.7720      1.6800     78.3900
    315      2.6140      3.0200     -9.2420      0.0100     78.3900
    316      1.5380      3.9050     -8.2480      0.0100     78.3900
    317     -1.8100     -0.9970    -12.9170      1.7700     78.3900
    318     -1.7380      0.0810    -13.1550      0.0100     78.3900
    319     -3.1340     -1.3890    -12.6260      1.5900     78.3900
    320     -3.2140     -2.2970    -12.9440      0.0100     78.3900
    321     -1.2040     -1.8480    -14.0620      1.7700     78.3900
    322     -0.5270     -1.2230    -14.6880      0.0100     78.3900
    323     -2.1790     -2.5360    -14.8720      1.5900     78.3900
    324     -2.9470     -1.8320    -16.0510      2.1000     78.3900
    325     -4.1390     -2.6520    -16.3820      1.5900     78.3900
    326     -1.9730     -1.6190    -17.1430      1.5900     78.3900
    327     -3.3940     -0.4270    -15.5190      1.5900     78.3900
    328     -4.6910     -0.2490    -14.9030      1.7700     78.3900
    329     -4.9150     -1.0190    -14.1310      0.0100     78.3900
    330     -5.4940     -0.3240    -15.6670      0.0100     78.3900
    331     -4.8010      1.1270    -14.2490      1.7700     78.3900
    332     -5.7700      1.2410    -13.7170      0.0100     78.3900
    333     -3.7410      1.3860    -13.2930      1.5900     78.3900
    334     -3.6630      2.7570    -13.0910      1.7700     78.3900
    335     -4.3140      2.9150    -12.1960      0.0100     78.3900
    336     -2.2990      3.2430    -12.7860      1.6800     78.3900
    337     -1.1990      2.6850    -13.3680      1.7700     78.3900
    338     -1.4270      1.9020    -14.0920      0.0100     78.3900
    339     -2.1840      4.3050    -11.9280      1.7700     78.3900
    340     -3.1650      4.8830    -11.4750      1.5900     78.3900
    341     -0.8970      4.6770    -11.6240      1.6800     78.3900
    342     -0.7650      5.3680    -10.9010      0.0100     78.3900
    343      0.2610      4.1250    -12.1220      1.7700     78.3900
    344      1.3540      4.5610    -11.7750      1.5900     78.3900
    345      0.0510      3.0670    -13.0650      1.7700     78.3900
    346      0.9220      2.6020    -13.5160      0.0100     78.3900
    347     -4.2790      3.4150    -14.3010      1.7700     78.3900
    348     -3.5780      4.0710    -14.8530      0.0100     78.3900
    349     -5.4000      4.0810    -13.7900      1.5900     78.3900
    350     -5.4110      5.0120    -14.0790      0.0100     78.3900
    351     -4.6890      2.2620    -15.2240      1.7700     78.3900
    352     -3.8460      1.9870    -15.9000      0.0100     78.3900
    353     -5.9350      2.4240    -15.9460      1.5900     78.3900
    354     -5.9750      3.2950    -17.2500      2.1000     78.3900
    355     -7.1820      2.9110    -18.0160      1.5900     78.3900
    356     -4.6820      3.1680    -17.9590      1.5900     78.3900
    357     -6.1230      4.8040    -16.7800      1.5900     78.3900
    358     -7.3940      5.2460    -16.2280      1.7700     78.3900
    359     -7.8440      4.4860    -15.5410      0.0100     78.3900
    360     -8.1200      5.4250    -17.0520      0.0100     78.3900
    361     -7.2740      6.5660    -15.4480      1.7700     78.3900
    362     -8.2760      6.9100    -15.1020      0.0100     78.3900
    363     -6.4560      6.3570    -14.2680      1.5900     78.3900
    364     -5.6650      7.4840    -13.9990      1.7700     78.3900
    365     -5.9720      7.8000    -12.9730      0.0100     78.3900
    366     -4.2030      7.2230    -14.0170      1.6800     78.3900
    367     -3.6440      6.5080    -15.0450      1.7700     78.3900
    368     -4.3440      6.0380    -15.7400      0.0100     78.3900
    369     -2.3240      6.2820    -15.0960      1.7700     78.3900
    370     -1.8700      5.6360    -15.8440      0.0100     78.3900
    371     -3.3740      7.8630    -13.1010      1.7700     78.3900
    372     -3.8750      8.6360    -12.2720      1.5900     78.3900
    373     -2.0390      7.6410    -13.1290      1.6800     78.3900
    374     -1.5050      6.8740    -14.0950      1.7700     78.3900
    375     -0.1900      6.6430    -14.0990      1.6800     78.3900
    376      0.4130      7.0470    -13.4070      0.0100     78.3900
    377      0.2480      6.1140    -14.8320      0.0100     78.3900
    378     -6.0610      8.5220    -14.9920      1.7700     78.3900
    379     -5.1900      9.1100    -15.3440      0.0100     78.3900
    380     -7.0450      9.3360    -14.3850      1.5900     78.3900
    381     -6.5700     10.1230    -14.0710      0.0100     78.3900
    382     -6.5830      7.7080    -16.1740      1.7700     78.3900
    383     -5.7400      7.2670    -16.7500      0.0100     78.3900
    384     -7.5090      8.3930    -17.0350      1.5900     78.3900
    385     -6.9860      9.4360    -18.0930      2.1000     78.3900
    386     -6.0410      8.7560    -19.0070      1.5900     78.3900
    387     -8.1630     10.0600    -18.7340      1.5900     78.3900
    388     -6.1880     10.5450    -17.2950      1.5900     78.3900
    389     -6.8840     11.4990    -16.4560      1.7700     78.3900
    390     -7.7330     11.0310    -15.9040      0.0100     78.3900
    391     -7.3450     12.2900    -17.0890      0.0100     78.3900
    392     -5.9470     12.1980    -15.4380      1.7700     78.3900
    393     -6.5330     12.6680    -14.6180      0.0100     78.3900
    394     -4.9910     11.3040    -14.8060      1.5900     78.3900
    395     -3.8120     12.0080    -14.4720      1.7700     78.3900
    396     -3.8280     12.0970    -13.3620      0.0100     78.3900
    397     -2.5840     11.2770    -14.8510      1.6800     78.3900
    398     -1.3390     11.4970    -14.3190      1.7700     78.3900
    399      0.7480     13.2440    -12.1750      1.6800     78.3900
    400      0.1240     13.8870    -11.7330      0.0100     78.3900
    401      1.7160     13.2560    -11.9120      0.0100     78.3900
    402     -1.0330     12.4140    -13.3860      1.6800     78.3900
    403      0.2620     12.4140    -13.0750      1.7700     78.3900
    404      1.1720     11.5730    -13.6580      1.6800     78.3900
    405      2.1350     11.6850    -13.3860      0.0100     78.3900
    406      0.8920     10.6260    -14.6350      1.7700     78.3900
    407      1.7900      9.9210    -15.1050      1.5900     78.3900
    408     -0.4960     10.6030    -14.9540      1.7700     78.3900
    409     -1.2020      9.8240    -15.8630      1.6800     78.3900
    410     -2.4380     10.2630    -15.7730      1.7700     78.3900
    411     -3.2870      9.8830    -16.3460      0.0100     78.3900
    412     -3.9020     13.3930    -15.1020      1.7700     78.3900
    413     -2.9820     13.6480    -15.6740      0.0100     78.3900
    414     -4.1320     14.3630    -14.0930      1.5900     78.3900
    415     -4.3550     15.2110    -14.5150      0.0100     78.3900
    416     -5.0810     13.2570    -16.0790      1.7700     78.3900
    417     -4.7390     12.8330    -17.0480      0.0100     78.3900
    418     -5.8580     14.4490    -16.2830      1.5900     78.3900
    419     -5.3120     15.1370    -16.6970      0.0100     78.3900

     ----------------------------
     INPUT FOR TESSERA DEFINITION
     ----------------------------
     NTSALL  =        60     MTHALL  =         4
     MTHAUT  =         0     AUTFRE  =    2.0000
     NTSFRZ  =        60     KEEPSM  =         0
     AREAKP  =   10.0000     BONDRY  =    1.0000
     AREATL  =    0.0100

     SPHERE     INITS       METHOD
          1        60       FIXPVA
          2        60       FIXPVA
          3        60       FIXPVA
          4        60       FIXPVA
          5        60       FIXPVA
          6        60       FIXPVA
          7        60       FIXPVA
          8        60       FIXPVA
          9        60       FIXPVA
         10        60       FIXPVA
         11        60       FIXPVA
         12        60       FIXPVA
         13        60       FIXPVA
         14        60       FIXPVA
         15        60       FIXPVA
         16        60       FIXPVA
         17        60       FIXPVA
         18        60       FIXPVA
         19        60       FIXPVA
         20        60       FIXPVA
         21        60       FIXPVA
         22        60       FIXPVA
         23        60       FIXPVA
         24        60       FIXPVA
         25        60       FIXPVA
         26        60       FIXPVA
         27        60       FIXPVA
         28        60       FIXPVA
         29        60       FIXPVA
         30        60       FIXPVA
         31        60       FIXPVA
         32        60       FIXPVA
         33        60       FIXPVA
         34        60       FIXPVA
         35        60       FIXPVA
         36        60       FIXPVA
         37        60       FIXPVA
         38        60       FIXPVA
         39        60       FIXPVA
         40        60       FIXPVA
         41        60       FIXPVA
         42        60       FIXPVA
         43        60       FIXPVA
         44        60       FIXPVA
         45        60       FIXPVA
         46        60       FIXPVA
         47        60       FIXPVA
         48        60       FIXPVA
         49        60       FIXPVA
         50        60       FIXPVA
         51        60       FIXPVA
         52        60       FIXPVA
         53        60       FIXPVA
         54        60       FIXPVA
         55        60       FIXPVA
         56        60       FIXPVA
         57        60       FIXPVA
         58        60       FIXPVA
         59        60       FIXPVA
         60        60       FIXPVA
         61        60       FIXPVA
         62        60       FIXPVA
         63        60       FIXPVA
         64        60       FIXPVA
         65        60       FIXPVA
         66        60       FIXPVA
         67        60       FIXPVA
         68        60       FIXPVA
         69        60       FIXPVA
         70        60       FIXPVA
         71        60       FIXPVA
         72        60       FIXPVA
         73        60       FIXPVA
         74        60       FIXPVA
         75        60       FIXPVA
         76        60       FIXPVA
         77        60       FIXPVA
         78        60       FIXPVA
         79        60       FIXPVA
         80        60       FIXPVA
         81        60       FIXPVA
         82        60       FIXPVA
         83        60       FIXPVA
         84        60       FIXPVA
         85        60       FIXPVA
         86        60       FIXPVA
         87        60       FIXPVA
         88        60       FIXPVA
         89        60       FIXPVA
         90        60       FIXPVA
         91        60       FIXPVA
         92        60       FIXPVA
         93        60       FIXPVA
         94        60       FIXPVA
         95        60       FIXPVA
         96        60       FIXPVA
         97        60       FIXPVA
         98        60       FIXPVA
         99        60       FIXPVA
        100        60       FIXPVA
        101        60       FIXPVA
        102        60       FIXPVA
        103        60       FIXPVA
        104        60       FIXPVA
        105        60       FIXPVA
        106        60       FIXPVA
        107        60       FIXPVA
        108        60       FIXPVA
        109        60       FIXPVA
        110        60       FIXPVA
        111        60       FIXPVA
        112        60       FIXPVA
        113        60       FIXPVA
        114        60       FIXPVA
        115        60       FIXPVA
        116        60       FIXPVA
        117        60       FIXPVA
        118        60       FIXPVA
        119        60       FIXPVA
        120        60       FIXPVA
        121        60       FIXPVA
        122        60       FIXPVA
        123        60       FIXPVA
        124        60       FIXPVA
        125        60       FIXPVA
        126        60       FIXPVA
        127        60       FIXPVA
        128        60       FIXPVA
        129        60       FIXPVA
        130        60       FIXPVA
        131        60       FIXPVA
        132        60       FIXPVA
        133        60       FIXPVA
        134        60       FIXPVA
        135        60       FIXPVA
        136        60       FIXPVA
        137        60       FIXPVA
        138        60       FIXPVA
        139        60       FIXPVA
        140        60       FIXPVA
        141        60       FIXPVA
        142        60       FIXPVA
        143        60       FIXPVA
        144        60       FIXPVA
        145        60       FIXPVA
        146        60       FIXPVA
        147        60       FIXPVA
        148        60       FIXPVA
        149        60       FIXPVA
        150        60       FIXPVA
        151        60       FIXPVA
        152        60       FIXPVA
        153        60       FIXPVA
        154        60       FIXPVA
        155        60       FIXPVA
        156        60       FIXPVA
        157        60       FIXPVA
        158        60       FIXPVA
        159        60       FIXPVA
        160        60       FIXPVA
        161        60       FIXPVA
        162        60       FIXPVA
        163        60       FIXPVA
        164        60       FIXPVA
        165        60       FIXPVA
        166        60       FIXPVA
        167        60       FIXPVA
        168        60       FIXPVA
        169        60       FIXPVA
        170        60       FIXPVA
        171        60       FIXPVA
        172        60       FIXPVA
        173        60       FIXPVA
        174        60       FIXPVA
        175        60       FIXPVA
        176        60       FIXPVA
        177        60       FIXPVA
        178        60       FIXPVA
        179        60       FIXPVA
        180        60       FIXPVA
        181        60       FIXPVA
        182        60       FIXPVA
        183        60       FIXPVA
        184        60       FIXPVA
        185        60       FIXPVA
        186        60       FIXPVA
        187        60       FIXPVA
        188        60       FIXPVA
        189        60       FIXPVA
        190        60       FIXPVA
        191        60       FIXPVA
        192        60       FIXPVA
        193        60       FIXPVA
        194        60       FIXPVA
        195        60       FIXPVA
        196        60       FIXPVA
        197        60       FIXPVA
        198        60       FIXPVA
        199        60       FIXPVA
        200        60       FIXPVA
        201        60       FIXPVA
        202        60       FIXPVA
        203        60       FIXPVA
        204        60       FIXPVA
        205        60       FIXPVA
        206        60       FIXPVA
        207        60       FIXPVA
        208        60       FIXPVA
        209        60       FIXPVA
        210        60       FIXPVA
        211        60       FIXPVA
        212        60       FIXPVA
        213        60       FIXPVA
        214        60       FIXPVA
        215        60       FIXPVA
        216        60       FIXPVA
        217        60       FIXPVA
        218        60       FIXPVA
        219        60       FIXPVA
        220        60       FIXPVA
        221        60       FIXPVA
        222        60       FIXPVA
        223        60       FIXPVA
        224        60       FIXPVA
        225        60       FIXPVA
        226        60       FIXPVA
        227        60       FIXPVA
        228        60       FIXPVA
        229        60       FIXPVA
        230        60       FIXPVA
        231        60       FIXPVA
        232        60       FIXPVA
        233        60       FIXPVA
        234        60       FIXPVA
        235        60       FIXPVA
        236        60       FIXPVA
        237        60       FIXPVA
        238        60       FIXPVA
        239        60       FIXPVA
        240        60       FIXPVA
        241        60       FIXPVA
        242        60       FIXPVA
        243        60       FIXPVA
        244        60       FIXPVA
        245        60       FIXPVA
        246        60       FIXPVA
        247        60       FIXPVA
        248        60       FIXPVA
        249        60       FIXPVA
        250        60       FIXPVA
        251        60       FIXPVA
        252        60       FIXPVA
        253        60       FIXPVA
        254        60       FIXPVA
        255        60       FIXPVA
        256        60       FIXPVA
        257        60       FIXPVA
        258        60       FIXPVA
        259        60       FIXPVA
        260        60       FIXPVA
        261        60       FIXPVA
        262        60       FIXPVA
        263        60       FIXPVA
        264        60       FIXPVA
        265        60       FIXPVA
        266        60       FIXPVA
        267        60       FIXPVA
        268        60       FIXPVA
        269        60       FIXPVA
        270        60       FIXPVA
        271        60       FIXPVA
        272        60       FIXPVA
        273        60       FIXPVA
        274        60       FIXPVA
        275        60       FIXPVA
        276        60       FIXPVA
        277        60       FIXPVA
        278        60       FIXPVA
        279        60       FIXPVA
        280        60       FIXPVA
        281        60       FIXPVA
        282        60       FIXPVA
        283        60       FIXPVA
        284        60       FIXPVA
        285        60       FIXPVA
        286        60       FIXPVA
        287        60       FIXPVA
        288        60       FIXPVA
        289        60       FIXPVA
        290        60       FIXPVA
        291        60       FIXPVA
        292        60       FIXPVA
        293        60       FIXPVA
        294        60       FIXPVA
        295        60       FIXPVA
        296        60       FIXPVA
        297        60       FIXPVA
        298        60       FIXPVA
        299        60       FIXPVA
        300        60       FIXPVA
        301        60       FIXPVA
        302        60       FIXPVA
        303        60       FIXPVA
        304        60       FIXPVA
        305        60       FIXPVA
        306        60       FIXPVA
        307        60       FIXPVA
        308        60       FIXPVA
        309        60       FIXPVA
        310        60       FIXPVA
        311        60       FIXPVA
        312        60       FIXPVA
        313        60       FIXPVA
        314        60       FIXPVA
        315        60       FIXPVA
        316        60       FIXPVA
        317        60       FIXPVA
        318        60       FIXPVA
        319        60       FIXPVA
        320        60       FIXPVA
        321        60       FIXPVA
        322        60       FIXPVA
        323        60       FIXPVA
        324        60       FIXPVA
        325        60       FIXPVA
        326        60       FIXPVA
        327        60       FIXPVA
        328        60       FIXPVA
        329        60       FIXPVA
        330        60       FIXPVA
        331        60       FIXPVA
        332        60       FIXPVA
        333        60       FIXPVA
        334        60       FIXPVA
        335        60       FIXPVA
        336        60       FIXPVA
        337        60       FIXPVA
        338        60       FIXPVA
        339        60       FIXPVA
        340        60       FIXPVA
        341        60       FIXPVA
        342        60       FIXPVA
        343        60       FIXPVA
        344        60       FIXPVA
        345        60       FIXPVA
        346        60       FIXPVA
        347        60       FIXPVA
        348        60       FIXPVA
        349        60       FIXPVA
        350        60       FIXPVA
        351        60       FIXPVA
        352        60       FIXPVA
        353        60       FIXPVA
        354        60       FIXPVA
        355        60       FIXPVA
        356        60       FIXPVA
        357        60       FIXPVA
        358        60       FIXPVA
        359        60       FIXPVA
        360        60       FIXPVA
        361        60       FIXPVA
        362        60       FIXPVA
        363        60       FIXPVA
        364        60       FIXPVA
        365        60       FIXPVA
        366        60       FIXPVA
        367        60       FIXPVA
        368        60       FIXPVA
        369        60       FIXPVA
        370        60       FIXPVA
        371        60       FIXPVA
        372        60       FIXPVA
        373        60       FIXPVA
        374        60       FIXPVA
        375        60       FIXPVA
        376        60       FIXPVA
        377        60       FIXPVA
        378        60       FIXPVA
        379        60       FIXPVA
        380        60       FIXPVA
        381        60       FIXPVA
        382        60       FIXPVA
        383        60       FIXPVA
        384        60       FIXPVA
        385        60       FIXPVA
        386        60       FIXPVA
        387        60       FIXPVA
        388        60       FIXPVA
        389        60       FIXPVA
        390        60       FIXPVA
        391        60       FIXPVA
        392        60       FIXPVA
        393        60       FIXPVA
        394        60       FIXPVA
        395        60       FIXPVA
        396        60       FIXPVA
        397        60       FIXPVA
        398        60       FIXPVA
        399        60       FIXPVA
        400        60       FIXPVA
        401        60       FIXPVA
        402        60       FIXPVA
        403        60       FIXPVA
        404        60       FIXPVA
        405        60       FIXPVA
        406        60       FIXPVA
        407        60       FIXPVA
        408        60       FIXPVA
        409        60       FIXPVA
        410        60       FIXPVA
        411        60       FIXPVA
        412        60       FIXPVA
        413        60       FIXPVA
        414        60       FIXPVA
        415        60       FIXPVA
        416        60       FIXPVA
        417        60       FIXPVA
        418        60       FIXPVA
        419        60       FIXPVA

     ------------------------------
      FIXPVA TESSELLATION FOR PCM
         PEIFENG SU AND HUI LI
     UNIVERSITY OF NEBRASKA-LINCOLN
     ------------------------------


 PCM DIMENSIONS: MXSP=   419, MXTS=     16760, MEMORY=        172212

     INPUT FOR CAVITY DEFINITION 
     ---------------------------
   ATOM               COORDINATES                RADIUS       EPS
      1     10.5470     12.6440     -9.7010      0.0100     78.3900
      2      9.5810     12.7640     -9.6240      1.5900     78.3900
      3      9.3640     14.1330     -9.2560      1.7700     78.3900
      4      9.7040     14.7930    -10.0870      0.0100     78.3900
      5      9.9840     14.3680     -8.3630      0.0100     78.3900
      6      7.8980     14.4320     -8.9350      1.7700     78.3900
      7      7.7970     15.3360     -8.2990      0.0100     78.3900
      8      7.1830     14.6880    -10.1820      1.5900     78.3900
      9      5.8500     14.2300    -10.0550      1.7700     78.3900
     10      5.2170     15.1450    -10.1510      0.0100     78.3900
     11      5.4560     13.2480    -11.0830      1.6800     78.3900
     12      6.3780     12.3230    -11.4950      1.7700     78.3900
     13      7.3850     12.4290    -11.0790      0.0100     78.3900
     14      6.0640     11.3940    -12.4050      1.7700     78.3900
     15      6.7900     10.6720    -12.7700      0.0100     78.3900
     16      4.1410     13.1820    -11.5420      1.7700     78.3900
     17      3.3050     13.9970    -11.1190      1.5900     78.3900
     18      3.7980     12.2390    -12.4510      1.6800     78.3900
     19      4.7220     11.3590    -12.8860      1.7700     78.3900
     20      4.3780     10.4340    -13.7830      1.6800     78.3900
     21      3.4480     10.3670    -14.1460      0.0100     78.3900
     22      5.0420      9.7600    -14.1080      0.0100     78.3900
     23      5.7000     13.6520     -8.6770      1.7700     78.3900
     24      5.1030     12.7180     -8.6810      0.0100     78.3900
     25      5.1190     14.6300     -7.8410      1.5900     78.3900
     26      4.2040     14.3330     -7.6970      0.0100     78.3900
     27      7.1200     13.2840     -8.2800      1.7700     78.3900
     28      7.4050     12.3330     -8.7870      0.0100     78.3900
     29      7.3710     13.2350     -6.8540      1.5900     78.3900
     30      6.9400     11.9510     -6.0350      2.1000     78.3900
     31      7.2700     12.1900     -4.6120      1.5900     78.3900
     32      7.5660     10.7650     -6.6570      1.5900     78.3900
     33      5.3760     11.8080     -6.1890      1.5900     78.3900
     34      4.4820     12.7630     -5.5600      1.7700     78.3900
     35      4.8880     13.7990     -5.5920      0.0100     78.3900
     36      4.3570     12.5160     -4.4840      0.0100     78.3900
     37      3.0680     12.7660     -6.1800      1.7700     78.3900
     38      2.4980     13.6680     -5.8720      0.0100     78.3900
     39      3.0930     12.7240     -7.6340      1.5900     78.3900
     40      1.9650     12.0430     -8.1190      1.7700     78.3900
     41      1.3490     12.8120     -8.6360      0.0100     78.3900
     42      2.2740     10.9890     -9.0930      1.6800     78.3900
     43      1.3450     10.4170     -9.9200      1.7700     78.3900
     44     -1.9350     10.1100    -10.9720      1.6800     78.3900
     45     -2.3970     10.8520    -10.4930      0.0100     78.3900
     46     -2.4750      9.5240    -11.5850      0.0100     78.3900
     47      0.0380     10.7340     -9.9710      1.6800     78.3900
     48     -0.6350      9.9600    -10.8130      1.7700     78.3900
     49     -0.0390      9.0020    -11.5880      1.6800     78.3900
     50     -0.6350      8.4730    -12.2070      0.0100     78.3900
     51      1.3110      8.6740    -11.5830      1.7700     78.3900
     52      1.7530      7.7980    -12.3300      1.5900     78.3900
     53      2.0330      9.4680    -10.6520      1.7700     78.3900
     54      3.3760      9.4410    -10.2870      1.6800     78.3900
     55      3.4720     10.3610     -9.3510      1.7700     78.3900
     56      4.3830     10.6210     -8.8050      0.0100     78.3900
     57      1.2250     11.5030     -6.9260      1.7700     78.3900
     58      0.9360     10.4470     -7.0770      0.0100     78.3900
     59      0.0960     12.3180     -6.6730      1.5900     78.3900
     60     -0.5600     12.2020     -7.3760      0.0100     78.3900
     61      2.2540     11.5530     -5.7990      1.7700     78.3900
     62      2.9590     10.6940     -5.8670      0.0100     78.3900
     63      1.7230     11.7240     -4.4700      1.5900     78.3900
     64      0.9620     10.5630     -3.7360      2.1000     78.3900
     65      1.0700     10.8000     -2.2810      1.5900     78.3900
     66      1.4770      9.2600     -4.2260      1.5900     78.3900
     67     -0.5550     10.6750     -4.1120      1.5900     78.3900
     68     -1.4270     11.7590     -3.7510      1.7700     78.3900
     69     -1.0180     12.7300     -4.1050      0.0100     78.3900
     70     -1.5120     11.8120     -2.6430      0.0100     78.3900
     71     -2.8550     11.5730     -4.3210      1.7700     78.3900
     72     -3.5250     12.3890     -3.9690      0.0100     78.3900
     73     -2.8520     11.6430     -5.7830      1.5900     78.3900
     74     -3.5380     10.5200     -6.3340      1.7700     78.3900
     75     -4.2120     10.8960     -7.1400      0.0100     78.3900
     76     -2.5980      9.5320     -6.9070      1.6800     78.3900
     77     -2.8490      8.4710     -7.7270      1.7700     78.3900
     78     -5.0180      6.5360     -9.5890      1.6800     78.3900
     79     -5.9070      6.9480     -9.4050      0.0100     78.3900
     80     -4.9540      5.7580    -10.2100      0.0100     78.3900
     81     -4.0450      8.1120     -8.2080      1.6800     78.3900
     82     -3.9530      7.0510     -9.0060      1.7700     78.3900
     83     -2.7730      6.4200     -9.2940      1.6800     78.3900
     84     -2.8080      5.6560     -9.9470      0.0100     78.3900
     85     -1.5220      6.7910     -8.8450      1.7700     78.3900
     86     -0.4930      6.2020     -9.1920      1.5900     78.3900
     87     -1.6120      7.8880     -7.9720      1.7700     78.3900
     88     -0.6170      8.5470     -7.3100      1.6800     78.3900
     89     -1.2560      9.5040     -6.6980      1.7700     78.3900
     90     -0.7970     10.2950     -6.1410      0.0100     78.3900
     91     -4.3640      9.9220     -5.2220      1.7700     78.3900
     92     -4.4900      8.8350     -5.3610      0.0100     78.3900
     93     -5.6380     10.5420     -5.1540      1.5900     78.3900
     94     -5.5240     11.4210     -4.7630      0.0100     78.3900
     95     -3.5020     10.2150     -3.9900      1.7700     78.3900
     96     -2.6780      9.4670     -3.9290      0.0100     78.3900
     97     -4.2350     10.3270     -2.7620      1.5900     78.3900
     98     -4.2060      9.2580     -1.6180      2.1000     78.3900
     99     -5.1290      9.7100     -0.5550      1.5900     78.3900
    100     -2.8140      8.9950     -1.2010      1.5900     78.3900
    101     -4.7850      7.9420     -2.2510      1.5900     78.3900
    102     -6.0760      7.8950     -2.9050      1.7700     78.3900
    103     -6.2900      8.8330     -3.4630      0.0100     78.3900
    104     -6.8830      7.7770     -2.1490      0.0100     78.3900
    105     -6.1760      6.7320     -3.9110      1.7700     78.3900
    106     -7.0290      6.8950     -4.6080      0.0100     78.3900
    107     -4.9630      6.6900     -4.7100      1.5900     78.3900
    108     -4.5490      5.3710     -4.9120      1.7700     78.3900
    109     -4.8900      5.1230     -5.9440      0.0100     78.3900
    110     -3.0980      5.2020     -4.8320      1.6800     78.3900
    111     -2.3960      4.0950     -5.2340      1.7700     78.3900
    112     -2.3220      0.8580     -6.4660      1.6800     78.3900
    113     -3.2790      0.6550     -6.6550      0.0100     78.3900
    114     -1.6400      0.1370     -6.5580      0.0100     78.3900
    115     -2.9100      2.9910     -5.8140      1.6800     78.3900
    116     -2.0050      2.0410     -5.9640      1.7700     78.3900
    117     -0.6870      2.2060     -5.6470      1.6800     78.3900
    118     -0.0790      1.4330     -5.8410      0.0100     78.3900
    119     -0.1040      3.3490     -5.1330      1.7700     78.3900
    120      1.1120      3.3940     -4.9110      1.5900     78.3900
    121     -1.0800      4.3520     -4.8940      1.7700     78.3900
    122     -0.9570      5.6040     -4.3080      1.6800     78.3900
    123     -2.1840      6.0740     -4.2970      1.7700     78.3900
    124     -2.4940      7.0500     -3.9180      0.0100     78.3900
    125     -5.2170      4.4950     -3.8960      1.7700     78.3900
    126     -4.5290      4.1320     -3.0960      0.0100     78.3900
    127     -5.7560      3.4290     -4.6230      1.5900     78.3900
    128     -6.7120      3.5580     -4.6530      0.0100     78.3900
    129     -6.3150      5.3520     -3.2670      1.7700     78.3900
    130     -6.0570      5.5250     -2.1960      0.0100     78.3900
    131     -7.6650      4.8450     -3.4040      1.5900     78.3900
    132     -8.2370      3.7790     -2.3880      2.1000     78.3900
    133     -9.7110      3.8040     -2.5120      1.5900     78.3900
    134     -7.7020      4.0020     -1.0250      1.5900     78.3900
    135     -7.7040      2.3900     -2.9130      1.5900     78.3900
    136     -8.2780      1.7370     -4.0680      1.7700     78.3900
    137     -8.2160      2.3840     -4.9740      0.0100     78.3900
    138     -9.3550      1.5130     -3.8900      0.0100     78.3900
    139     -7.5800      0.4000     -4.3750      1.7700     78.3900
    140     -8.1990     -0.2260     -5.0480      0.0100     78.3900
    141     -6.3120      0.6300     -5.0630      1.5900     78.3900
    142     -5.3680     -0.3570     -4.6640      1.7700     78.3900
    143     -5.0240     -0.8720     -5.5930      0.0100     78.3900
    144     -4.1990      0.1990     -3.9710      1.6800     78.3900
    145     -2.9610     -0.3760     -3.8550      1.7700     78.3900
    146     -0.7830     -2.9880     -4.5000      1.6800     78.3900
    147     -1.3570     -3.6640     -4.9550      0.0100     78.3900
    148      0.1780     -3.2210     -4.3160      0.0100     78.3900
    149     -2.5890     -1.5600     -4.3660      1.6800     78.3900
    150     -1.3120     -1.8400     -4.1160      1.7700     78.3900
    151     -0.4760     -0.9920     -3.4380      1.6800     78.3900
    152      0.4970     -1.2460     -3.3680      0.0100     78.3900
    153     -0.8180      0.2610     -2.9520      1.7700     78.3900
    154      0.0130      0.9860     -2.3970      1.5900     78.3900
    155     -2.1950      0.5350     -3.1520      1.7700     78.3900
    156     -2.9560      1.6290     -2.7720      1.6800     78.3900
    157     -4.1420      1.3730     -3.2760      1.7700     78.3900
    158     -5.0370      1.9720     -3.1500      0.0100     78.3900
    159     -6.0990     -1.3160     -3.7830      1.7700     78.3900
    160     -5.4570     -1.6960     -2.9660      0.0100     78.3900
    161     -6.6080     -2.3780     -4.5740      1.5900     78.3900
    162     -5.9240     -3.0650     -4.5920      0.0100     78.3900
    163     -7.1840     -0.4470     -3.1680      1.7700     78.3900
    164     -6.7450      0.2400     -2.4100      0.0100     78.3900
    165     -8.3180     -1.1770     -2.6580      1.5900     78.3900
    166     -8.2050     -1.8560     -1.2370      2.1000     78.3900
    167     -9.4600     -2.6000     -0.9810      1.5900     78.3900
    168     -7.8600     -0.8150     -0.2450      1.5900     78.3900
    169     -7.0010     -2.8800     -1.3140      1.5900     78.3900
    170     -7.1350     -4.1030     -2.0790      1.7700     78.3900
    171     -7.6650     -3.9340     -3.0440      0.0100     78.3900
    172     -7.7590     -4.8340     -1.5130      0.0100     78.3900
    173     -5.7770     -4.7810     -2.3930      1.7700     78.3900
    174     -5.9150     -5.5420     -3.1930      0.0100     78.3900
    175     -4.7570     -3.8550     -2.8600      1.5900     78.3900
    176     -3.4770     -4.2850     -2.4180      1.7700     78.3900
    177     -2.8810     -4.4740     -3.3400      0.0100     78.3900
    178     -2.7770     -3.2680     -1.6050      1.6800     78.3900
    179     -1.4410     -3.2930     -1.2800      1.7700     78.3900
    180      1.6790     -4.8040     -1.4750      1.6800     78.3900
    181      1.5130     -5.5250     -2.1430      0.0100     78.3900
    182      2.6250     -4.5730     -1.2430      0.0100     78.3900
    183     -0.5570     -4.2380     -1.6480      1.6800     78.3900
    184      0.6810     -3.9710     -1.2370      1.7700     78.3900
    185      1.0030     -2.8550     -0.5170      1.6800     78.3900
    186      1.9630     -2.7620     -0.2370      0.0100     78.3900
    187      0.1140     -1.8670     -0.1080      1.7700     78.3900
    188      0.5120     -0.8990      0.5460      1.5900     78.3900
    189     -1.2140     -2.1470     -0.5410      1.7700     78.3900
    190     -2.3910     -1.4200     -0.3860      1.6800     78.3900
    191     -3.2920     -2.1230     -1.0390      1.7700     78.3900
    192     -4.3500     -1.8650     -1.1390      0.0100     78.3900
    193     -3.6690     -5.5760     -1.6530      1.7700     78.3900
    194     -2.9960     -5.6400     -0.7690      0.0100     78.3900
    195     -3.4470     -6.6810     -2.5130      1.5900     78.3900
    196     -3.7220     -7.4950     -2.0550      0.0100     78.3900
    197     -5.1230     -5.4620     -1.2050      1.7700     78.3900
    198     -5.2230     -4.7710     -0.3380      0.0100     78.3900
    199     -5.7620     -6.7230     -0.9470      1.5900     78.3900
    200     -5.3180     -7.1620     -0.2020      0.0100     78.3900
    201     10.6430     -1.3670      0.7700      0.0100     78.3900
    202      9.9710     -1.9980      0.4510      1.5900     78.3900
    203     10.6130     -3.2790      0.3580      1.7700     78.3900
    204     10.8670     -3.6360      1.3810      0.0100     78.3900
    205     11.5560     -3.1690     -0.2210      0.0100     78.3900
    206      9.7490     -4.3350     -0.3280      1.7700     78.3900
    207     10.3220     -5.2700     -0.5240      0.0100     78.3900
    208      8.5980     -4.6740      0.5300      1.5900     78.3900
    209      7.4430     -4.8440     -0.2900      1.7700     78.3900
    210      7.0460     -5.8680     -0.0810      0.0100     78.3900
    211      6.3520     -3.8440     -0.0480      1.6800     78.3900
    212      6.6910     -2.6320      0.4930      1.7700     78.3900
    213      7.7430     -2.5010      0.7440      0.0100     78.3900
    214      5.7750     -1.6900      0.7340      1.7700     78.3900
    215      6.0340     -0.7360      1.1840      0.0100     78.3900
    216      5.0170     -4.0900     -0.4000      1.7700     78.3900
    217      4.7110     -5.1860     -0.8960      1.5900     78.3900
    218      4.0710     -3.1330     -0.1850      1.6800     78.3900
    219      4.4270     -1.9630      0.3820      1.7700     78.3900
    220      3.5110     -1.0160      0.6040      1.6800     78.3900
    221      2.5400     -1.1440      0.4150      0.0100     78.3900
    222      3.7700     -0.1630      1.0560      0.0100     78.3900
    223      7.9400     -4.7940     -1.7050      1.7700     78.3900
[...]
   365   12   1.0   0.00    0.0    0.000000    0.277648    0.276585
   366   12   7.0   0.00    0.0    0.000000   -0.805874   -0.830006
   367   12   6.0   3.18    5.6   -0.029350    0.122188    0.115607
   368   12   1.0   0.00    0.0    0.000000    0.314936    0.319568
   369   12   6.0   9.40   16.6   -0.076889   -0.394295   -0.392414
   370   12   1.0   0.00    0.0    0.000000    0.283600    0.288059
   371   12   6.0   0.00    0.0    0.000000    1.045808    1.095991
   372   12   8.0   4.10    9.0    0.077909   -0.762599   -0.748027
   373   12   7.0   0.00    0.0    0.000000   -0.871410   -0.876792
   374   12   6.0   0.00    0.0    0.000000    0.750890    0.758752
   375   12   7.0   9.00   17.6   -0.104125   -0.950043   -1.030211
   376   12   1.0   0.00    0.0    0.000000    0.457432    0.515112
   377   12   1.0   0.00    0.0    0.000000    0.452331    0.450454
   378   12   6.0   0.00    0.0    0.000000    0.118476    0.086643
   379   12   1.0   0.00    0.0    0.000000    0.221202    0.255103
   380   12   8.0  12.95   28.3    0.068674   -0.827747   -0.838959
   381   12   1.0   0.00    0.0    0.000000    0.500587    0.515237
   382   12   6.0   2.08    3.7   -0.028696    0.156124    0.133117
   383   12   1.0   0.00    0.0    0.000000    0.236224    0.238206
   384   12   8.0   4.40    9.6    0.073110   -0.775478   -0.780818
   385   12  15.0   6.64    8.3    0.094257    1.607069    1.635578
   386   12   8.0  17.73   38.7    0.394654   -0.903914   -0.897200
   387   12   8.0  17.61   38.5    0.380558   -0.900026   -0.895433
   388   12   8.0   2.93    6.4    0.045815   -0.965184   -0.781921
   389   13   6.0  11.34   20.0   -0.061407    0.163762   -0.040188
   390   13   1.0   0.00    0.0    0.000000    0.229816    0.214261
   391   13   1.0   0.00    0.0    0.000000    0.232698    0.216753
   392   13   6.0   7.10   12.5   -0.064481    0.095577    0.148944
   393   13   1.0   0.00    0.0    0.000000    0.247608    0.224988
   394   13   8.0   1.32    2.9    0.004143   -0.758957   -0.764946
   395   13   6.0   3.19    5.6   -0.038240    0.464557    0.469248
   396   13   1.0   0.00    0.0    0.000000    0.249636    0.247514
   397   13   7.0   0.00    0.0    0.000000   -0.804992   -0.812629
   398   13   6.0   1.89    3.3    0.000906    0.710353    0.712868
   399   13   7.0  13.40   26.2   -0.087922   -0.962556   -1.043476
   400   13   1.0   0.00    0.0    0.000000    0.447356    0.441781
   401   13   1.0   0.00    0.0    0.000000    0.472416    0.530231
   402   13   7.0   6.72   13.2    0.096179   -0.746230   -0.747943
   403   13   6.0   1.82    3.2   -0.001327    0.973902    0.972317
   404   13   7.0   2.41    4.7   -0.005159   -0.927149   -1.024732
   405   13   1.0   0.00    0.0    0.000000    0.455286    0.526160
   406   13   6.0   1.89    3.3   -0.003738    0.864819    0.880996
   407   13   8.0  13.39   29.3    0.199555   -0.741877   -0.738823
   408   13   6.0   0.94    1.7    0.006051   -0.047023   -0.040619
   409   13   7.0   8.79   17.2    0.141545   -0.596672   -0.598582
   410   13   6.0   8.46   14.9   -0.020911    0.273080    0.270932
   411   13   1.0   0.00    0.0    0.000000    0.261641    0.266975
   412   13   6.0   6.69   11.8   -0.072367    0.097404    0.094056
   413   13   1.0   0.00    0.0    0.000000    0.226129    0.226413
   414   13   8.0  19.62   42.9    0.047808   -0.832271   -0.833797
   415   13   1.0   0.00    0.0    0.000000    0.499006    0.499573
   416   13   6.0   6.28   11.1   -0.063841    0.166439    0.156399
   417   13   1.0   0.00    0.0    0.000000    0.212087    0.218891
   418   13   8.0  20.64   45.1   -0.010617   -0.846011   -0.849827
   419   13   1.0   0.00    0.0    0.000000    0.506320    0.506925

 Done with FMO properties.
 CPU     0: STEP CPU TIME=     0.01 TOTAL CPU TIME=      36704.5 (    611.7 MIN)
 TOTAL WALL CLOCK TIME=      79486.9 SECONDS, CPU UTILIZATION IS    46.18%
 CPU     0: STEP CPU TIME=     0.00 TOTAL CPU TIME=      36704.5 (    611.7 MIN)
 TOTAL WALL CLOCK TIME=      79486.9 SECONDS, CPU UTILIZATION IS    46.18%

 Total timing statistics in pairs (CPU,wall) for each rank, sec

    Rank   total     SCF    corr     DFT    CPHF     EFP    solv     ESP    geom
 -------------------------------------------------------------------------------
       1   36704.5  10074.5  13871.8      0.0    0.0   0.0  306.3 11705.8    0.0
       1   79487.0  20958.9  33183.1      0.0    0.0   0.0  689.5 23119.3    0.0
       2   37053.1  10010.7  14294.2      0.0    0.0   0.0  307.4 11712.4    0.0
       2   79487.0  20893.1  33192.6      0.0    0.0   0.0  689.8 23118.5    0.0
       3   36620.5  10044.6  13861.7      0.0    0.0   0.0  307.0 11664.7    0.0
       3   79487.0  20892.9  33192.6      0.0    0.0   0.0  689.7 23119.0    0.0
       4   36957.0  10037.7  14227.2      0.0    0.0   0.0  306.6 11633.1    0.0
       4   79487.0  20893.8  33192.5      0.0    0.0   0.0  688.5 23118.8    0.0
       5   36816.5  10076.3  14194.0      0.0    0.0   0.0  306.6 11526.0    0.0
       5   79487.0  20893.0  33192.5      0.0    0.0   0.0  689.8 23119.0    0.0
       6   36961.2  10030.6  14352.3      0.0    0.0   0.0  305.8 11556.7    0.0
       6   79487.0  20893.6  33192.5      0.0    0.0   0.0  688.5 23118.7    0.0
       7   36281.8  10043.8  13766.4      0.0    0.0   0.0  303.8 11457.5    0.0
       7   79487.0  20894.6  33192.5      0.0    0.0   0.0  688.5 23118.6    0.0
       8   36591.3  10013.5  14042.9      0.0    0.0   0.0  304.0 11511.8    0.0
       8   79487.0  20894.1  33192.5      0.0    0.0   0.0  687.5 23118.6    0.0
       9   36057.9  10040.9  13705.2      0.0    0.0   0.0  302.2 11310.1    0.0
       9   79487.0  20894.8  33192.5      0.0    0.0   0.0  688.4 23118.7    0.0
      10   36201.9  10006.8  13838.1      0.0    0.0   0.0  304.2 11363.0    0.0
      10   79487.0  20894.7  33192.5      0.0    0.0   0.0  688.1 23118.3    0.0
      11   35963.5  10024.1  13609.3      0.0    0.0   0.0  301.9 11323.3    0.0
      11   79487.0  20895.1  33192.5      0.0    0.0   0.0  687.9 23118.4    0.0
      12   36355.4  10011.5  13881.7      0.0    0.0   0.0  302.8 11458.9    0.0
      12   79487.0  20894.9  33192.5      0.0    0.0   0.0  686.9 23118.3    0.0
      13   35820.2  10021.5  13560.1      0.0    0.0   0.0  300.3 11248.0    0.0
      13   79487.0  20896.0  33192.5      0.0    0.0   0.0  687.2 23118.3    0.0
      14   36415.0   9993.5  14085.6      0.0    0.0   0.0  301.7 11337.1    0.0
      14   79487.0  20895.7  33192.4      0.0    0.0   0.0  686.9 23118.0    0.0
      15   36089.9  10034.1  13789.9      0.0    0.0   0.0  300.7 11277.8    0.0
      15   79487.0  20896.0  33192.4      0.0    0.0   0.0  686.8 23118.0    0.0
      16   35972.3  10008.1  13569.8      0.0    0.0   0.0  302.4 11396.5    0.0
      16   79487.0  20895.8  33192.4      0.0    0.0   0.0  685.8 23117.9    0.0
averaged   36428.9  10029.5  13915.6      0.0    0.0   0.0  304.0 11467.7    0.0
averaged   79487.0  20898.6  33191.9      0.0    0.0   0.0  688.1 23118.5    0.0

  FMO  timing statistics in pairs (CPU,wall) for each rank, sec

    Rank  FMOini FMOscf1  FMOdm1 FMOsyn1 FMOscf2  FMOes2 FMOsyn2 FMOscf3 FMOsyn3
 -------------------------------------------------------------------------------
       1    3.3   13693.5    0.4    0.0   22448.8     558.5    0.0    0.0    0.0
       1    7.4   27886.2    4.3    0.0   50518.9    1069.7    0.0    0.0    0.0
       2    2.6   13656.3    0.1    0.0   22848.2     545.9    0.0    0.0    0.0
       2    7.4   27886.2    4.3    0.0   50518.4    1070.3    0.0    0.0    0.0
       3    2.8   13678.6    0.2    0.0   22379.7     559.2    0.0    0.0    0.0
       3    7.4   27886.2    4.3    0.0   50518.1    1070.5    0.0    0.0    0.0
       4    2.6   13681.8    0.1    0.0   22701.0     571.4    0.0    0.0    0.0
       4    7.4   27886.2    4.3    0.0   50518.8    1069.8    0.0    0.0    0.0
       5    3.0   13624.0    0.3    0.0   22659.8     529.4    0.0    0.0    0.0
       5    7.4   27886.2    4.3    0.0   50517.9    1070.7    0.0    0.0    0.0
       6    2.6   13610.6    0.1    0.0   22812.6     535.3    0.0    0.0    0.0
       6    7.4   27886.2    4.3    0.0   50518.4    1070.2    0.0    0.0    0.0
       7    2.8   13555.7    0.2    0.0   22194.0     529.1    0.0    0.0    0.0
       7    7.4   27886.2    4.3    0.0   50517.0    1071.7    0.0    0.0    0.0
       8    2.5   13566.3    0.1    0.0   22481.6     540.8    0.0    0.0    0.0
       8    7.4   27886.2    4.3    0.0   50517.9    1070.8    0.0    0.0    0.0
       9    2.9   13474.3    0.3    0.0   22062.1     518.2    0.0    0.0    0.0
       9    7.4   27886.2    4.3    0.0   50518.0    1070.7    0.0    0.0    0.0
      10    2.5   13500.5    0.1    0.0   22188.3     510.4    0.0    0.0    0.0
      10    7.4   27886.2    4.3    0.0   50515.5    1073.1    0.0    0.0    0.0
      11    2.6   13462.4    0.2    0.0   21971.3     526.8    0.0    0.0    0.0
      11    7.4   27886.2    4.3    0.0   50517.5    1071.2    0.0    0.0    0.0
      12    2.3   13522.9    0.1    0.0   22306.8     523.3    0.0    0.0    0.0
      12    7.4   27886.2    4.3    0.0   50516.2    1072.5    0.0    0.0    0.0
      13    2.7   13413.5    0.3    0.0   21891.6     512.0    0.0    0.0    0.0
      13    7.4   27886.2    4.3    0.0   50517.2    1071.4    0.0    0.0    0.0
      14    2.4   13462.7    0.1    0.0   22428.7     521.1    0.0    0.0    0.0
      14    7.4   27886.1    4.4    0.0   50517.5    1071.1    0.0    0.0    0.0
      15    2.6   13419.6    0.3    0.0   22158.4     509.1    0.0    0.0    0.0
      15    7.4   27886.2    4.3    0.0   50515.6    1073.0    0.0    0.0    0.0
      16    2.4   13513.3    0.1    0.0   21936.6     519.9    0.0    0.0    0.0
      16    7.4   27886.2    4.3    0.0   50516.5    1072.1    0.0    0.0    0.0
averaged    2.6   13552.2    0.2    0.0   22341.8     531.9    0.0    0.0    0.0
averaged    7.4   27886.2    4.3    0.0   50517.5    1071.2    0.0    0.0    0.0
             62774340  WORDS OF DYNAMIC MEMORY USED
 EXECUTION OF GAMESS TERMINATED NORMALLY Mon Dec  9 01:03:43 2019
 DDI: 263640 bytes (0.3 MB / 0 MWords) used by master data server.

 ----------------------------------------
 CPU timing information for all processes
 ========================================
 0: 36000.345 + 704.205 = 36704.550
 1: 36378.178 + 674.991 = 37053.169
 2: 35959.291 + 661.319 = 36620.610
 3: 36291.921 + 665.112 = 36957.33
 4: 36115.144 + 701.344 = 36816.488
 5: 36298.770 + 662.455 = 36961.225
 6: 35621.637 + 660.171 = 36281.809
 7: 35947.983 + 643.389 = 36591.372
 8: 35375.428 + 682.555 = 36057.984
 9: 35574.677 + 627.230 = 36201.908
 10: 35307.859 + 655.656 = 35963.515
 11: 35715.884 + 639.517 = 36355.402
 12: 35160.471 + 659.745 = 35820.217
 13: 35768.316 + 646.774 = 36415.91
 14: 35434.728 + 655.259 = 36089.987
 15: 35326.735 + 645.580 = 35972.316
 ----------------------------------------
 ddikick.x: exited gracefully.
unset echo
----- accounting info -----
Files used on the master node gollum087.lsa.umich.edu were:
-rw-r--r-- 1 hazwong frank    20876 Dec  8 02:58 /scratch/hazwong/824334/EXP_6/usrc/EXP_6_fmo_input.F05
-rw-r--r-- 1 hazwong frank      634 Dec  9 01:03 /scratch/hazwong/824334/EXP_6/usrc/EXP_6_fmo_input.F06.001
-rw-r--r-- 1 hazwong frank      634 Dec  9 01:03 /scratch/hazwong/824334/EXP_6/usrc/EXP_6_fmo_input.F06.002
-rw-r--r-- 1 hazwong frank      634 Dec  9 01:03 /scratch/hazwong/824334/EXP_6/usrc/EXP_6_fmo_input.F06.003
-rw-r--r-- 1 hazwong frank      634 Dec  9 01:03 /scratch/hazwong/824334/EXP_6/usrc/EXP_6_fmo_input.F06.004
-rw-r--r-- 1 hazwong frank      634 Dec  9 01:03 /scratch/hazwong/824334/EXP_6/usrc/EXP_6_fmo_input.F06.005
-rw-r--r-- 1 hazwong frank      634 Dec  9 01:03 /scratch/hazwong/824334/EXP_6/usrc/EXP_6_fmo_input.F06.006
-rw-r--r-- 1 hazwong frank      634 Dec  9 01:03 /scratch/hazwong/824334/EXP_6/usrc/EXP_6_fmo_input.F06.007
-rw-r--r-- 1 hazwong frank      634 Dec  9 01:03 /scratch/hazwong/824334/EXP_6/usrc/EXP_6_fmo_input.F06.008
-rw-r--r-- 1 hazwong frank      634 Dec  9 01:03 /scratch/hazwong/824334/EXP_6/usrc/EXP_6_fmo_input.F06.009
-rw-r--r-- 1 hazwong frank      634 Dec  9 01:03 /scratch/hazwong/824334/EXP_6/usrc/EXP_6_fmo_input.F06.010
-rw-r--r-- 1 hazwong frank      634 Dec  9 01:03 /scratch/hazwong/824334/EXP_6/usrc/EXP_6_fmo_input.F06.011
-rw-r--r-- 1 hazwong frank      634 Dec  9 01:03 /scratch/hazwong/824334/EXP_6/usrc/EXP_6_fmo_input.F06.012
-rw-r--r-- 1 hazwong frank      634 Dec  9 01:03 /scratch/hazwong/824334/EXP_6/usrc/EXP_6_fmo_input.F06.013
-rw-r--r-- 1 hazwong frank      634 Dec  9 01:03 /scratch/hazwong/824334/EXP_6/usrc/EXP_6_fmo_input.F06.014
-rw-r--r-- 1 hazwong frank      634 Dec  9 01:03 /scratch/hazwong/824334/EXP_6/usrc/EXP_6_fmo_input.F06.015
-rw-r--r-- 1 hazwong frank    14783 Dec  9 01:03 /scratch/hazwong/824334/EXP_6/usrc/EXP_6_fmo_input.F07
-rw-r--r-- 1 hazwong frank        0 Dec  8 02:58 /scratch/hazwong/824334/EXP_6/usrc/EXP_6_fmo_input.F07.001
-rw-r--r-- 1 hazwong frank        0 Dec  8 02:58 /scratch/hazwong/824334/EXP_6/usrc/EXP_6_fmo_input.F07.002
-rw-r--r-- 1 hazwong frank        0 Dec  8 02:58 /scratch/hazwong/824334/EXP_6/usrc/EXP_6_fmo_input.F07.003
-rw-r--r-- 1 hazwong frank        0 Dec  8 02:58 /scratch/hazwong/824334/EXP_6/usrc/EXP_6_fmo_input.F07.004
-rw-r--r-- 1 hazwong frank        0 Dec  8 02:58 /scratch/hazwong/824334/EXP_6/usrc/EXP_6_fmo_input.F07.005
-rw-r--r-- 1 hazwong frank        0 Dec  8 02:58 /scratch/hazwong/824334/EXP_6/usrc/EXP_6_fmo_input.F07.006
-rw-r--r-- 1 hazwong frank        0 Dec  8 02:58 /scratch/hazwong/824334/EXP_6/usrc/EXP_6_fmo_input.F07.007
-rw-r--r-- 1 hazwong frank        0 Dec  8 02:58 /scratch/hazwong/824334/EXP_6/usrc/EXP_6_fmo_input.F07.008
-rw-r--r-- 1 hazwong frank        0 Dec  8 02:58 /scratch/hazwong/824334/EXP_6/usrc/EXP_6_fmo_input.F07.009
-rw-r--r-- 1 hazwong frank        0 Dec  8 02:58 /scratch/hazwong/824334/EXP_6/usrc/EXP_6_fmo_input.F07.010
-rw-r--r-- 1 hazwong frank        0 Dec  8 02:58 /scratch/hazwong/824334/EXP_6/usrc/EXP_6_fmo_input.F07.011
-rw-r--r-- 1 hazwong frank        0 Dec  8 02:58 /scratch/hazwong/824334/EXP_6/usrc/EXP_6_fmo_input.F07.012
-rw-r--r-- 1 hazwong frank        0 Dec  8 02:58 /scratch/hazwong/824334/EXP_6/usrc/EXP_6_fmo_input.F07.013
-rw-r--r-- 1 hazwong frank        0 Dec  8 02:58 /scratch/hazwong/824334/EXP_6/usrc/EXP_6_fmo_input.F07.014
-rw-r--r-- 1 hazwong frank        0 Dec  8 02:58 /scratch/hazwong/824334/EXP_6/usrc/EXP_6_fmo_input.F07.015
-rw-r--r-- 1 hazwong frank    65440 Dec  9 01:03 /scratch/hazwong/824334/EXP_6/usrc/EXP_6_fmo_input.F10.000
-rw-r--r-- 1 hazwong frank        0 Dec  8 02:58 /scratch/hazwong/824334/EXP_6/usrc/EXP_6_fmo_input.F26.000
-rw-r--r-- 1 hazwong frank        0 Dec  8 02:58 /scratch/hazwong/824334/EXP_6/usrc/EXP_6_fmo_input.F26.001
-rw-r--r-- 1 hazwong frank        0 Dec  8 02:58 /scratch/hazwong/824334/EXP_6/usrc/EXP_6_fmo_input.F26.002
-rw-r--r-- 1 hazwong frank        0 Dec  8 02:58 /scratch/hazwong/824334/EXP_6/usrc/EXP_6_fmo_input.F26.003
-rw-r--r-- 1 hazwong frank        0 Dec  8 02:58 /scratch/hazwong/824334/EXP_6/usrc/EXP_6_fmo_input.F26.004
-rw-r--r-- 1 hazwong frank        0 Dec  8 02:58 /scratch/hazwong/824334/EXP_6/usrc/EXP_6_fmo_input.F26.005
-rw-r--r-- 1 hazwong frank        0 Dec  8 02:58 /scratch/hazwong/824334/EXP_6/usrc/EXP_6_fmo_input.F26.006
-rw-r--r-- 1 hazwong frank        0 Dec  8 02:58 /scratch/hazwong/824334/EXP_6/usrc/EXP_6_fmo_input.F26.007
-rw-r--r-- 1 hazwong frank        0 Dec  8 02:58 /scratch/hazwong/824334/EXP_6/usrc/EXP_6_fmo_input.F26.008
-rw-r--r-- 1 hazwong frank        0 Dec  8 02:58 /scratch/hazwong/824334/EXP_6/usrc/EXP_6_fmo_input.F26.009
-rw-r--r-- 1 hazwong frank        0 Dec  8 02:58 /scratch/hazwong/824334/EXP_6/usrc/EXP_6_fmo_input.F26.010
-rw-r--r-- 1 hazwong frank        0 Dec  8 02:58 /scratch/hazwong/824334/EXP_6/usrc/EXP_6_fmo_input.F26.011
-rw-r--r-- 1 hazwong frank        0 Dec  8 02:58 /scratch/hazwong/824334/EXP_6/usrc/EXP_6_fmo_input.F26.012
-rw-r--r-- 1 hazwong frank        0 Dec  8 02:58 /scratch/hazwong/824334/EXP_6/usrc/EXP_6_fmo_input.F26.013
-rw-r--r-- 1 hazwong frank        0 Dec  8 02:58 /scratch/hazwong/824334/EXP_6/usrc/EXP_6_fmo_input.F26.014
-rw-r--r-- 1 hazwong frank        0 Dec  8 02:58 /scratch/hazwong/824334/EXP_6/usrc/EXP_6_fmo_input.F26.015
-rw-r--r-- 1 hazwong frank        0 Dec  8 02:58 /scratch/hazwong/824334/EXP_6/usrc/EXP_6_fmo_input.F27.000
-rw-r--r-- 1 hazwong frank        0 Dec  8 02:58 /scratch/hazwong/824334/EXP_6/usrc/EXP_6_fmo_input.F27.001
-rw-r--r-- 1 hazwong frank        0 Dec  8 02:58 /scratch/hazwong/824334/EXP_6/usrc/EXP_6_fmo_input.F27.002
-rw-r--r-- 1 hazwong frank        0 Dec  8 02:58 /scratch/hazwong/824334/EXP_6/usrc/EXP_6_fmo_input.F27.003
-rw-r--r-- 1 hazwong frank        0 Dec  8 02:58 /scratch/hazwong/824334/EXP_6/usrc/EXP_6_fmo_input.F27.004
-rw-r--r-- 1 hazwong frank        0 Dec  8 02:58 /scratch/hazwong/824334/EXP_6/usrc/EXP_6_fmo_input.F27.005
-rw-r--r-- 1 hazwong frank        0 Dec  8 02:58 /scratch/hazwong/824334/EXP_6/usrc/EXP_6_fmo_input.F27.006
-rw-r--r-- 1 hazwong frank        0 Dec  8 02:58 /scratch/hazwong/824334/EXP_6/usrc/EXP_6_fmo_input.F27.007
-rw-r--r-- 1 hazwong frank        0 Dec  8 02:58 /scratch/hazwong/824334/EXP_6/usrc/EXP_6_fmo_input.F27.008
-rw-r--r-- 1 hazwong frank        0 Dec  8 02:58 /scratch/hazwong/824334/EXP_6/usrc/EXP_6_fmo_input.F27.009
-rw-r--r-- 1 hazwong frank        0 Dec  8 02:58 /scratch/hazwong/824334/EXP_6/usrc/EXP_6_fmo_input.F27.010
-rw-r--r-- 1 hazwong frank        0 Dec  8 02:58 /scratch/hazwong/824334/EXP_6/usrc/EXP_6_fmo_input.F27.011
-rw-r--r-- 1 hazwong frank        0 Dec  8 02:58 /scratch/hazwong/824334/EXP_6/usrc/EXP_6_fmo_input.F27.012
-rw-r--r-- 1 hazwong frank        0 Dec  8 02:58 /scratch/hazwong/824334/EXP_6/usrc/EXP_6_fmo_input.F27.013
-rw-r--r-- 1 hazwong frank        0 Dec  8 02:58 /scratch/hazwong/824334/EXP_6/usrc/EXP_6_fmo_input.F27.014
-rw-r--r-- 1 hazwong frank        0 Dec  8 02:58 /scratch/hazwong/824334/EXP_6/usrc/EXP_6_fmo_input.F27.015
-rw-r--r-- 1 hazwong frank 26624000 Dec  8 10:43 /scratch/hazwong/824334/EXP_6/usrc/EXP_6_fmo_input.F40.000
-rw-r--r-- 1 hazwong frank 26624000 Dec  8 10:43 /scratch/hazwong/824334/EXP_6/usrc/EXP_6_fmo_input.F40.001
-rw-r--r-- 1 hazwong frank 26624000 Dec  8 10:43 /scratch/hazwong/824334/EXP_6/usrc/EXP_6_fmo_input.F40.002
-rw-r--r-- 1 hazwong frank 26624000 Dec  8 10:43 /scratch/hazwong/824334/EXP_6/usrc/EXP_6_fmo_input.F40.003
-rw-r--r-- 1 hazwong frank 26624000 Dec  8 10:43 /scratch/hazwong/824334/EXP_6/usrc/EXP_6_fmo_input.F40.004
-rw-r--r-- 1 hazwong frank 26624000 Dec  8 10:43 /scratch/hazwong/824334/EXP_6/usrc/EXP_6_fmo_input.F40.005
-rw-r--r-- 1 hazwong frank 26624000 Dec  8 10:43 /scratch/hazwong/824334/EXP_6/usrc/EXP_6_fmo_input.F40.006
-rw-r--r-- 1 hazwong frank 26624000 Dec  8 10:43 /scratch/hazwong/824334/EXP_6/usrc/EXP_6_fmo_input.F40.007
-rw-r--r-- 1 hazwong frank 26624000 Dec  8 10:43 /scratch/hazwong/824334/EXP_6/usrc/EXP_6_fmo_input.F40.008
-rw-r--r-- 1 hazwong frank 26624000 Dec  8 10:43 /scratch/hazwong/824334/EXP_6/usrc/EXP_6_fmo_input.F40.009
-rw-r--r-- 1 hazwong frank 26624000 Dec  8 10:43 /scratch/hazwong/824334/EXP_6/usrc/EXP_6_fmo_input.F40.010
-rw-r--r-- 1 hazwong frank 26624000 Dec  8 10:43 /scratch/hazwong/824334/EXP_6/usrc/EXP_6_fmo_input.F40.011
-rw-r--r-- 1 hazwong frank 26624000 Dec  8 10:43 /scratch/hazwong/824334/EXP_6/usrc/EXP_6_fmo_input.F40.012
-rw-r--r-- 1 hazwong frank 26624000 Dec  8 10:43 /scratch/hazwong/824334/EXP_6/usrc/EXP_6_fmo_input.F40.013
-rw-r--r-- 1 hazwong frank 26624000 Dec  8 10:43 /scratch/hazwong/824334/EXP_6/usrc/EXP_6_fmo_input.F40.014
-rw-r--r-- 1 hazwong frank 26624000 Dec  8 10:43 /scratch/hazwong/824334/EXP_6/usrc/EXP_6_fmo_input.F40.015
ls: No match.
ls: No match.
ls: No match.
Mon Dec  9 01:03:46 EST 2019
0.259u 0.141s 22:04:50.82 0.0%	0+0k 1560+152io 26pf+0w
