‘4A4T_4_fmo_input.inp’ -> ‘/scratch/hazwong/824140/./4A4T_4_fmo_input.inp’
‘rungms’ -> ‘/scratch/hazwong/824140/./rungms’
‘gms-files.csh’ -> ‘/scratch/hazwong/824140/./gms-files.csh’
----- GAMESS execution script 'rungms' -----
This job is running on host gollum058.lsa.umich.edu
under operating system Linux at Sat Dec 7 00:06:23 EST 2019
Available scratch disk space (Kbyte units) at beginning of the job is
Filesystem     1K-blocks  Used Available Use% Mounted on
/dev/sda4      426933580 33492 426900088   1% /scratch
GAMESS temporary binary files will be written to /scratch/hazwong/824140/4A4T_4/usrc
GAMESS supplementary output files will be written to /scratch/hazwong/824140/4A4T_4/src
Copying input file 4A4T_4_fmo_input.inp to your run's scratch directory...
cp 4A4T_4_fmo_input.inp /scratch/hazwong/824140/4A4T_4/usrc/4A4T_4_fmo_input.F05
unset echo
This is a GDDI run, keeping various output files on local disks
setenv OUTPUT /scratch/hazwong/824140/4A4T_4/usrc/4A4T_4_fmo_input.F06
setenv PUNCH /scratch/hazwong/824140/4A4T_4/usrc/4A4T_4_fmo_input.F07
unset echo
 
Assuming a single but multicore node.
 
/export/apps/CentOS7/gamess/src/build//ddikick.x /export/apps/CentOS7/gamess/src/build//gamess.R3.x 4A4T_4_fmo_input -ddi 1 16 gollum058.lsa.umich.edu:cpus=16 -scr /scratch/hazwong/824140/4A4T_4/usrc

 Distributed Data Interface kickoff program.
 Initiating 16 compute processes on 1 nodes to run the following command:
 /export/apps/CentOS7/gamess/src/build//gamess.R3.x 4A4T_4_fmo_input 

          ******************************************************
          *         GAMESS VERSION = 30 SEP 2018 (R3)         *
          *             FROM IOWA STATE UNIVERSITY             *
          * M.W.SCHMIDT, K.K.BALDRIDGE, J.A.BOATZ, S.T.ELBERT, *
          *   M.S.GORDON, J.H.JENSEN, S.KOSEKI, N.MATSUNAGA,   *
          *          K.A.NGUYEN, S.J.SU, T.L.WINDUS,           *
          *       TOGETHER WITH M.DUPUIS, J.A.MONTGOMERY       *
          *         J.COMPUT.CHEM.  14, 1347-1363(1993)        *
          **************** 64 BIT LINUX VERSION ****************

  SINCE 1993, STUDENTS AND POSTDOCS WORKING AT IOWA STATE UNIVERSITY
  AND ALSO IN THEIR VARIOUS JOBS AFTER LEAVING ISU HAVE MADE IMPORTANT
  CONTRIBUTIONS TO THE CODE:
     IVANA ADAMOVIC, CHRISTINE AIKENS, YURI ALEXEEV, POOJA ARORA,
     ANDREY ASADCHEV, ROB BELL, PRADIPTA BANDYOPADHYAY, JONATHAN BENTZ,
     BRETT BODE, KURT BRORSEN, CALEB CARLIN, GALINA CHABAN, WEI CHEN,
     CHEOL HO CHOI, PAUL DAY, ALBERT DEFUSCO, NUWAN DESILVA, TIM DUDLEY,
     DMITRI FEDOROV, ALEX FINDLATER, GRAHAM FLETCHER, MARK FREITAG,
     KURT GLAESEMANN, ANASTASIA GUNINA,
     DAN KEMP, GRANT MERRILL, NORIYUKI MINEZAWA, JONATHAN MULLIN,
     TAKESHI NAGATA, SEAN NEDD, HEATHER NETZLOFF, BOSILJKA NJEGIC, RYAN OLSON,
     MIKE PAK, BUU PHAM,
     SPENCER PRUITT, LUKE ROSKOP, JIM SHOEMAKER, LYUDMILA SLIPCHENKO,
     TONY SMITH, SAROM SOK LEANG, JIE SONG, TETSUYA TAKETSUGU, SIMON WEBB,
     PENG XU, SOOHAENG YOO, FEDERICO ZAHARIEV

  ADDITIONAL CODE HAS BEEN PROVIDED BY COLLABORATORS IN OTHER GROUPS:
     IOWA STATE UNIVERSITY:
          JOE IVANIC, AARON WEST, LAIMUTIS BYTAUTAS, KLAUS RUEDENBERG
     UNIVERSITY OF TOKYO: KIMIHIKO HIRAO, TAKAHITO NAKAJIMA,
          TAKAO TSUNEDA, MUNEAKI KAMIYA, SUSUMU YANAGISAWA,
          KIYOSHI YAGI, MAHITO CHIBA, SEIKEN TOKURA, NAOAKI KAWAKAMI
     UNIVERSITY OF AARHUS: FRANK JENSEN
     UNIVERSITY OF IOWA: VISVALDAS KAIRYS, HUI LI
     NATIONAL INST. OF STANDARDS AND TECHNOLOGY: WALT STEVENS, DAVID GARMER
     UNIVERSITY OF PISA: BENEDETTA MENNUCCI, JACOPO TOMASI
     UNIVERSITY OF MEMPHIS: HENRY KURTZ, PRAKASHAN KORAMBATH
     UNIVERSITY OF ALBERTA: TOBY ZENG, MARIUSZ KLOBUKOWSKI
     UNIVERSITY OF NEW ENGLAND: MARK SPACKMAN
     MIE UNIVERSITY: HIROAKI UMEDA
     NAT. INST. OF ADVANCED INDUSTRIAL SCIENCE AND TECHNOLOGY: KAZUO KITAURA
     MICHIGAN STATE UNIVERSITY:
          KAROL KOWALSKI, MARTA WLOCH, JEFFREY GOUR, JESSE LUTZ,
          WEI LI, JUN SHEN, J. EMILIANO DEUSTUA, PIOTR PIECUCH
     UNIVERSITY OF MINNESOTA:
          YINAN SHU
     UNIVERSITY OF SILESIA: MONIKA MUSIAL, STANISLAW KUCHARSKI
     FACULTES UNIVERSITAIRES NOTRE-DAME DE LA PAIX:
          OLIVIER QUINET, BENOIT CHAMPAGNE
     UNIVERSITY OF CALIFORNIA - SANTA BARBARA: BERNARD KIRTMAN
     INSTITUTE FOR MOLECULAR SCIENCE:
          KAZUYA ISHIMURA, MICHIO KATOUDA, AND SHIGERU NAGASE
     UNIVERSITY OF NOTRE DAME: ANNA POMOGAEVA, DAN CHIPMAN
     KYUSHU UNIVERSITY:
          HARUYUKI NAKANO,
          FENG LONG GU, JACEK KORCHOWIEC, MARCIN MAKOWSKI, AND YURIKO AOKI,
          HIROTOSHI MORI AND EISAKU MIYOSHI
     PENNSYLVANIA STATE UNIVERSITY:
          TZVETELIN IORDANOV, CHET SWALINA, JONATHAN SKONE,
          SHARON HAMMES-SCHIFFER
     WASEDA UNIVERSITY:
          MASATO KOBAYASHI, TOMOKO AKAMA, TSUGUKI TOUMA,
          TAKESHI YOSHIKAWA, YASUHIRO IKABATA, JUNJI SEINO,
          YUYA NAKAJIMA, HIROMI NAKAI
     NANJING UNIVERSITY: SHUHUA LI
     UNIVERSITY OF NEBRASKA:
          PEIFENG SU, DEJUN SI, NANDUN THELLAMUREGE, YALI WANG, HUI LI
     UNIVERSITY OF ZURICH: ROBERTO PEVERATI, KIM BALDRIDGE
     N. COPERNICUS UNIVERSITY AND JACKSON STATE UNIVERSITY:
          MARIA BARYSZ
     UNIVERSITY OF COPENHAGEN: Jimmy Kromann, CASPER STEINMANN
     TOKYO INSTITUTE OF TECHNOLOGY: HIROYA NAKATA
     NAGOYA UNIVERSITY: YOSHIO NISHIMOTO, STEPHAN IRLE
     MOSCOW STATE UNIVERSITY: VLADIMIR MIRONOV


 PARALLEL VERSION RUNNING ON       16 PROCESSORS IN        1 NODES.

 EXECUTION OF GAMESS BEGUN Sat Dec  7 00:06:24 2019

            ECHO OF THE FIRST FEW INPUT CARDS -
 INPUT CARD>!*** FMO 5.3 (Gamess) INPUT generated by Facio 22.1.1.32 ***                    
 INPUT CARD> $CONTRL RUNTYP=ENERGY NPRINT=-5 ISPHER=1 MAXIT=200 $END                        
 INPUT CARD> $SYSTEM MWORDS=63 MEMDDI=63 $END                                               
 INPUT CARD> $GDDI NGROUP=1 $END                                                            
 INPUT CARD> $SCF DIRSCF=.TRUE. NPUNCH=0 $END                                               
 INPUT CARD>!*** NumCPU : 2  MemPerNode : 512MB                                             
 INPUT CARD> $PCM SOLVNT=WATER IEF=-10 ICOMP=2 ICAV=1 IDISP=1 IFMO=-1 $END                  
 INPUT CARD> $PCMCAV RADII=SUAHF $END                                                       
 INPUT CARD> $TESCAV NTSALL=60 $END                                                         
 INPUT CARD> $FMOPRP                                                                        
 INPUT CARD>    NAODIR=200                                                                  
 INPUT CARD>    NGRFMO(1)=1, 1, 0, 0, 0,   0, 0, 0, 0, 0                                    
 INPUT CARD>    IPIEDA=1                                                                    
 INPUT CARD>    NPRINT=9                                                                    
 INPUT CARD> $END                                                                           
 INPUT CARD> $FMO                                                                           
 INPUT CARD>      SCFTYP(1)=RHF                                                             
 INPUT CARD>      MODGRD=10                                                                 
 INPUT CARD>      MODMUL=0                                                                  
 INPUT CARD>      MAXCAO=5                                                                  
 INPUT CARD>      MAXBND=10                                                                 
 INPUT CARD>      NLAYER=1                                                                  
 INPUT CARD>      MPLEVL(1)=2                                                               
 INPUT CARD>      NFRAG=8                                                                   
 INPUT CARD>      ICHARG(1)=-1, -1, -1, -1, -1, -1, -1, 0                                   
 INPUT CARD>      FRGNAM(1)=F1, F2, F3, F4, F5, F6, F7, F8                                  
 INPUT CARD>      indat(1)=0                                                                
 INPUT CARD>               1   -36   0                                                      
 INPUT CARD>               37   -67   0                                                     
 INPUT CARD>               68   -97   0                                                     
 INPUT CARD>               98   -127   0                                                    
 INPUT CARD>               128   -160   0                                                   
 INPUT CARD>               161   -191   0                                                   
 INPUT CARD>               192   -225   0                                                   
 INPUT CARD>               226   -253   0                                                   
 INPUT CARD> $END                                                                           
 INPUT CARD>                                                                                
 INPUT CARD> $FMOBND                                                                        
 INPUT CARD>   -37   36       6-31G*    MINI                                                
 INPUT CARD>   -68   67       6-31G*    MINI                                                
 INPUT CARD>   -98   97       6-31G*    MINI                                                
 INPUT CARD>   -128   127       6-31G*    MINI                                              
 INPUT CARD>   -161   160       6-31G*    MINI                                              
 INPUT CARD>   -192   191       6-31G*    MINI                                              
 INPUT CARD>   -226   225       6-31G*    MINI                                              
 INPUT CARD> $END                                                                           
 INPUT CARD> $FMOHYB                                                                        
 INPUT CARD> 6-31G*      15   5                                                             
 INPUT CARD>   1 0  -0.065034   0.288264   0.000000   0.000000   0.604412                   
 INPUT CARD>         0.290129   0.000000   0.000000   0.319045  -0.017106                   


 -------------------------------------------------------------
 GROUP DDI, PROGRAMMED BY: RYAN M. OLSON AND DMITRI G. FEDOROV
        FEDOROV ET AL., J. COMPUT. CHEM., 25 (2004) 872.
 -------------------------------------------------------------

 -------------------------------------------------------
 GDDI: INITIALIZATION COMPLETED FOR GROUP     1 OF     1
 WITH    16 PROCESSES BALTYP=DLB   global rank=        0
 -------------------------------------------------------

   63000000 WORDS OF MEMORY AVAILABLE


     RUN TITLE
     ---------
  FMO calculation                                                                

 THE POINT GROUP OF THE MOLECULE IS C1      
 THE ORDER OF THE PRINCIPAL AXIS IS     0

 ATOM   ATOMIC CHARGE
 H.1-1       1.0
 O.1-1       8.0
 C.1-1       6.0
 N.1-1       7.0
 P.1-1      15.0

     ATOMIC BASIS SET LIBRARY
     ----------------
 THE CONTRACTED PRIMITIVE FUNCTIONS HAVE BEEN UNNORMALIZED
 THE CONTRACTED BASIS FUNCTIONS ARE NOW NORMALIZED TO UNITY

  SHELL TYPE  PRIMITIVE        EXPONENT          CONTRACTION COEFFICIENT(S)

 H.1-1     

      1   S       1            18.7311370    0.033494604338
      1   S       2             2.8253944    0.234726953484
      1   S       3             0.6401217    0.813757326146

      2   S       4             0.1612778    1.000000000000

 O.1-1     

      3   S       5          5484.6716600    0.001831074430
      3   S       6           825.2349460    0.013950172200
      3   S       7           188.0469580    0.068445078098
      3   S       8            52.9645000    0.232714335992
      3   S       9            16.8975704    0.470192897984
      3   S      10             5.7996353    0.358520852987

      4   L      11            15.5396162   -0.110777549525    0.070874268231
      4   L      12             3.5999336   -0.148026262701    0.339752839147
      4   L      13             1.0137618    1.130767015354    0.727158577316

      5   L      14             0.2700058    1.000000000000    1.000000000000

      6   D      15             0.8000000    1.000000000000

 C.1-1     

      7   S      16          3047.5248800    0.001834737132
      7   S      17           457.3695180    0.014037322813
      7   S      18           103.9486850    0.068842622264
      7   S      19            29.2101553    0.232184443216
      7   S      20             9.2866630    0.467941348435
      7   S      21             3.1639270    0.362311985337

      8   L      22             7.8682723   -0.119332419775    0.068999066591
      8   L      23             1.8812885   -0.160854151696    0.316423960957
      8   L      24             0.5442493    1.143456437840    0.744308290898

      9   L      25             0.1687145    1.000000000000    1.000000000000

     10   D      26             0.8000000    1.000000000000

 N.1-1     

     11   S      27          4173.5114600    0.001834772160
     11   S      28           627.4579110    0.013994627002
     11   S      29           142.9020930    0.068586551812
     11   S      30            40.2343293    0.232240873040
     11   S      31            12.8202129    0.469069948082
     11   S      32             4.3904370    0.360455199063

     12   L      33            11.6263619   -0.114961181702    0.067579743878
     12   L      34             2.7162798   -0.169117478561    0.323907295893
     12   L      35             0.7722184    1.145851947027    0.740895139755

     13   L      36             0.2120315    1.000000000000    1.000000000000

     14   D      37             0.8000000    1.000000000000

 P.1-1     

     15   S      38         19413.3000000    0.001851598923
     15   S      39          2909.4200000    0.014206191735
     15   S      40           661.3640000    0.069999459277
     15   S      41           185.7590000    0.240078860331
     15   S      42            59.1943000    0.484761717984
     15   S      43            20.0310000    0.335199804993

     16   L      44           339.4780000   -0.002782170105    0.004564616191
     16   L      45            81.0101000   -0.036049901354    0.033693571881
     16   L      46            25.8780000   -0.116631004382    0.139754883368
     16   L      47             9.4522100    0.096832803638    0.339361716786
     16   L      48             3.6656600    0.614418023082    0.450920623685
     16   L      49             1.4674600    0.403798015170    0.238585800889

     17   L      50             2.1562300   -0.252924113863   -0.017765312733
     17   L      51             0.7489970    0.032851844678    0.274058196433
     17   L      52             0.2831450    1.081254761783    0.785421562957

     18   L      53             0.0998317    1.000000000000    1.000000000000

     19   D      54             0.5500000    1.000000000000

 TOTAL NUMBER OF BASIS SET SHELLS             =   19
 NUMBER OF CARTESIAN GAUSSIAN BASIS FUNCTIONS =   66

     $CONTRL OPTIONS
     ---------------
 SCFTYP=RHF          RUNTYP=ENERGY       EXETYP=RUN     
 MPLEVL=       0     CITYP =NONE         CCTYP =NONE         VBTYP =NONE    
 DFTTYP=NONE         TDDFT =NONE    
 MULT  =       1     ICHARG=       0     NZVAR =       0     COORD =UNIQUE  
 PP    =NONE         RELWFN=NONE         LOCAL =NONE         NUMGRD=       F
 ISPHER=       1     NOSYM =       0     MAXIT =     200     UNITS =ANGS    
 PLTORB=       F     MOLPLT=       F     AIMPAC=       F     FRIEND=        
 NPRINT=      -5     IREST =       0     GEOM  =INPUT   
 NORMF =       0     NORMP =       0     ITOL  =      24     ICUT  =      12
 INTTYP=BEST         GRDTYP=BEST         QMTTOL= 1.0E-06

     $SYSTEM OPTIONS
     ---------------
  REPLICATED MEMORY=    63000000 WORDS (ON EVERY NODE).
 DISTRIBUTED MEMDDI=          63 MILLION WORDS IN AGGREGATE,
 MEMDDI DISTRIBUTED OVER  16 PROCESSORS IS     3937500 WORDS/PROCESSOR.
 TOTAL MEMORY REQUESTED ON EACH PROCESSOR=    66937500 WORDS.
 TIMLIM=      525600.00 MINUTES, OR     365.0 DAYS.
 PARALL= T  BALTYP=  DLB     KDIAG=    0  COREFL= F
 MXSEQ2=     300 MXSEQ3=     150  mem10=         0

 ** LOOKING UP INTERNALLY STORED DATA FOR SOLVENT=WATER    **
 OPTICAL AND PHYSICAL CONSTANTS:
 EPS= 78.390; EPSINF=  1.776; RSOLV=  1.385 A; VMOL=  18.070 ML/MOL;
 TCE= .25700E-03 1/K; STEN= 71.810 DYN/CM;  DSTEN=  0.6500; CMF=  1.2770


     -----------------------------------
     INPUT FOR PCM SOLVATION CALCULATION 
     -----------------------------------
     IEF   =     -10
     ICOMP =       2     IFIELD=       0     ICAV  =       1
     IDISP =       1     IREP  =       0     IDP   =       0

     SOLVNT=WATER        EPS   = 78.3900     EPSINF=  1.7760
     VMOL  = 18.0700     TCE   =  0.00025700 STEN  = 71.8100
     DSTEN =  0.6500     CMF   =  1.2770     RSOLV =  1.3850

     NESFP =       0
     OMEGA = 40.0000     RET   =100.0000     FRO   =  0.7000

     TABS  =298.0000     IPRINT=       0

     --------------------------------
     INPUT FOR ITERATIVE C-PCM METHOD 
     --------------------------------
     IPCMIT  =         1     MXDIIS  =        50
     MXITR1  =       200     MXITR2  =       200
     THRES   = 0.100E-09     IMUL    =         3
     RCUT(1) =   20.0000     RCUT(2) =   50.0000

     IDIRCT  =         1
     IMGABI  =         0     RABI    =    4.0000
     IMGASC  =         0     RASC    =   20.0000
     THRSLS  = 0.500E-03     DENSLS  =    0.0100
     IEFPOL  =         1     REFPOL  =    0.0000

     INPUT FOR ISOTROPIC DIELECTRICS
     -------------------------------
     EPS=    78.39

          ----------------
          PROPERTIES INPUT
          ----------------

     MOMENTS            FIELD           POTENTIAL          DENSITY
 IEMOM =       1   IEFLD =       0   IEPOT =       0   IEDEN =       0
 WHERE =COMASS     WHERE =NUCLEI     WHERE =NUCLEI     WHERE =NUCLEI  
 OUTPUT=BOTH       OUTPUT=BOTH       OUTPUT=NONE       OUTPUT=BOTH    
 IEMINT=       0   IEFINT=       0                     IEDINT=       0
                                                       MORB  =       0
          EXTRAPOLATION IN EFFECT
          SOSCF IN EFFECT
 ORBITAL PRINTING OPTION: NPREO=     1 32767     2     1

     -------------------------------
     INTEGRAL TRANSFORMATION OPTIONS
     -------------------------------
     NWORD  =            0
     CUTOFF = 1.0E-10     MPTRAN =       0
     DIRTRF =       T     AOINTS =DUP     

          ----------------------
          INTEGRAL INPUT OPTIONS
          ----------------------
 NOPK  =       1 NORDER=       0 SCHWRZ=       T

 ..... DONE SETTING UP THE RUN .....
 CPU     0: STEP CPU TIME=     0.03 TOTAL CPU TIME=          0.0 (      0.0 MIN)
 TOTAL WALL CLOCK TIME=          0.1 SECONDS, CPU UTILIZATION IS    50.00%
 CPU     0: STEP CPU TIME=     0.00 TOTAL CPU TIME=          0.0 (      0.0 MIN)
 TOTAL WALL CLOCK TIME=          0.1 SECONDS, CPU UTILIZATION IS    50.00%

                    ----------------------
                    AO INTEGRAL TECHNOLOGY
                    ----------------------
     S,P,L SHELL ROTATED AXIS INTEGRALS, REPROGRAMMED BY
        KAZUYA ISHIMURA (IMS) AND JOSE SIERRA (SYNSTAR).
     S,P,D,L SHELL ROTATED AXIS INTEGRALS PROGRAMMED BY
        KAZUYA ISHIMURA (INSTITUTE FOR MOLECULAR SCIENCE).
     S,P,D,F,G SHELL TO TOTAL QUARTET ANGULAR MOMENTUM SUM 5,
        ERIC PROGRAM BY GRAHAM FLETCHER (ELORET AND NASA ADVANCED
        SUPERCOMPUTING DIVISION, AMES RESEARCH CENTER).
     S,P,D,F,G,L SHELL GENERAL RYS QUADRATURE PROGRAMMED BY
        MICHEL DUPUIS (PACIFIC NORTHWEST NATIONAL LABORATORY).
 Setting modorb=1 flag...
 Setting modorb=1 flag...

          -----------------------
          MP2 CONTROL INFORMATION
          -----------------------
          NACORE =        8  NBCORE =        8
          LMOMP2 =        F  AOINTS = DUP     
          METHOD =        2  NWORD  =               0
          MP2PRP =        F  OSPT   = NONE    
          CUTOFF = 1.00E-12  CPHFBS = BASISAO 
          CODE   = IMS     

          NUMBER OF CORE -A-  ORBITALS =     8
          NUMBER OF CORE -B-  ORBITALS =     8
          NUMBER OF OCC. -A-  ORBITALS =    18
          NUMBER OF OCC. -B-  ORBITALS =    18
          NUMBER OF MOLECULAR ORBITALS =    66
          NUMBER OF   BASIS  FUNCTIONS =    66

 CPU     0: STEP CPU TIME=     0.02 TOTAL CPU TIME=          0.0 (      0.0 MIN)
 TOTAL WALL CLOCK TIME=          0.1 SECONDS, CPU UTILIZATION IS    55.56%
 CPU     0: STEP CPU TIME=     0.00 TOTAL CPU TIME=          0.0 (      0.0 MIN)
 TOTAL WALL CLOCK TIME=          0.1 SECONDS, CPU UTILIZATION IS    55.56%

     INPUT FOR CAVITY DEFINITION 
     ---------------------------
   ATOM               COORDINATES                RADIUS       EPS
      1      0.4700     -7.5410      7.0490      0.0100     78.3900
      2      0.1570     -6.8570      7.6710      1.5900     78.3900
      3      1.2570     -6.5590      8.5410      1.7700     78.3900
      4      2.1540     -6.3120      7.9290      0.0100     78.3900
      5      1.4940     -7.4600      9.1490      0.0100     78.3900
      6      0.9630     -5.3900      9.4850      1.7700     78.3900
      7      1.8170     -5.2030     10.1700      0.0100     78.3900
      8      0.7520     -4.1700      8.7140      1.5900     78.3900
      9     -0.2850     -3.4160      9.3240      1.7700     78.3900
     10      0.1300     -2.4040      9.5230      0.0100     78.3900
     11     -1.4500     -3.2820      8.4350      1.6800     78.3900
     12     -2.4450     -2.3490      8.5520      1.7700     78.3900
     13     -3.8740      0.3250     10.2180      1.6800     78.3900
     14     -3.2600      0.4570     10.9900      0.0100     78.3900
     15     -4.6840      0.9110     10.1320      0.0100     78.3900
     16     -2.5390     -1.4120      9.5120      1.6800     78.3900
     17     -3.6090     -0.6360      9.3560      1.7700     78.3900
     18     -4.4830     -0.7630      8.3080      1.6800     78.3900
     19     -5.2680     -0.1320      8.2660      0.0100     78.3900
     20     -4.3990     -1.7040      7.2900      1.7700     78.3900
     21     -5.2270     -1.7450      6.3730      1.5900     78.3900
     22     -3.2870     -2.5680      7.4760      1.7700     78.3900
     23     -2.8460     -3.6420      6.7130      1.6800     78.3900
     24     -1.7500     -4.0380      7.3200      1.7700     78.3900
     25     -1.1060     -4.8610      6.9970      0.0100     78.3900
     26     -0.6270     -4.0810     10.6360      1.7700     78.3900
     27     -1.6900     -3.9450     10.9180      0.0100     78.3900
     28      0.2080     -3.5760     11.6620      1.5900     78.3900
     29     -0.0450     -4.0520     12.4620      0.0100     78.3900
     30     -0.3140     -5.5390     10.3280      1.7700     78.3900
     31     -1.0960     -5.9720      9.6600      0.0100     78.3900
     32     -0.0460     -6.3610     11.4830      1.5900     78.3900
     33     -1.2300     -7.1370     12.1770      2.1000     78.3900
     34     -2.0110     -7.8560     11.1510      1.5900     78.3900
     35     -0.6460     -7.9500     13.2640      1.5900     78.3900
     36     -2.1230     -5.9930     12.7960      1.5900     78.3900
     37     -1.6500     -5.2510     13.9460      1.7700     78.3900
     38     -0.6490     -4.7980     13.7610      0.0100     78.3900
     39     -1.5470     -5.9250     14.8270      0.0100     78.3900
     40     -2.6240     -4.1230     14.3200      1.7700     78.3900
     41     -2.2290     -3.5320     15.1770      0.0100     78.3900
     42     -2.7890     -3.2180     13.1890      1.5900     78.3900
     43     -4.1270     -2.7380     13.1520      1.7700     78.3900
     44     -4.0470     -1.6290     13.2370      0.0100     78.3900
     45     -4.8370     -3.0730     11.8800      1.6800     78.3900
     46     -4.3680     -4.0810     11.0700      1.7700     78.3900
     47     -3.4960     -4.6240     11.4400      0.0100     78.3900
     48     -4.9560     -4.3670      9.9000      1.7700     78.3900
     49     -4.5880     -5.1460      9.2330      0.0100     78.3900
     50     -5.9810     -2.3700     11.5080      1.7700     78.3900
     51     -6.4130     -1.4780     12.2530      1.5900     78.3900
     52     -6.5950     -2.6500     10.3370      1.6800     78.3900
     53     -6.1130     -3.6160      9.5390      1.7700     78.3900
     54     -6.7340     -3.8780      8.3920      1.6800     78.3900
     55     -7.5960     -3.4080      8.1660      0.0100     78.3900
     56     -6.4080     -4.5760      7.7580      0.0100     78.3900
     57     -4.8310     -3.2710     14.3830      1.7700     78.3900
     58     -5.8920     -3.4780     14.1880      0.0100     78.3900
     59     -4.7120     -2.3580     15.4610      1.5900     78.3900
     60     -4.9650     -2.8270     16.2710      0.0100     78.3900
     61     -4.0590     -4.5590     14.6490      1.7700     78.3900
     62     -4.3290     -5.3370     13.8990      0.0100     78.3900
     63     -4.1510     -5.0250     16.0100      1.5900     78.3900
     64     -5.0060     -6.2960     16.3760      2.1000     78.3900
     65     -4.4200     -7.4690     15.6950      1.5900     78.3900
     66     -5.1090     -6.3710     17.8500      1.5900     78.3900
     67     -6.4330     -6.0270     15.7740      1.5900     78.3900
     68     -7.3290     -5.0360     16.3180      1.7700     78.3900
     69     -6.8070     -4.0690     16.5000      0.0100     78.3900
     70     -7.7410     -5.3880     17.2920      0.0100     78.3900
     71     -8.5130     -4.7700     15.3680      1.7700     78.3900
     72     -9.2040     -4.0230     15.8110      0.0100     78.3900
     73     -8.0340     -4.2000     14.1090      1.5900     78.3900
     74     -8.7810     -4.7290     13.0240      1.7700     78.3900
     75     -9.1650     -3.8490     12.4570      0.0100     78.3900
     76     -7.9540     -5.5880     12.1200      1.6800     78.3900
     77     -6.7750     -6.1560     12.5460      1.7700     78.3900
     78     -6.4790     -5.8990     13.5580      0.0100     78.3900
     79     -8.4170     -5.8120     10.8400      1.7700     78.3900
     80     -9.4680     -5.3390     10.4260      1.5900     78.3900
     81     -7.6030     -6.5970     10.0610      1.6800     78.3900
     82     -7.9340     -6.7650      9.1210      0.0100     78.3900
     83     -6.4040     -7.1810     10.4150      1.7700     78.3900
     84     -5.7720     -7.8500      9.5990      1.5900     78.3900
     85     -5.9980     -6.9160     11.7600      1.7700     78.3900
     86     -5.0500     -7.3230     12.1060      0.0100     78.3900
     87     -9.9390     -5.4950     13.6270      1.7700     78.3900
     88    -10.2440     -6.3480     12.9850      0.0100     78.3900
     89    -11.0400     -4.6260     13.8380      1.5900     78.3900
     90    -11.3390     -4.2890     12.9720      0.0100     78.3900
     91     -9.3360     -5.9830     14.9390      1.7700     78.3900
     92     -8.5970     -6.7920     14.7400      0.0100     78.3900
     93    -10.3020     -6.3120     15.9590      1.5900     78.3900
     94    -10.5980     -7.8190     16.3040      2.1000     78.3900
     95     -9.5370     -8.7090     15.7730      1.5900     78.3900
     96    -10.8450     -7.9020     17.7600      1.5900     78.3900
     97    -11.9510     -8.1600     15.5690      1.5900     78.3900
     98    -12.0890     -8.1210     14.1330      1.7700     78.3900
     99    -11.2840     -8.7010     13.6260      0.0100     78.3900
    100    -12.0430     -7.0690     13.7820      0.0100     78.3900
    101    -13.4470     -8.6580     13.6560      1.7700     78.3900
    102    -13.5240     -9.7560     13.8240      0.0100     78.3900
    103    -14.5260     -8.0250     14.4170      1.5900     78.3900
    104    -15.5680     -7.6250     13.5390      1.7700     78.3900
    105    -16.5070     -8.0450     13.9730      0.0100     78.3900
    106    -15.6930     -6.1360     13.4490      1.6800     78.3900
    107    -14.8010     -5.2970     14.0910      1.7700     78.3900
    108    -14.0000     -5.7860     14.6520      0.0100     78.3900
    109    -16.7700     -5.6160     12.7600      1.7700     78.3900
    110    -17.6100     -6.3170     12.2040      1.5900     78.3900
    111    -16.8450     -4.2500     12.7460      1.6800     78.3900
    112    -17.6720     -3.8730     12.3090      0.0100     78.3900
    113    -16.0350     -3.3590     13.4130      1.7700     78.3900
    114    -16.2950     -2.1590     13.3990      1.5900     78.3900
    115    -14.9340     -3.9610     14.0980      1.7700     78.3900
    116    -14.2540     -3.3200     14.6600      0.0100     78.3900
    117    -15.2940     -8.2810     12.1960      1.7700     78.3900
    118    -15.6640     -7.6810     11.3370      0.0100     78.3900
    119    -15.8700     -9.5780     12.1590      1.5900     78.3900
    120    -15.5010    -10.0340     11.3850      0.0100     78.3900
    121    -13.7750     -8.3380     12.1820      1.7700     78.3900
    122    -13.3800     -7.3140     11.9730      0.0100     78.3900
    123    -13.2500     -9.3560     11.2960      1.5900     78.3900
    124    -12.1490     -8.9960     10.2340      2.1000     78.3900
    125    -11.1810     -8.0800     10.8700      1.5900     78.3900
    126    -11.6080    -10.2530      9.6730      1.5900     78.3900
    127    -12.9580     -8.2730      9.0940      1.5900     78.3900
    128    -12.3130     -7.3540      8.1760      1.7700     78.3900
    129    -12.0320     -7.8960      7.2460      0.0100     78.3900
    130    -11.3850     -6.8990      8.6030      0.0100     78.3900
    131    -13.2520     -6.2070      7.7740      1.7700     78.3900
    132    -14.0290     -6.5690      7.0690      0.0100     78.3900
    133    -13.9560     -5.7060      8.9470      1.5900     78.3900
    134    -14.1350     -4.3130      8.8320      1.7700     78.3900
    135    -15.2350     -4.1430      8.8910      0.0100     78.3900
    136    -13.4830     -3.6120      9.9290      1.6800     78.3900
    137    -12.9940     -2.1530     11.4920      1.7700     78.3900
    138    -12.0700     -3.1870     11.6210      1.6800     78.3900
    139    -12.4000     -4.0260     10.6680      1.7700     78.3900
    140    -11.8960     -4.9750     10.4550      0.0100     78.3900
    141    -14.2390     -0.1700     11.8510      1.6800     78.3900
    142    -14.9900     -0.5430     10.8090      1.7700     78.3900
    143    -15.7960      0.1480     10.5370      0.0100     78.3900
    144    -14.8970     -1.6390     10.0470      1.6800     78.3900
    145    -13.8710     -2.4080     10.4520      1.7700     78.3900
    146    -13.2070     -0.9670     12.2270      1.7700     78.3900
    147    -12.4510     -0.5930     13.2770      1.6800     78.3900
    148    -11.6770     -1.1360     13.6030      0.0100     78.3900
    149    -12.6290      0.2890     13.7180      0.0100     78.3900
    150    -13.6310     -3.8870      7.4710      1.7700     78.3900
    151    -13.1860     -2.8720      7.4700      0.0100     78.3900
    152    -14.6920     -3.9440      6.5380      1.5900     78.3900
    153    -14.2910     -3.8790      5.6630      0.0100     78.3900
    154    -12.5840     -4.9510      7.1840      1.7700     78.3900
    155    -11.6670     -4.7600      7.7920      0.0100     78.3900
    156    -12.3190     -5.1360      5.7780      1.5900     78.3900
    157    -10.9850     -4.6160      5.1250      2.1000     78.3900
    158     -9.9190     -4.6280      6.1390      1.5900     78.3900
    159    -10.7320     -5.4250      3.9150      1.5900     78.3900
    160    -11.3080     -3.1380      4.6900      1.5900     78.3900
    161    -12.4910     -2.7750      3.9570      1.7700     78.3900
    162    -13.4020     -3.0890      4.5090      0.0100     78.3900
    163    -12.5000     -3.2750      2.9640      0.0100     78.3900
    164    -12.5480     -1.2470      3.7940      1.7700     78.3900
    165    -12.2670     -0.7340      4.7330      0.0100     78.3900
    166    -11.6890     -0.7910      2.7160      1.5900     78.3900
    167    -12.4410     -0.6930      1.5030      1.7700     78.3900
    168    -12.4210      0.3850      1.2260      0.0100     78.3900
    169    -11.8380     -1.5160      0.3960      1.6800     78.3900
    170    -10.6340     -2.1620      0.6230      1.7700     78.3900
    171    -10.2030     -2.0690      1.6230      0.0100     78.3900
    172    -10.0240     -2.8760     -0.3290      1.7700     78.3900
    173     -9.0750     -3.3800     -0.1550      0.0100     78.3900
    174    -12.3960     -1.5700     -0.8870      1.7700     78.3900
    175    -13.4260     -0.9270     -1.1400      1.5900     78.3900
    176    -11.8060     -2.3110     -1.8510      1.6800     78.3900
    177    -10.6520     -2.9520     -1.6010      1.7700     78.3900
    178    -10.0830     -3.6530     -2.5800      1.6800     78.3900
    179    -10.5460     -3.6970     -3.4680      0.0100     78.3900
    180     -9.2030     -4.1140     -2.4610      0.0100     78.3900
    181    -13.8770     -1.0870      1.8610      1.7700     78.3900
    182    -14.0280     -2.1770      1.6990      0.0100     78.3900
    183    -14.8740     -0.3530      1.1770      1.5900     78.3900
    184    -14.7780      0.5740      1.4420      0.0100     78.3900
    185    -13.9210     -0.7620      3.3500      1.7700     78.3900
    186    -14.6990     -1.4080      3.8250      0.0100     78.3900
    187    -14.0990      0.6440      3.6480      1.5900     78.3900
    188    -15.2370      1.1750      4.5800      2.1000     78.3900
    189    -16.1110      2.0330      3.7530      1.5900     78.3900
    190    -15.8730      0.0530      5.3060      1.5900     78.3900
    191    -14.4590      2.0860      5.6040      1.5900     78.3900
    192    -15.2130      2.9570      6.4890      1.7700     78.3900
    193    -16.2350      2.5680      6.7100      0.0100     78.3900
    194    -15.3310      3.9580      6.0150      0.0100     78.3900
    195    -14.5210      3.1340      7.8490      1.7700     78.3900
    196    -15.1010      3.8130      8.5060      0.0100     78.3900
    197    -14.4440      1.8490      8.5300      1.5900     78.3900
    198    -13.1820      1.7400      9.1780      1.7700     78.3900
    199    -13.3750      1.5070     10.2450      0.0100     78.3900
    200    -12.3640      0.6690      8.5940      1.6800     78.3900
    201    -11.2230      0.1200      9.1240      1.7700     78.3900
    202     -8.8520     -0.0760     11.6560      1.6800     78.3900
    203     -9.1360      0.6360     12.2930      0.0100     78.3900
    204     -8.0080     -0.5870     11.8380      0.0100     78.3900
    205    -10.6390      0.4700     10.2850      1.6800     78.3900
    206     -9.5560     -0.2630     10.5510      1.7700     78.3900
    207     -9.0880     -1.2330      9.7070      1.6800     78.3900
    208     -8.2650     -1.7530      9.9720      0.0100     78.3900
    209     -9.6540     -1.5940      8.4970      1.7700     78.3900
    210     -9.1340     -2.4700      7.8090      1.5900     78.3900
    211    -10.8170     -0.8340      8.2160      1.7700     78.3900
    212    -11.6850     -0.8910      7.1420      1.6800     78.3900
    213    -12.5970      0.0070      7.4110      1.7700     78.3900
    214    -13.4710      0.2280      6.7930      0.0100     78.3900
    215    -12.5060      3.0870      9.0970      1.7700     78.3900
    216    -11.4010      3.0090      9.0660      0.0100     78.3900
    217    -12.8930      3.8750     10.2030      1.5900     78.3900
    218    -12.5390      4.7600     10.0550      0.0100     78.3900
    219    -13.0710      3.6330      7.7920      1.7700     78.3900
    220    -12.6020      3.1000      6.9320      0.0100     78.3900
    221    -13.0420      5.0800      7.6640      1.5900     78.3900
    222    -11.8610      5.7070      6.8250      2.1000     78.3900
    223    -11.6240      4.8780      5.6240      1.5900     78.3900
    224    -12.1290      7.1440      6.6000      1.5900     78.3900
    225    -10.6340      5.5550      7.8000      1.5900     78.3900
    226    -10.6260      6.2260      9.0830      1.7700     78.3900
    227    -11.5330      5.9880      9.6840      0.0100     78.3900
    228    -10.6040      7.3290      8.9410      0.0100     78.3900
    229     -9.3880      5.8420      9.9050      1.7700     78.3900
    230     -9.3520      6.4070     10.8610      0.0100     78.3900
    231     -9.4260      4.4250     10.2350      1.5900     78.3900
    232     -8.1080      3.8900     10.1570      1.7700     78.3900
    233     -7.9050      3.4380     11.1570      0.0100     78.3900
    234     -7.9770      2.8400      9.1080      1.6800     78.3900
    235     -8.8900      2.7690      8.0830      1.7700     78.3900
    236     -9.7020      3.4930      8.1120      0.0100     78.3900
    237     -8.8010      1.8370      7.1290      1.7700     78.3900
    238     -9.5320      1.7550      6.3300      0.0100     78.3900
    239     -6.9040      1.9550      9.1310      1.7700     78.3900
    240     -6.0590      2.0560     10.0320      1.5900     78.3900
    241     -6.7920      1.0080      8.1720      1.6800     78.3900
    242     -7.7060      0.9310      7.1900      1.7700     78.3900
    243     -7.5750     -0.0100      6.2610      1.6800     78.3900
    244     -6.8180     -0.6640      6.3270      0.0100     78.3900
    245     -8.2380     -0.1270      5.5210      0.0100     78.3900
    246     -7.1530      5.0550      9.9290      1.7700     78.3900
    247     -6.2800      4.7660      9.3080      0.0100     78.3900
    248     -6.7130      5.5710     11.1760      1.5900     78.3900
    249     -6.2570      6.4190     11.0270      0.0100     78.3900
    250     -8.0510      6.0330      9.1800      1.7700     78.3900
    251     -8.1760      5.7120      8.1230      0.0100     78.3900
    252     -7.6270      7.4050      9.2570      1.5900     78.3900
    253     -6.7980      7.5210      8.7610      0.0100     78.3900

     ----------------------------
     INPUT FOR TESSERA DEFINITION
     ----------------------------
     NTSALL  =        60     MTHALL  =         4
     MTHAUT  =         0     AUTFRE  =    2.0000
     NTSFRZ  =        60     KEEPSM  =         0
     AREAKP  =   10.0000     BONDRY  =    1.0000
     AREATL  =    0.0100

     SPHERE     INITS       METHOD
          1        60       FIXPVA
          2        60       FIXPVA
          3        60       FIXPVA
          4        60       FIXPVA
          5        60       FIXPVA
          6        60       FIXPVA
          7        60       FIXPVA
          8        60       FIXPVA
          9        60       FIXPVA
         10        60       FIXPVA
         11        60       FIXPVA
         12        60       FIXPVA
         13        60       FIXPVA
         14        60       FIXPVA
         15        60       FIXPVA
         16        60       FIXPVA
         17        60       FIXPVA
         18        60       FIXPVA
         19        60       FIXPVA
         20        60       FIXPVA
         21        60       FIXPVA
         22        60       FIXPVA
         23        60       FIXPVA
         24        60       FIXPVA
         25        60       FIXPVA
         26        60       FIXPVA
         27        60       FIXPVA
         28        60       FIXPVA
         29        60       FIXPVA
         30        60       FIXPVA
         31        60       FIXPVA
         32        60       FIXPVA
         33        60       FIXPVA
         34        60       FIXPVA
         35        60       FIXPVA
         36        60       FIXPVA
         37        60       FIXPVA
         38        60       FIXPVA
         39        60       FIXPVA
         40        60       FIXPVA
         41        60       FIXPVA
         42        60       FIXPVA
         43        60       FIXPVA
         44        60       FIXPVA
         45        60       FIXPVA
         46        60       FIXPVA
         47        60       FIXPVA
         48        60       FIXPVA
         49        60       FIXPVA
         50        60       FIXPVA
         51        60       FIXPVA
         52        60       FIXPVA
         53        60       FIXPVA
         54        60       FIXPVA
         55        60       FIXPVA
         56        60       FIXPVA
         57        60       FIXPVA
         58        60       FIXPVA
         59        60       FIXPVA
         60        60       FIXPVA
         61        60       FIXPVA
         62        60       FIXPVA
         63        60       FIXPVA
         64        60       FIXPVA
         65        60       FIXPVA
         66        60       FIXPVA
         67        60       FIXPVA
         68        60       FIXPVA
         69        60       FIXPVA
         70        60       FIXPVA
         71        60       FIXPVA
         72        60       FIXPVA
         73        60       FIXPVA
         74        60       FIXPVA
         75        60       FIXPVA
         76        60       FIXPVA
         77        60       FIXPVA
         78        60       FIXPVA
         79        60       FIXPVA
         80        60       FIXPVA
         81        60       FIXPVA
         82        60       FIXPVA
         83        60       FIXPVA
         84        60       FIXPVA
         85        60       FIXPVA
         86        60       FIXPVA
         87        60       FIXPVA
         88        60       FIXPVA
         89        60       FIXPVA
         90        60       FIXPVA
         91        60       FIXPVA
         92        60       FIXPVA
         93        60       FIXPVA
         94        60       FIXPVA
         95        60       FIXPVA
         96        60       FIXPVA
         97        60       FIXPVA
         98        60       FIXPVA
         99        60       FIXPVA
        100        60       FIXPVA
        101        60       FIXPVA
        102        60       FIXPVA
        103        60       FIXPVA
        104        60       FIXPVA
        105        60       FIXPVA
        106        60       FIXPVA
        107        60       FIXPVA
        108        60       FIXPVA
        109        60       FIXPVA
        110        60       FIXPVA
        111        60       FIXPVA
        112        60       FIXPVA
        113        60       FIXPVA
        114        60       FIXPVA
        115        60       FIXPVA
        116        60       FIXPVA
        117        60       FIXPVA
        118        60       FIXPVA
        119        60       FIXPVA
        120        60       FIXPVA
        121        60       FIXPVA
        122        60       FIXPVA
        123        60       FIXPVA
        124        60       FIXPVA
        125        60       FIXPVA
        126        60       FIXPVA
        127        60       FIXPVA
        128        60       FIXPVA
        129        60       FIXPVA
        130        60       FIXPVA
        131        60       FIXPVA
        132        60       FIXPVA
        133        60       FIXPVA
        134        60       FIXPVA
        135        60       FIXPVA
        136        60       FIXPVA
        137        60       FIXPVA
        138        60       FIXPVA
        139        60       FIXPVA
        140        60       FIXPVA
        141        60       FIXPVA
        142        60       FIXPVA
        143        60       FIXPVA
        144        60       FIXPVA
        145        60       FIXPVA
        146        60       FIXPVA
        147        60       FIXPVA
        148        60       FIXPVA
        149        60       FIXPVA
        150        60       FIXPVA
        151        60       FIXPVA
        152        60       FIXPVA
        153        60       FIXPVA
        154        60       FIXPVA
        155        60       FIXPVA
        156        60       FIXPVA
        157        60       FIXPVA
        158        60       FIXPVA
        159        60       FIXPVA
        160        60       FIXPVA
        161        60       FIXPVA
        162        60       FIXPVA
        163        60       FIXPVA
        164        60       FIXPVA
        165        60       FIXPVA
        166        60       FIXPVA
        167        60       FIXPVA
        168        60       FIXPVA
        169        60       FIXPVA
        170        60       FIXPVA
        171        60       FIXPVA
        172        60       FIXPVA
        173        60       FIXPVA
        174        60       FIXPVA
        175        60       FIXPVA
        176        60       FIXPVA
        177        60       FIXPVA
        178        60       FIXPVA
        179        60       FIXPVA
        180        60       FIXPVA
        181        60       FIXPVA
        182        60       FIXPVA
        183        60       FIXPVA
        184        60       FIXPVA
        185        60       FIXPVA
        186        60       FIXPVA
        187        60       FIXPVA
        188        60       FIXPVA
        189        60       FIXPVA
        190        60       FIXPVA
        191        60       FIXPVA
        192        60       FIXPVA
        193        60       FIXPVA
        194        60       FIXPVA
        195        60       FIXPVA
        196        60       FIXPVA
        197        60       FIXPVA
        198        60       FIXPVA
        199        60       FIXPVA
        200        60       FIXPVA
        201        60       FIXPVA
        202        60       FIXPVA
        203        60       FIXPVA
        204        60       FIXPVA
        205        60       FIXPVA
        206        60       FIXPVA
        207        60       FIXPVA
        208        60       FIXPVA
        209        60       FIXPVA
        210        60       FIXPVA
        211        60       FIXPVA
        212        60       FIXPVA
        213        60       FIXPVA
        214        60       FIXPVA
        215        60       FIXPVA
        216        60       FIXPVA
        217        60       FIXPVA
        218        60       FIXPVA
        219        60       FIXPVA
        220        60       FIXPVA
        221        60       FIXPVA
        222        60       FIXPVA
        223        60       FIXPVA
        224        60       FIXPVA
        225        60       FIXPVA
        226        60       FIXPVA
        227        60       FIXPVA
        228        60       FIXPVA
        229        60       FIXPVA
        230        60       FIXPVA
        231        60       FIXPVA
        232        60       FIXPVA
        233        60       FIXPVA
        234        60       FIXPVA
        235        60       FIXPVA
        236        60       FIXPVA
        237        60       FIXPVA
        238        60       FIXPVA
        239        60       FIXPVA
        240        60       FIXPVA
        241        60       FIXPVA
        242        60       FIXPVA
        243        60       FIXPVA
        244        60       FIXPVA
        245        60       FIXPVA
        246        60       FIXPVA
        247        60       FIXPVA
        248        60       FIXPVA
        249        60       FIXPVA
        250        60       FIXPVA
        251        60       FIXPVA
        252        60       FIXPVA
        253        60       FIXPVA

     ------------------------------
      FIXPVA TESSELLATION FOR PCM
         PEIFENG SU AND HUI LI
     UNIVERSITY OF NEBRASKA-LINCOLN
     ------------------------------


 PCM DIMENSIONS: MXSP=   253, MXTS=     10120, MEMORY=        103986

     INPUT FOR CAVITY DEFINITION 
     ---------------------------
   ATOM               COORDINATES                RADIUS       EPS
      1      0.4700     -7.5410      7.0490      0.0100     78.3900
      2      0.1570     -6.8570      7.6710      1.5900     78.3900
      3      1.2570     -6.5590      8.5410      1.7700     78.3900
      4      2.1540     -6.3120      7.9290      0.0100     78.3900
      5      1.4940     -7.4600      9.1490      0.0100     78.3900
      6      0.9630     -5.3900      9.4850      1.7700     78.3900
      7      1.8170     -5.2030     10.1700      0.0100     78.3900
      8      0.7520     -4.1700      8.7140      1.5900     78.3900
      9     -0.2850     -3.4160      9.3240      1.7700     78.3900
     10      0.1300     -2.4040      9.5230      0.0100     78.3900
     11     -1.4500     -3.2820      8.4350      1.6800     78.3900
     12     -2.4450     -2.3490      8.5520      1.7700     78.3900
     13     -3.8740      0.3250     10.2180      1.6800     78.3900
     14     -3.2600      0.4570     10.9900      0.0100     78.3900
     15     -4.6840      0.9110     10.1320      0.0100     78.3900
     16     -2.5390     -1.4120      9.5120      1.6800     78.3900
     17     -3.6090     -0.6360      9.3560      1.7700     78.3900
     18     -4.4830     -0.7630      8.3080      1.6800     78.3900
     19     -5.2680     -0.1320      8.2660      0.0100     78.3900
     20     -4.3990     -1.7040      7.2900      1.7700     78.3900
     21     -5.2270     -1.7450      6.3730      1.5900     78.3900
     22     -3.2870     -2.5680      7.4760      1.7700     78.3900
     23     -2.8460     -3.6420      6.7130      1.6800     78.3900
     24     -1.7500     -4.0380      7.3200      1.7700     78.3900
     25     -1.1060     -4.8610      6.9970      0.0100     78.3900
     26     -0.6270     -4.0810     10.6360      1.7700     78.3900
     27     -1.6900     -3.9450     10.9180      0.0100     78.3900
     28      0.2080     -3.5760     11.6620      1.5900     78.3900
     29     -0.0450     -4.0520     12.4620      0.0100     78.3900
     30     -0.3140     -5.5390     10.3280      1.7700     78.3900
     31     -1.0960     -5.9720      9.6600      0.0100     78.3900
     32     -0.0460     -6.3610     11.4830      1.5900     78.3900
     33     -1.2300     -7.1370     12.1770      2.1000     78.3900
     34     -2.0110     -7.8560     11.1510      1.5900     78.3900
     35     -0.6460     -7.9500     13.2640      1.5900     78.3900
     36     -2.1230     -5.9930     12.7960      1.5900     78.3900
     37     -1.6500     -5.2510     13.9460      1.7700     78.3900
     38     -0.6490     -4.7980     13.7610      0.0100     78.3900
     39     -1.5470     -5.9250     14.8270      0.0100     78.3900
     40     -2.6240     -4.1230     14.3200      1.7700     78.3900
     41     -2.2290     -3.5320     15.1770      0.0100     78.3900
     42     -2.7890     -3.2180     13.1890      1.5900     78.3900
     43     -4.1270     -2.7380     13.1520      1.7700     78.3900
     44     -4.0470     -1.6290     13.2370      0.0100     78.3900
     45     -4.8370     -3.0730     11.8800      1.6800     78.3900
     46     -4.3680     -4.0810     11.0700      1.7700     78.3900
     47     -3.4960     -4.6240     11.4400      0.0100     78.3900
     48     -4.9560     -4.3670      9.9000      1.7700     78.3900
     49     -4.5880     -5.1460      9.2330      0.0100     78.3900
     50     -5.9810     -2.3700     11.5080      1.7700     78.3900
     51     -6.4130     -1.4780     12.2530      1.5900     78.3900
     52     -6.5950     -2.6500     10.3370      1.6800     78.3900
     53     -6.1130     -3.6160      9.5390      1.7700     78.3900
     54     -6.7340     -3.8780      8.3920      1.6800     78.3900
     55     -7.5960     -3.4080      8.1660      0.0100     78.3900
     56     -6.4080     -4.5760      7.7580      0.0100     78.3900
     57     -4.8310     -3.2710     14.3830      1.7700     78.3900
     58     -5.8920     -3.4780     14.1880      0.0100     78.3900
     59     -4.7120     -2.3580     15.4610      1.5900     78.3900
     60     -4.9650     -2.8270     16.2710      0.0100     78.3900
     61     -4.0590     -4.5590     14.6490      1.7700     78.3900
     62     -4.3290     -5.3370     13.8990      0.0100     78.3900
     63     -4.1510     -5.0250     16.0100      1.5900     78.3900
     64     -5.0060     -6.2960     16.3760      2.1000     78.3900
     65     -4.4200     -7.4690     15.6950      1.5900     78.3900
     66     -5.1090     -6.3710     17.8500      1.5900     78.3900
     67     -6.4330     -6.0270     15.7740      1.5900     78.3900
     68     -7.3290     -5.0360     16.3180      1.7700     78.3900
     69     -6.8070     -4.0690     16.5000      0.0100     78.3900
     70     -7.7410     -5.3880     17.2920      0.0100     78.3900
     71     -8.5130     -4.7700     15.3680      1.7700     78.3900
     72     -9.2040     -4.0230     15.8110      0.0100     78.3900
     73     -8.0340     -4.2000     14.1090      1.5900     78.3900
     74     -8.7810     -4.7290     13.0240      1.7700     78.3900
     75     -9.1650     -3.8490     12.4570      0.0100     78.3900
     76     -7.9540     -5.5880     12.1200      1.6800     78.3900
     77     -6.7750     -6.1560     12.5460      1.7700     78.3900
     78     -6.4790     -5.8990     13.5580      0.0100     78.3900
     79     -8.4170     -5.8120     10.8400      1.7700     78.3900
     80     -9.4680     -5.3390     10.4260      1.5900     78.3900
     81     -7.6030     -6.5970     10.0610      1.6800     78.3900
     82     -7.9340     -6.7650      9.1210      0.0100     78.3900
     83     -6.4040     -7.1810     10.4150      1.7700     78.3900
     84     -5.7720     -7.8500      9.5990      1.5900     78.3900
     85     -5.9980     -6.9160     11.7600      1.7700     78.3900
     86     -5.0500     -7.3230     12.1060      0.0100     78.3900
     87     -9.9390     -5.4950     13.6270      1.7700     78.3900
     88    -10.2440     -6.3480     12.9850      0.0100     78.3900
     89    -11.0400     -4.6260     13.8380      1.5900     78.3900
     90    -11.3390     -4.2890     12.9720      0.0100     78.3900
     91     -9.3360     -5.9830     14.9390      1.7700     78.3900
     92     -8.5970     -6.7920     14.7400      0.0100     78.3900
     93    -10.3020     -6.3120     15.9590      1.5900     78.3900
     94    -10.5980     -7.8190     16.3040      2.1000     78.3900
     95     -9.5370     -8.7090     15.7730      1.5900     78.3900
     96    -10.8450     -7.9020     17.7600      1.5900     78.3900
     97    -11.9510     -8.1600     15.5690      1.5900     78.3900
     98    -12.0890     -8.1210     14.1330      1.7700     78.3900
     99    -11.2840     -8.7010     13.6260      0.0100     78.3900
    100    -12.0430     -7.0690     13.7820      0.0100     78.3900
    101    -13.4470     -8.6580     13.6560      1.7700     78.3900
    102    -13.5240     -9.7560     13.8240      0.0100     78.3900
    103    -14.5260     -8.0250     14.4170      1.5900     78.3900
    104    -15.5680     -7.6250     13.5390      1.7700     78.3900
    105    -16.5070     -8.0450     13.9730      0.0100     78.3900
    106    -15.6930     -6.1360     13.4490      1.6800     78.3900
    107    -14.8010     -5.2970     14.0910      1.7700     78.3900
    108    -14.0000     -5.7860     14.6520      0.0100     78.3900
    109    -16.7700     -5.6160     12.7600      1.7700     78.3900
    110    -17.6100     -6.3170     12.2040      1.5900     78.3900
    111    -16.8450     -4.2500     12.7460      1.6800     78.3900
    112    -17.6720     -3.8730     12.3090      0.0100     78.3900
    113    -16.0350     -3.3590     13.4130      1.7700     78.3900
    114    -16.2950     -2.1590     13.3990      1.5900     78.3900
    115    -14.9340     -3.9610     14.0980      1.7700     78.3900
    116    -14.2540     -3.3200     14.6600      0.0100     78.3900
    117    -15.2940     -8.2810     12.1960      1.7700     78.3900
    118    -15.6640     -7.6810     11.3370      0.0100     78.3900
    119    -15.8700     -9.5780     12.1590      1.5900     78.3900
    120    -15.5010    -10.0340     11.3850      0.0100     78.3900
    121    -13.7750     -8.3380     12.1820      1.7700     78.3900
    122    -13.3800     -7.3140     11.9730      0.0100     78.3900
    123    -13.2500     -9.3560     11.2960      1.5900     78.3900
    124    -12.1490     -8.9960     10.2340      2.1000     78.3900
    125    -11.1810     -8.0800     10.8700      1.5900     78.3900
    126    -11.6080    -10.2530      9.6730      1.5900     78.3900
    127    -12.9580     -8.2730      9.0940      1.5900     78.3900
    128    -12.3130     -7.3540      8.1760      1.7700     78.3900
    129    -12.0320     -7.8960      7.2460      0.0100     78.3900
    130    -11.3850     -6.8990      8.6030      0.0100     78.3900
    131    -13.2520     -6.2070      7.7740      1.7700     78.3900
    132    -14.0290     -6.5690      7.0690      0.0100     78.3900
    133    -13.9560     -5.7060      8.9470      1.5900     78.3900
    134    -14.1350     -4.3130      8.8320      1.7700     78.3900
    135    -15.2350     -4.1430      8.8910      0.0100     78.3900
    136    -13.4830     -3.6120      9.9290      1.6800     78.3900
    137    -12.9940     -2.1530     11.4920      1.7700     78.3900
    138    -12.0700     -3.1870     11.6210      1.6800     78.3900
    139    -12.4000     -4.0260     10.6680      1.7700     78.3900
    140    -11.8960     -4.9750     10.4550      0.0100     78.3900
    141    -14.2390     -0.1700     11.8510      1.6800     78.3900
    142    -14.9900     -0.5430     10.8090      1.7700     78.3900
    143    -15.7960      0.1480     10.5370      0.0100     78.3900
    144    -14.8970     -1.6390     10.0470      1.6800     78.3900
    145    -13.8710     -2.4080     10.4520      1.7700     78.3900
    146    -13.2070     -0.9670     12.2270      1.7700     78.3900
    147    -12.4510     -0.5930     13.2770      1.6800     78.3900
    148    -11.6770     -1.1360     13.6030      0.0100     78.3900
    149    -12.6290      0.2890     13.7180      0.0100     78.3900
    150    -13.6310     -3.8870      7.4710      1.7700     78.3900
    151    -13.1860     -2.8720      7.4700      0.0100     78.3900
    152    -14.6920     -3.9440      6.5380      1.5900     78.3900
    153    -14.2910     -3.8790      5.6630      0.0100     78.3900
    154    -12.5840     -4.9510      7.1840      1.7700     78.3900
    155    -11.6670     -4.7600      7.7920      0.0100     78.3900
    156    -12.3190     -5.1360      5.7780      1.5900     78.3900
    157    -10.9850     -4.6160      5.1250      2.1000     78.3900
    158     -9.9190     -4.6280      6.1390      1.5900     78.3900
    159    -10.7320     -5.4250      3.9150      1.5900     78.3900
    160    -11.3080     -3.1380      4.6900      1.5900     78.3900
    161    -12.4910     -2.7750      3.9570      1.7700     78.3900
    162    -13.4020     -3.0890      4.5090      0.0100     78.3900
    163    -12.5000     -3.2750      2.9640      0.0100     78.3900
    164    -12.5480     -1.2470      3.7940      1.7700     78.3900
    165    -12.2670     -0.7340      4.7330      0.0100     78.3900
    166    -11.6890     -0.7910      2.7160      1.5900     78.3900
    167    -12.4410     -0.6930      1.5030      1.7700     78.3900
    168    -12.4210      0.3850      1.2260      0.0100     78.3900
    169    -11.8380     -1.5160      0.3960      1.6800     78.3900
    170    -10.6340     -2.1620      0.6230      1.7700     78.3900
    171    -10.2030     -2.0690      1.6230      0.0100     78.3900
    172    -10.0240     -2.8760     -0.3290      1.7700     78.3900
    173     -9.0750     -3.3800     -0.1550      0.0100     78.3900
    174    -12.3960     -1.5700     -0.8870      1.7700     78.3900
    175    -13.4260     -0.9270     -1.1400      1.5900     78.3900
    176    -11.8060     -2.3110     -1.8510      1.6800     78.3900
    177    -10.6520     -2.9520     -1.6010      1.7700     78.3900
    178    -10.0830     -3.6530     -2.5800      1.6800     78.3900
    179    -10.5460     -3.6970     -3.4680      0.0100     78.3900
    180     -9.2030     -4.1140     -2.4610      0.0100     78.3900
    181    -13.8770     -1.0870      1.8610      1.7700     78.3900
    182    -14.0280     -2.1770      1.6990      0.0100     78.3900
    183    -14.8740     -0.3530      1.1770      1.5900     78.3900
    184    -14.7780      0.5740      1.4420      0.0100     78.3900
    185    -13.9210     -0.7620      3.3500      1.7700     78.3900
    186    -14.6990     -1.4080      3.8250      0.0100     78.3900
    187    -14.0990      0.6440      3.6480      1.5900     78.3900
    188    -15.2370      1.1750      4.5800      2.1000     78.3900
    189    -16.1110      2.0330      3.7530      1.5900     78.3900
    190    -15.8730      0.0530      5.3060      1.5900     78.3900
    191    -14.4590      2.0860      5.6040      1.5900     78.3900
    192    -15.2130      2.9570      6.4890      1.7700     78.3900
    193    -16.2350      2.5680      6.7100      0.0100     78.3900
    194    -15.3310      3.9580      6.0150      0.0100     78.3900
    195    -14.5210      3.1340      7.8490      1.7700     78.3900
    196    -15.1010      3.8130      8.5060      0.0100     78.3900
    197    -14.4440      1.8490      8.5300      1.5900     78.3900
    198    -13.1820      1.7400      9.1780      1.7700     78.3900
    199    -13.3750      1.5070     10.2450      0.0100     78.3900
    200    -12.3640      0.6690      8.5940      1.6800     78.3900
    201    -11.2230      0.1200      9.1240      1.7700     78.3900
    202     -8.8520     -0.0760     11.6560      1.6800     78.3900
    203     -9.1360      0.6360     12.2930      0.0100     78.3900
    204     -8.0080     -0.5870     11.8380      0.0100     78.3900
    205    -10.6390      0.4700     10.2850      1.6800     78.3900
    206     -9.5560     -0.2630     10.5510      1.7700     78.3900
    207     -9.0880     -1.2330      9.7070      1.6800     78.3900
    208     -8.2650     -1.7530      9.9720      0.0100     78.3900
    209     -9.6540     -1.5940      8.4970      1.7700     78.3900
    210     -9.1340     -2.4700      7.8090      1.5900     78.3900
    211    -10.8170     -0.8340      8.2160      1.7700     78.3900
    212    -11.6850     -0.8910      7.1420      1.6800     78.3900
    213    -12.5970      0.0070      7.4110      1.7700     78.3900
    214    -13.4710      0.2280      6.7930      0.0100     78.3900
    215    -12.5060      3.0870      9.0970      1.7700     78.3900
    216    -11.4010      3.0090      9.0660      0.0100     78.3900
    217    -12.8930      3.8750     10.2030      1.5900     78.3900
    218    -12.5390      4.7600     10.0550      0.0100     78.3900
    219    -13.0710      3.6330      7.7920      1.7700     78.3900
    220    -12.6020      3.1000      6.9320      0.0100     78.3900
    221    -13.0420      5.0800      7.6640      1.5900     78.3900
    222    -11.8610      5.7070      6.8250      2.1000     78.3900
    223    -11.6240      4.8780      5.6240      1.5900     78.3900
    224    -12.1290      7.1440      6.6000      1.5900     78.3900
    225    -10.6340      5.5550      7.8000      1.5900     78.3900
    226    -10.6260      6.2260      9.0830      1.7700     78.3900
    227    -11.5330      5.9880      9.6840      0.0100     78.3900
    228    -10.6040      7.3290      8.9410      0.0100     78.3900
    229     -9.3880      5.8420      9.9050      1.7700     78.3900
    230     -9.3520      6.4070     10.8610      0.0100     78.3900
    231     -9.4260      4.4250     10.2350      1.5900     78.3900
    232     -8.1080      3.8900     10.1570      1.7700     78.3900
    233     -7.9050      3.4380     11.1570      0.0100     78.3900
    234     -7.9770      2.8400      9.1080      1.6800     78.3900
    235     -8.8900      2.7690      8.0830      1.7700     78.3900
    236     -9.7020      3.4930      8.1120      0.0100     78.3900
    237     -8.8010      1.8370      7.1290      1.7700     78.3900
    238     -9.5320      1.7550      6.3300      0.0100     78.3900
    239     -6.9040      1.9550      9.1310      1.7700     78.3900
    240     -6.0590      2.0560     10.0320      1.5900     78.3900
    241     -6.7920      1.0080      8.1720      1.6800     78.3900
    242     -7.7060      0.9310      7.1900      1.7700     78.3900
    243     -7.5750     -0.0100      6.2610      1.6800     78.3900
    244     -6.8180     -0.6640      6.3270      0.0100     78.3900
    245     -8.2380     -0.1270      5.5210      0.0100     78.3900
    246     -7.1530      5.0550      9.9290      1.7700     78.3900
    247     -6.2800      4.7660      9.3080      0.0100     78.3900
    248     -6.7130      5.5710     11.1760      1.5900     78.3900
    249     -6.2570      6.4190     11.0270      0.0100     78.3900
    250     -8.0510      6.0330      9.1800      1.7700     78.3900
    251     -8.1760      5.7120      8.1230      0.0100     78.3900
    252     -7.6270      7.4050      9.2570      1.5900     78.3900
    253     -6.7980      7.5210      8.7610      0.0100     78.3900

 CREATION OF A NEW CAVITY WITH THE ORIGINAL SPHERE
 SIZES FOR THE COMPUTATION OF THE CAVITATION ENERGY.

     INPUT FOR CAVITY DEFINITION 
     ---------------------------
   ATOM               COORDINATES                RADIUS       EPS
      1      0.4700     -7.5410      7.0490      0.0100     78.3900
      2      0.1570     -6.8570      7.6710      1.5900     78.3900
      3      1.2570     -6.5590      8.5410      1.7700     78.3900
      4      2.1540     -6.3120      7.9290      0.0100     78.3900
      5      1.4940     -7.4600      9.1490      0.0100     78.3900
      6      0.9630     -5.3900      9.4850      1.7700     78.3900
      7      1.8170     -5.2030     10.1700      0.0100     78.3900
      8      0.7520     -4.1700      8.7140      1.5900     78.3900
      9     -0.2850     -3.4160      9.3240      1.7700     78.3900
     10      0.1300     -2.4040      9.5230      0.0100     78.3900
     11     -1.4500     -3.2820      8.4350      1.6800     78.3900
     12     -2.4450     -2.3490      8.5520      1.7700     78.3900
     13     -3.8740      0.3250     10.2180      1.6800     78.3900
     14     -3.2600      0.4570     10.9900      0.0100     78.3900
     15     -4.6840      0.9110     10.1320      0.0100     78.3900
     16     -2.5390     -1.4120      9.5120      1.6800     78.3900
     17     -3.6090     -0.6360      9.3560      1.7700     78.3900
     18     -4.4830     -0.7630      8.3080      1.6800     78.3900
     19     -5.2680     -0.1320      8.2660      0.0100     78.3900
     20     -4.3990     -1.7040      7.2900      1.7700     78.3900
     21     -5.2270     -1.7450      6.3730      1.5900     78.3900
     22     -3.2870     -2.5680      7.4760      1.7700     78.3900
     23     -2.8460     -3.6420      6.7130      1.6800     78.3900
     24     -1.7500     -4.0380      7.3200      1.7700     78.3900
     25     -1.1060     -4.8610      6.9970      0.0100     78.3900
     26     -0.6270     -4.0810     10.6360      1.7700     78.3900
     27     -1.6900     -3.9450     10.9180      0.0100     78.3900
     28      0.2080     -3.5760     11.6620      1.5900     78.3900
     29     -0.0450     -4.0520     12.4620      0.0100     78.3900
     30     -0.3140     -5.5390     10.3280      1.7700     78.3900
     31     -1.0960     -5.9720      9.6600      0.0100     78.3900
     32     -0.0460     -6.3610     11.4830      1.5900     78.3900
     33     -1.2300     -7.1370     12.1770      2.1000     78.3900
     34     -2.0110     -7.8560     11.1510      1.5900     78.3900
     35     -0.6460     -7.9500     13.2640      1.5900     78.3900
     36     -2.1230     -5.9930     12.7960      1.5900     78.3900
     37     -1.6500     -5.2510     13.9460      1.7700     78.3900
     38     -0.6490     -4.7980     13.7610      0.0100     78.3900
     39     -1.5470     -5.9250     14.8270      0.0100     78.3900
     40     -2.6240     -4.1230     14.3200      1.7700     78.3900
     41     -2.2290     -3.5320     15.1770      0.0100     78.3900
     42     -2.7890     -3.2180     13.1890      1.5900     78.3900
     43     -4.1270     -2.7380     13.1520      1.7700     78.3900
     44     -4.0470     -1.6290     13.2370      0.0100     78.3900
     45     -4.8370     -3.0730     11.8800      1.6800     78.3900
     46     -4.3680     -4.0810     11.0700      1.7700     78.3900
     47     -3.4960     -4.6240     11.4400      0.0100     78.3900
     48     -4.9560     -4.3670      9.9000      1.7700     78.3900
     49     -4.5880     -5.1460      9.2330      0.0100     78.3900
     50     -5.9810     -2.3700     11.5080      1.7700     78.3900
     51     -6.4130     -1.4780     12.2530      1.5900     78.3900
     52     -6.5950     -2.6500     10.3370      1.6800     78.3900
     53     -6.1130     -3.6160      9.5390      1.7700     78.3900
     54     -6.7340     -3.8780      8.3920      1.6800     78.3900
     55     -7.5960     -3.4080      8.1660      0.0100     78.3900
     56     -6.4080     -4.5760      7.7580      0.0100     78.3900
     57     -4.8310     -3.2710     14.3830      1.7700     78.3900
     58     -5.8920     -3.4780     14.1880      0.0100     78.3900
     59     -4.7120     -2.3580     15.4610      1.5900     78.3900
     60     -4.9650     -2.8270     16.2710      0.0100     78.3900
     61     -4.0590     -4.5590     14.6490      1.7700     78.3900
     62     -4.3290     -5.3370     13.8990      0.0100     78.3900
     63     -4.1510     -5.0250     16.0100      1.5900     78.3900
     64     -5.0060     -6.2960     16.3760      2.1000     78.3900
     65     -4.4200     -7.4690     15.6950      1.5900     78.3900
     66     -5.1090     -6.3710     17.8500      1.5900     78.3900
     67     -6.4330     -6.0270     15.7740      1.5900     78.3900
     68     -7.3290     -5.0360     16.3180      1.7700     78.3900
     69     -6.8070     -4.0690     16.5000      0.0100     78.3900
     70     -7.7410     -5.3880     17.2920      0.0100     78.3900
     71     -8.5130     -4.7700     15.3680      1.7700     78.3900
     72     -9.2040     -4.0230     15.8110      0.0100     78.3900
     73     -8.0340     -4.2000     14.1090      1.5900     78.3900
     74     -8.7810     -4.7290     13.0240      1.7700     78.3900
     75     -9.1650     -3.8490     12.4570      0.0100     78.3900
     76     -7.9540     -5.5880     12.1200      1.6800     78.3900
     77     -6.7750     -6.1560     12.5460      1.7700     78.3900
     78     -6.4790     -5.8990     13.5580      0.0100     78.3900
     79     -8.4170     -5.8120     10.8400      1.7700     78.3900
     80     -9.4680     -5.3390     10.4260      1.5900     78.3900
     81     -7.6030     -6.5970     10.0610      1.6800     78.3900
     82     -7.9340     -6.7650      9.1210      0.0100     78.3900
     83     -6.4040     -7.1810     10.4150      1.7700     78.3900
     84     -5.7720     -7.8500      9.5990      1.5900     78.3900
     85     -5.9980     -6.9160     11.7600      1.7700     78.3900
     86     -5.0500     -7.3230     12.1060      0.0100     78.3900
     87     -9.9390     -5.4950     13.6270      1.7700     78.3900
     88    -10.2440     -6.3480     12.9850      0.0100     78.3900
     89    -11.0400     -4.6260     13.8380      1.5900     78.3900
     90    -11.3390     -4.2890     12.9720      0.0100     78.3900
     91     -9.3360     -5.9830     14.9390      1.7700     78.3900
     92     -8.5970     -6.7920     14.7400      0.0100     78.3900
     93    -10.3020     -6.3120     15.9590      1.5900     78.3900
     94    -10.5980     -7.8190     16.3040      2.1000     78.3900
     95     -9.5370     -8.7090     15.7730      1.5900     78.3900
     96    -10.8450     -7.9020     17.7600      1.5900     78.3900
     97    -11.9510     -8.1600     15.5690      1.5900     78.3900
     98    -12.0890     -8.1210     14.1330      1.7700     78.3900
     99    -11.2840     -8.7010     13.6260      0.0100     78.3900
    100    -12.0430     -7.0690     13.7820      0.0100     78.3900
    101    -13.4470     -8.6580     13.6560      1.7700     78.3900
    102    -13.5240     -9.7560     13.8240      0.0100     78.3900
    103    -14.5260     -8.0250     14.4170      1.5900     78.3900
    104    -15.5680     -7.6250     13.5390      1.7700     78.3900
    105    -16.5070     -8.0450     13.9730      0.0100     78.3900
    106    -15.6930     -6.1360     13.4490      1.6800     78.3900
    107    -14.8010     -5.2970     14.0910      1.7700     78.3900
    108    -14.0000     -5.7860     14.6520      0.0100     78.3900
    109    -16.7700     -5.6160     12.7600      1.7700     78.3900
    110    -17.6100     -6.3170     12.2040      1.5900     78.3900
    111    -16.8450     -4.2500     12.7460      1.6800     78.3900
    112    -17.6720     -3.8730     12.3090      0.0100     78.3900
    113    -16.0350     -3.3590     13.4130      1.7700     78.3900
    114    -16.2950     -2.1590     13.3990      1.5900     78.3900
    115    -14.9340     -3.9610     14.0980      1.7700     78.3900
    116    -14.2540     -3.3200     14.6600      0.0100     78.3900
    117    -15.2940     -8.2810     12.1960      1.7700     78.3900
    118    -15.6640     -7.6810     11.3370      0.0100     78.3900
    119    -15.8700     -9.5780     12.1590      1.5900     78.3900
    120    -15.5010    -10.0340     11.3850      0.0100     78.3900
    121    -13.7750     -8.3380     12.1820      1.7700     78.3900
    122    -13.3800     -7.3140     11.9730      0.0100     78.3900
    123    -13.2500     -9.3560     11.2960      1.5900     78.3900
    124    -12.1490     -8.9960     10.2340      2.1000     78.3900
    125    -11.1810     -8.0800     10.8700      1.5900     78.3900
    126    -11.6080    -10.2530      9.6730      1.5900     78.3900
    127    -12.9580     -8.2730      9.0940      1.5900     78.3900
    128    -12.3130     -7.3540      8.1760      1.7700     78.3900
    129    -12.0320     -7.8960      7.2460      0.0100     78.3900
    130    -11.3850     -6.8990      8.6030      0.0100     78.3900
    131    -13.2520     -6.2070      7.7740      1.7700     78.3900
    132    -14.0290     -6.5690      7.0690      0.0100     78.3900
    133    -13.9560     -5.7060      8.9470      1.5900     78.3900
    134    -14.1350     -4.3130      8.8320      1.7700     78.3900
    135    -15.2350     -4.1430      8.8910      0.0100     78.3900
    136    -13.4830     -3.6120      9.9290      1.6800     78.3900
    137    -12.9940     -2.1530     11.4920      1.7700     78.3900
    138    -12.0700     -3.1870     11.6210      1.6800     78.3900
    139    -12.4000     -4.0260     10.6680      1.7700     78.3900
    140    -11.8960     -4.9750     10.4550      0.0100     78.3900
    141    -14.2390     -0.1700     11.8510      1.6800     78.3900
    142    -14.9900     -0.5430     10.8090      1.7700     78.3900
    143    -15.7960      0.1480     10.5370      0.0100     78.3900
    144    -14.8970     -1.6390     10.0470      1.6800     78.3900
    145    -13.8710     -2.4080     10.4520      1.7700     78.3900
    146    -13.2070     -0.9670     12.2270      1.7700     78.3900
    147    -12.4510     -0.5930     13.2770      1.6800     78.3900
    148    -11.6770     -1.1360     13.6030      0.0100     78.3900
    149    -12.6290      0.2890     13.7180      0.0100     78.3900
    150    -13.6310     -3.8870      7.4710      1.7700     78.3900
    151    -13.1860     -2.8720      7.4700      0.0100     78.3900
    152    -14.6920     -3.9440      6.5380      1.5900     78.3900
    153    -14.2910     -3.8790      5.6630      0.0100     78.3900
    154    -12.5840     -4.9510      7.1840      1.7700     78.3900
    155    -11.6670     -4.7600      7.7920      0.0100     78.3900
    156    -12.3190     -5.1360      5.7780      1.5900     78.3900
    157    -10.9850     -4.6160      5.1250      2.1000     78.3900
    158     -9.9190     -4.6280      6.1390      1.5900     78.3900
    159    -10.7320     -5.4250      3.9150      1.5900     78.3900
    160    -11.3080     -3.1380      4.6900      1.5900     78.3900
    161    -12.4910     -2.7750      3.9570      1.7700     78.3900
    162    -13.4020     -3.0890      4.5090      0.0100     78.3900
    163    -12.5000     -3.2750      2.9640      0.0100     78.3900
    164    -12.5480     -1.2470      3.7940      1.7700     78.3900
    165    -12.2670     -0.7340      4.7330      0.0100     78.3900
    166    -11.6890     -0.7910      2.7160      1.5900     78.3900
    167    -12.4410     -0.6930      1.5030      1.7700     78.3900
    168    -12.4210      0.3850      1.2260      0.0100     78.3900
    169    -11.8380     -1.5160      0.3960      1.6800     78.3900
    170    -10.6340     -2.1620      0.6230      1.7700     78.3900
    171    -10.2030     -2.0690      1.6230      0.0100     78.3900
    172    -10.0240     -2.8760     -0.3290      1.7700     78.3900
    173     -9.0750     -3.3800     -0.1550      0.0100     78.3900
    174    -12.3960     -1.5700     -0.8870      1.7700     78.3900
    175    -13.4260     -0.9270     -1.1400      1.5900     78.3900
    176    -11.8060     -2.3110     -1.8510      1.6800     78.3900
    177    -10.6520     -2.9520     -1.6010      1.7700     78.3900
    178    -10.0830     -3.6530     -2.5800      1.6800     78.3900
    179    -10.5460     -3.6970     -3.4680      0.0100     78.3900
    180     -9.2030     -4.1140     -2.4610      0.0100     78.3900
    181    -13.8770     -1.0870      1.8610      1.7700     78.3900
    182    -14.0280     -2.1770      1.6990      0.0100     78.3900
    183    -14.8740     -0.3530      1.1770      1.5900     78.3900
    184    -14.7780      0.5740      1.4420      0.0100     78.3900
    185    -13.9210     -0.7620      3.3500      1.7700     78.3900
    186    -14.6990     -1.4080      3.8250      0.0100     78.3900
    187    -14.0990      0.6440      3.6480      1.5900     78.3900
    188    -15.2370      1.1750      4.5800      2.1000     78.3900
    189    -16.1110      2.0330      3.7530      1.5900     78.3900
    190    -15.8730      0.0530      5.3060      1.5900     78.3900
    191    -14.4590      2.0860      5.6040      1.5900     78.3900
    192    -15.2130      2.9570      6.4890      1.7700     78.3900
    193    -16.2350      2.5680      6.7100      0.0100     78.3900
    194    -15.3310      3.9580      6.0150      0.0100     78.3900
    195    -14.5210      3.1340      7.8490      1.7700     78.3900
    196    -15.1010      3.8130      8.5060      0.0100     78.3900
    197    -14.4440      1.8490      8.5300      1.5900     78.3900
    198    -13.1820      1.7400      9.1780      1.7700     78.3900
    199    -13.3750      1.5070     10.2450      0.0100     78.3900
    200    -12.3640      0.6690      8.5940      1.6800     78.3900
    201    -11.2230      0.1200      9.1240      1.7700     78.3900
    202     -8.8520     -0.0760     11.6560      1.6800     78.3900
    203     -9.1360      0.6360     12.2930      0.0100     78.3900
    204     -8.0080     -0.5870     11.8380      0.0100     78.3900
    205    -10.6390      0.4700     10.2850      1.6800     78.3900
    206     -9.5560     -0.2630     10.5510      1.7700     78.3900
    207     -9.0880     -1.2330      9.7070      1.6800     78.3900
    208     -8.2650     -1.7530      9.9720      0.0100     78.3900
    209     -9.6540     -1.5940      8.4970      1.7700     78.3900
    210     -9.1340     -2.4700      7.8090      1.5900     78.3900
    211    -10.8170     -0.8340      8.2160      1.7700     78.3900
    212    -11.6850     -0.8910      7.1420      1.6800     78.3900
    213    -12.5970      0.0070      7.4110      1.7700     78.3900
    214    -13.4710      0.2280      6.7930      0.0100     78.3900
    215    -12.5060      3.0870      9.0970      1.7700     78.3900
    216    -11.4010      3.0090      9.0660      0.0100     78.3900
    217    -12.8930      3.8750     10.2030      1.5900     78.3900
    218    -12.5390      4.7600     10.0550      0.0100     78.3900
[...]
   201    7   6.0   0.00    0.0    0.000000    0.697364    0.704506
   202    7   7.0  10.80   21.1   -0.075528   -0.985444   -1.053771
   203    7   1.0   0.00    0.0    0.000000    0.440311    0.435636
   204    7   1.0   0.00    0.0    0.000000    0.476585    0.514494
   205    7   7.0   2.37    4.6    0.054745   -0.754307   -0.763205
   206    7   6.0   0.01    0.0    0.000683    0.971702    0.981619
   207    7   7.0   0.00    0.0    0.000034   -0.927073   -1.012674
   208    7   1.0   0.00    0.0    0.000000    0.479234    0.540944
   209    7   6.0   0.00    0.0    0.000000    0.864303    0.877466
   210    7   8.0   2.63    5.8    0.094067   -0.710332   -0.690056
   211    7   6.0   0.00    0.0    0.000000   -0.065034   -0.047344
   212    7   7.0   1.03    2.0    0.024653   -0.583732   -0.590100
   213    7   6.0   2.84    5.0    0.020042    0.263262    0.253269
   214    7   1.0   0.00    0.0    0.000000    0.289529    0.296992
   215    7   6.0   0.10    0.2    0.003658    0.133778    0.106575
   216    7   1.0   0.00    0.0    0.000000    0.190941    0.225316
   217    7   8.0  16.60   36.3    0.078950   -0.827809   -0.849346
   218    7   1.0   0.00    0.0    0.000000    0.498458    0.527665
   219    7   6.0   0.94    1.7   -0.016055    0.131932    0.098798
   220    7   1.0   0.00    0.0    0.000000    0.251658    0.253713
   221    7   8.0   5.34   11.7    0.064732   -0.801336   -0.809026
   222    7  15.0  10.27   12.9    0.138082    1.606895    1.661356
   223    7   8.0  12.70   27.8    0.295412   -0.891098   -0.889804
   224    7   8.0  18.71   40.9    0.368655   -0.888796   -0.886869
   225    7   8.0   1.52    3.3    0.023522   -0.974035   -0.788850
   226    8   6.0  11.37   20.1   -0.067284    0.222794   -0.021330
   227    8   1.0   0.00    0.0    0.000000    0.127665    0.155536
   228    8   1.0   0.00    0.0    0.000000    0.247728    0.230404
   229    8   6.0   5.50    9.7   -0.051971    0.089889    0.150874
   230    8   1.0   0.00    0.0    0.000000    0.254308    0.227238
   231    8   8.0   2.85    6.2    0.038864   -0.727627   -0.735451
   232    8   6.0   3.39    6.0   -0.034868    0.422240    0.419417
   233    8   1.0   0.00    0.0    0.000000    0.251755    0.251208
   234    8   7.0   0.19    0.4   -0.002104   -0.825065   -0.834705
   235    8   6.0   1.91    3.4   -0.000752    0.199191    0.182534
   236    8   1.0   0.00    0.0    0.000000    0.303012    0.328420
   237    8   6.0   7.39   13.0   -0.030568   -0.393042   -0.405114
   238    8   1.0   0.00    0.0    0.000000    0.272006    0.273146
   239    8   6.0   2.28    4.0   -0.001783    1.065643    1.079057
   240    8   8.0   9.62   21.0    0.147040   -0.799767   -0.767110
   241    8   7.0   3.07    6.0    0.024343   -0.870679   -0.865559
   242    8   6.0   1.93    3.4   -0.001849    0.725721    0.739263
   243    8   7.0  14.40   28.2   -0.083832   -0.948126   -1.001591
   244    8   1.0   0.00    0.0    0.000000    0.461104    0.498029
   245    8   1.0   0.00    0.0    0.000000    0.451720    0.448204
   246    8   6.0   6.74   11.9   -0.060890    0.118867    0.119997
   247    8   1.0   0.00    0.0    0.000000    0.228820    0.226759
   248    8   8.0  20.61   45.1    0.050176   -0.840218   -0.840991
   249    8   1.0   0.00    0.0    0.000000    0.502947    0.503246
   250    8   6.0   5.04    8.9   -0.055366    0.157987    0.142701
   251    8   1.0   0.00    0.0    0.000000    0.222629    0.224094
   252    8   8.0  21.05   46.0   -0.021760   -0.849030   -0.852546
   253    8   1.0   0.00    0.0    0.000000    0.509278    0.508609

 Done with FMO properties.
 CPU     0: STEP CPU TIME=     0.00 TOTAL CPU TIME=      12397.2 (    206.6 MIN)
 TOTAL WALL CLOCK TIME=      28278.8 SECONDS, CPU UTILIZATION IS    43.84%
 CPU     0: STEP CPU TIME=     0.00 TOTAL CPU TIME=      12397.2 (    206.6 MIN)
 TOTAL WALL CLOCK TIME=      28278.8 SECONDS, CPU UTILIZATION IS    43.84%

 Total timing statistics in pairs (CPU,wall) for each rank, sec

    Rank   total     SCF    corr     DFT    CPHF     EFP    solv     ESP    geom
 -------------------------------------------------------------------------------
       1   12397.2   3585.3   4711.1      0.0    0.0   0.0   87.7  3847.6    0.0
       1   28278.8   7746.7  12050.1      0.0    0.0   0.0  275.4  7794.2    0.0
       2   12073.7   3528.5   4471.1      0.0    0.0   0.0   88.0  3820.5    0.0
       2   28278.8   7743.0  12054.0      0.0    0.0   0.0  275.2  7793.4    0.0
       3   13088.4   3579.7   5378.8      0.0    0.0   0.0   88.6  3871.2    0.0
       3   28278.8   7742.6  12054.0      0.0    0.0   0.0  275.4  7793.6    0.0
       4   12441.3   3559.7   4726.2      0.0    0.0   0.0   87.7  3898.9    0.0
       4   28278.8   7743.2  12054.0      0.0    0.0   0.0  274.7  7793.5    0.0
       5   12402.0   3552.7   4792.1      0.0    0.0   0.0   87.5  3801.1    0.0
       5   28278.8   7743.0  12054.0      0.0    0.0   0.0  275.2  7793.8    0.0
       6   12881.4   3576.7   5165.5      0.0    0.0   0.0   87.5  3885.1    0.0
       6   28278.8   7743.3  12054.0      0.0    0.0   0.0  274.4  7793.8    0.0
       7   12635.6   3590.9   4886.1      0.0    0.0   0.0   87.5  3897.9    0.0
       7   28278.8   7743.2  12054.0      0.0    0.0   0.0  274.6  7793.8    0.0
       8   12846.5   3591.0   5038.9      0.0    0.0   0.0   87.0  3961.9    0.0
       8   28278.8   7743.4  12054.0      0.0    0.0   0.0  273.8  7793.8    0.0
       9   12510.1   3564.3   4889.9      0.0    0.0   0.0   86.2  3797.8    0.0
       9   28278.8   7744.0  12053.9      0.0    0.0   0.0  274.4  7793.5    0.0
      10   12953.9   3617.2   5264.6      0.0    0.0   0.0   87.1  3817.0    0.0
      10   28278.8   7743.7  12054.0      0.0    0.0   0.0  274.4  7793.5    0.0
      11   12770.9   3587.7   5104.9      0.0    0.0   0.0   86.9  3826.1    0.0
      11   28278.8   7743.8  12053.9      0.0    0.0   0.0  274.2  7793.4    0.0
      12   12499.3   3555.6   4850.7      0.0    0.0   0.0   86.4  3839.3    0.0
      12   28278.8   7744.0  12054.0      0.0    0.0   0.0  273.6  7793.4    0.0
      13   12492.9   3602.5   4825.1      0.0    0.0   0.0   86.3  3807.8    0.0
      13   28278.8   7744.5  12053.9      0.0    0.0   0.0  274.0  7793.4    0.0
      14   12898.4   3596.5   5163.8      0.0    0.0   0.0   86.8  3881.4    0.0
      14   28278.8   7744.3  12053.9      0.0    0.0   0.0  273.8  7793.3    0.0
      15   12384.3   3539.3   4747.6      0.0    0.0   0.0   86.8  3846.3    0.0
      15   28278.8   7744.3  12053.9      0.0    0.0   0.0  273.8  7793.3    0.0
      16   12706.4   3595.3   4924.1      0.0    0.0   0.0   86.0  3927.6    0.0
      16   28278.8   7744.7  12054.0      0.0    0.0   0.0  272.9  7793.2    0.0
averaged   12623.9   3576.4   4933.8      0.0    0.0   0.0   87.1  3858.0    0.0
averaged   28278.8   7743.8  12053.7      0.0    0.0   0.0  274.4  7793.6    0.0

  FMO  timing statistics in pairs (CPU,wall) for each rank, sec

    Rank  FMOini FMOscf1  FMOdm1 FMOsyn1 FMOscf2  FMOes2 FMOsyn2 FMOscf3 FMOsyn3
 -------------------------------------------------------------------------------
       1    1.5    4811.1    0.2    0.0    7474.9     109.4    0.0    0.0    0.0
       1    3.7   10130.8    0.4    0.0   17907.5     236.2    0.0    0.0    0.0
       2    1.1    4771.2    0.1    0.0    7188.2     113.1    0.0    0.0    0.0
       2    3.7   10130.8    0.4    0.0   17907.7     236.0    0.0    0.0    0.0
       3    1.2    4854.2    0.1    0.0    8116.7     116.1    0.0    0.0    0.0
       3    3.7   10130.8    0.4    0.0   17907.7     236.0    0.0    0.0    0.0
       4    1.1    4810.2    0.1    0.0    7513.6     116.3    0.0    0.0    0.0
       4    3.7   10130.8    0.4    0.0   17907.6     236.0    0.0    0.0    0.0
       5    1.3    4763.0    0.2    0.0    7522.6     114.8    0.0    0.0    0.0
       5    3.7   10130.8    0.4    0.0   17908.0     235.7    0.0    0.0    0.0
       6    1.2    4797.3    0.1    0.0    7968.7     114.2    0.0    0.0    0.0
       6    3.7   10130.8    0.4    0.0   17907.6     236.1    0.0    0.0    0.0
       7    1.2    4824.2    0.1    0.0    7689.8     120.2    0.0    0.0    0.0
       7    3.7   10130.8    0.4    0.0   17907.4     236.3    0.0    0.0    0.0
       8    1.1    4899.0    0.0    0.0    7830.1     116.2    0.0    0.0    0.0
       8    3.7   10130.8    0.4    0.0   17907.7     236.0    0.0    0.0    0.0
       9    1.3    4795.0    0.2    0.0    7594.7     118.9    0.0    0.0    0.0
       9    3.7   10130.8    0.4    0.0   17907.7     236.0    0.0    0.0    0.0
      10    1.1    4807.0    0.1    0.0    8029.3     116.5    0.0    0.0    0.0
      10    3.7   10130.8    0.4    0.0   17907.6     236.1    0.0    0.0    0.0
      11    1.1    4812.2    0.1    0.0    7844.4     113.1    0.0    0.0    0.0
      11    3.7   10130.8    0.4    0.0   17907.5     236.2    0.0    0.0    0.0
      12    1.0    4810.2    0.0    0.0    7571.9     116.0    0.0    0.0    0.0
      12    3.7   10130.8    0.4    0.0   17907.9     235.8    0.0    0.0    0.0
      13    1.2    4817.2    0.1    0.0    7555.7     118.6    0.0    0.0    0.0
      13    3.7   10130.8    0.4    0.0   17907.7     236.0    0.0    0.0    0.0
      14    1.0    4833.0    0.0    0.0    7945.6     118.7    0.0    0.0    0.0
      14    3.7   10130.8    0.4    0.0   17907.6     236.1    0.0    0.0    0.0
      15    1.1    4838.7    0.1    0.0    7431.7     112.7    0.0    0.0    0.0
      15    3.7   10130.8    0.4    0.0   17907.9     235.8    0.0    0.0    0.0
      16    1.1    4919.4    0.1    0.0    7663.0     122.8    0.0    0.0    0.0
      16    3.7   10130.8    0.4    0.0   17907.9     235.8    0.0    0.0    0.0
averaged    1.2    4822.7    0.1    0.0    7683.8     116.1    0.0    0.0    0.0
averaged    3.7   10130.8    0.4    0.0   17907.7     236.0    0.0    0.0    0.0
             62778308  WORDS OF DYNAMIC MEMORY USED
 EXECUTION OF GAMESS TERMINATED NORMALLY Sat Dec  7 07:57:43 2019
 DDI: 263640 bytes (0.3 MB / 0 MWords) used by master data server.

 ----------------------------------------
 CPU timing information for all processes
 ========================================
 0: 12108.597 + 288.621 = 12397.219
 1: 11826.411 + 247.341 = 12073.752
 2: 12784.91 + 304.367 = 13088.458
 3: 12172.949 + 268.416 = 12441.366
 4: 12118.102 + 283.903 = 12402.06
 5: 12591.77 + 290.357 = 12881.434
 6: 12352.326 + 283.301 = 12635.627
 7: 12569.966 + 276.564 = 12846.531
 8: 12224.666 + 285.436 = 12510.103
 9: 12670.765 + 283.175 = 12953.940
 10: 12481.715 + 289.243 = 12770.958
 11: 12228.616 + 270.698 = 12499.315
 12: 12205.504 + 287.392 = 12492.896
 13: 12619.498 + 278.932 = 12898.430
 14: 12113.699 + 270.639 = 12384.339
 15: 12437.275 + 269.193 = 12706.468
 ----------------------------------------
 ddikick.x: exited gracefully.
unset echo
----- accounting info -----
Files used on the master node gollum058.lsa.umich.edu were:
-rw-r--r-- 1 hazwong frank    13501 Dec  7 00:06 /scratch/hazwong/824140/4A4T_4/usrc/4A4T_4_fmo_input.F05
-rw-r--r-- 1 hazwong frank      634 Dec  7 07:57 /scratch/hazwong/824140/4A4T_4/usrc/4A4T_4_fmo_input.F06.001
-rw-r--r-- 1 hazwong frank      634 Dec  7 07:57 /scratch/hazwong/824140/4A4T_4/usrc/4A4T_4_fmo_input.F06.002
-rw-r--r-- 1 hazwong frank      634 Dec  7 07:57 /scratch/hazwong/824140/4A4T_4/usrc/4A4T_4_fmo_input.F06.003
-rw-r--r-- 1 hazwong frank      634 Dec  7 07:57 /scratch/hazwong/824140/4A4T_4/usrc/4A4T_4_fmo_input.F06.004
-rw-r--r-- 1 hazwong frank      634 Dec  7 07:57 /scratch/hazwong/824140/4A4T_4/usrc/4A4T_4_fmo_input.F06.005
-rw-r--r-- 1 hazwong frank      634 Dec  7 07:57 /scratch/hazwong/824140/4A4T_4/usrc/4A4T_4_fmo_input.F06.006
-rw-r--r-- 1 hazwong frank      634 Dec  7 07:57 /scratch/hazwong/824140/4A4T_4/usrc/4A4T_4_fmo_input.F06.007
-rw-r--r-- 1 hazwong frank      634 Dec  7 07:57 /scratch/hazwong/824140/4A4T_4/usrc/4A4T_4_fmo_input.F06.008
-rw-r--r-- 1 hazwong frank      634 Dec  7 07:57 /scratch/hazwong/824140/4A4T_4/usrc/4A4T_4_fmo_input.F06.009
-rw-r--r-- 1 hazwong frank      634 Dec  7 07:57 /scratch/hazwong/824140/4A4T_4/usrc/4A4T_4_fmo_input.F06.010
-rw-r--r-- 1 hazwong frank      634 Dec  7 07:57 /scratch/hazwong/824140/4A4T_4/usrc/4A4T_4_fmo_input.F06.011
-rw-r--r-- 1 hazwong frank      634 Dec  7 07:57 /scratch/hazwong/824140/4A4T_4/usrc/4A4T_4_fmo_input.F06.012
-rw-r--r-- 1 hazwong frank      634 Dec  7 07:57 /scratch/hazwong/824140/4A4T_4/usrc/4A4T_4_fmo_input.F06.013
-rw-r--r-- 1 hazwong frank      634 Dec  7 07:57 /scratch/hazwong/824140/4A4T_4/usrc/4A4T_4_fmo_input.F06.014
-rw-r--r-- 1 hazwong frank      634 Dec  7 07:57 /scratch/hazwong/824140/4A4T_4/usrc/4A4T_4_fmo_input.F06.015
-rw-r--r-- 1 hazwong frank     6172 Dec  7 07:57 /scratch/hazwong/824140/4A4T_4/usrc/4A4T_4_fmo_input.F07
-rw-r--r-- 1 hazwong frank        0 Dec  7 00:06 /scratch/hazwong/824140/4A4T_4/usrc/4A4T_4_fmo_input.F07.001
-rw-r--r-- 1 hazwong frank        0 Dec  7 00:06 /scratch/hazwong/824140/4A4T_4/usrc/4A4T_4_fmo_input.F07.002
-rw-r--r-- 1 hazwong frank        0 Dec  7 00:06 /scratch/hazwong/824140/4A4T_4/usrc/4A4T_4_fmo_input.F07.003
-rw-r--r-- 1 hazwong frank        0 Dec  7 00:06 /scratch/hazwong/824140/4A4T_4/usrc/4A4T_4_fmo_input.F07.004
-rw-r--r-- 1 hazwong frank        0 Dec  7 00:06 /scratch/hazwong/824140/4A4T_4/usrc/4A4T_4_fmo_input.F07.005
-rw-r--r-- 1 hazwong frank        0 Dec  7 00:06 /scratch/hazwong/824140/4A4T_4/usrc/4A4T_4_fmo_input.F07.006
-rw-r--r-- 1 hazwong frank        0 Dec  7 00:06 /scratch/hazwong/824140/4A4T_4/usrc/4A4T_4_fmo_input.F07.007
-rw-r--r-- 1 hazwong frank        0 Dec  7 00:06 /scratch/hazwong/824140/4A4T_4/usrc/4A4T_4_fmo_input.F07.008
-rw-r--r-- 1 hazwong frank        0 Dec  7 00:06 /scratch/hazwong/824140/4A4T_4/usrc/4A4T_4_fmo_input.F07.009
-rw-r--r-- 1 hazwong frank        0 Dec  7 00:06 /scratch/hazwong/824140/4A4T_4/usrc/4A4T_4_fmo_input.F07.010
-rw-r--r-- 1 hazwong frank        0 Dec  7 00:06 /scratch/hazwong/824140/4A4T_4/usrc/4A4T_4_fmo_input.F07.011
-rw-r--r-- 1 hazwong frank        0 Dec  7 00:06 /scratch/hazwong/824140/4A4T_4/usrc/4A4T_4_fmo_input.F07.012
-rw-r--r-- 1 hazwong frank        0 Dec  7 00:06 /scratch/hazwong/824140/4A4T_4/usrc/4A4T_4_fmo_input.F07.013
-rw-r--r-- 1 hazwong frank        0 Dec  7 00:06 /scratch/hazwong/824140/4A4T_4/usrc/4A4T_4_fmo_input.F07.014
-rw-r--r-- 1 hazwong frank        0 Dec  7 00:06 /scratch/hazwong/824140/4A4T_4/usrc/4A4T_4_fmo_input.F07.015
-rw-r--r-- 1 hazwong frank    65440 Dec  7 07:57 /scratch/hazwong/824140/4A4T_4/usrc/4A4T_4_fmo_input.F10.000
-rw-r--r-- 1 hazwong frank        0 Dec  7 00:06 /scratch/hazwong/824140/4A4T_4/usrc/4A4T_4_fmo_input.F26.000
-rw-r--r-- 1 hazwong frank        0 Dec  7 00:06 /scratch/hazwong/824140/4A4T_4/usrc/4A4T_4_fmo_input.F26.001
-rw-r--r-- 1 hazwong frank        0 Dec  7 00:06 /scratch/hazwong/824140/4A4T_4/usrc/4A4T_4_fmo_input.F26.002
-rw-r--r-- 1 hazwong frank        0 Dec  7 00:06 /scratch/hazwong/824140/4A4T_4/usrc/4A4T_4_fmo_input.F26.003
-rw-r--r-- 1 hazwong frank        0 Dec  7 00:06 /scratch/hazwong/824140/4A4T_4/usrc/4A4T_4_fmo_input.F26.004
-rw-r--r-- 1 hazwong frank        0 Dec  7 00:06 /scratch/hazwong/824140/4A4T_4/usrc/4A4T_4_fmo_input.F26.005
-rw-r--r-- 1 hazwong frank        0 Dec  7 00:06 /scratch/hazwong/824140/4A4T_4/usrc/4A4T_4_fmo_input.F26.006
-rw-r--r-- 1 hazwong frank        0 Dec  7 00:06 /scratch/hazwong/824140/4A4T_4/usrc/4A4T_4_fmo_input.F26.007
-rw-r--r-- 1 hazwong frank        0 Dec  7 00:06 /scratch/hazwong/824140/4A4T_4/usrc/4A4T_4_fmo_input.F26.008
-rw-r--r-- 1 hazwong frank        0 Dec  7 00:06 /scratch/hazwong/824140/4A4T_4/usrc/4A4T_4_fmo_input.F26.009
-rw-r--r-- 1 hazwong frank        0 Dec  7 00:06 /scratch/hazwong/824140/4A4T_4/usrc/4A4T_4_fmo_input.F26.010
-rw-r--r-- 1 hazwong frank        0 Dec  7 00:06 /scratch/hazwong/824140/4A4T_4/usrc/4A4T_4_fmo_input.F26.011
-rw-r--r-- 1 hazwong frank        0 Dec  7 00:06 /scratch/hazwong/824140/4A4T_4/usrc/4A4T_4_fmo_input.F26.012
-rw-r--r-- 1 hazwong frank        0 Dec  7 00:06 /scratch/hazwong/824140/4A4T_4/usrc/4A4T_4_fmo_input.F26.013
-rw-r--r-- 1 hazwong frank        0 Dec  7 00:06 /scratch/hazwong/824140/4A4T_4/usrc/4A4T_4_fmo_input.F26.014
-rw-r--r-- 1 hazwong frank        0 Dec  7 00:06 /scratch/hazwong/824140/4A4T_4/usrc/4A4T_4_fmo_input.F26.015
-rw-r--r-- 1 hazwong frank        0 Dec  7 00:06 /scratch/hazwong/824140/4A4T_4/usrc/4A4T_4_fmo_input.F27.000
-rw-r--r-- 1 hazwong frank        0 Dec  7 00:06 /scratch/hazwong/824140/4A4T_4/usrc/4A4T_4_fmo_input.F27.001
-rw-r--r-- 1 hazwong frank        0 Dec  7 00:06 /scratch/hazwong/824140/4A4T_4/usrc/4A4T_4_fmo_input.F27.002
-rw-r--r-- 1 hazwong frank        0 Dec  7 00:06 /scratch/hazwong/824140/4A4T_4/usrc/4A4T_4_fmo_input.F27.003
-rw-r--r-- 1 hazwong frank        0 Dec  7 00:06 /scratch/hazwong/824140/4A4T_4/usrc/4A4T_4_fmo_input.F27.004
-rw-r--r-- 1 hazwong frank        0 Dec  7 00:06 /scratch/hazwong/824140/4A4T_4/usrc/4A4T_4_fmo_input.F27.005
-rw-r--r-- 1 hazwong frank        0 Dec  7 00:06 /scratch/hazwong/824140/4A4T_4/usrc/4A4T_4_fmo_input.F27.006
-rw-r--r-- 1 hazwong frank        0 Dec  7 00:06 /scratch/hazwong/824140/4A4T_4/usrc/4A4T_4_fmo_input.F27.007
-rw-r--r-- 1 hazwong frank        0 Dec  7 00:06 /scratch/hazwong/824140/4A4T_4/usrc/4A4T_4_fmo_input.F27.008
-rw-r--r-- 1 hazwong frank        0 Dec  7 00:06 /scratch/hazwong/824140/4A4T_4/usrc/4A4T_4_fmo_input.F27.009
-rw-r--r-- 1 hazwong frank        0 Dec  7 00:06 /scratch/hazwong/824140/4A4T_4/usrc/4A4T_4_fmo_input.F27.010
-rw-r--r-- 1 hazwong frank        0 Dec  7 00:06 /scratch/hazwong/824140/4A4T_4/usrc/4A4T_4_fmo_input.F27.011
-rw-r--r-- 1 hazwong frank        0 Dec  7 00:06 /scratch/hazwong/824140/4A4T_4/usrc/4A4T_4_fmo_input.F27.012
-rw-r--r-- 1 hazwong frank        0 Dec  7 00:06 /scratch/hazwong/824140/4A4T_4/usrc/4A4T_4_fmo_input.F27.013
-rw-r--r-- 1 hazwong frank        0 Dec  7 00:06 /scratch/hazwong/824140/4A4T_4/usrc/4A4T_4_fmo_input.F27.014
-rw-r--r-- 1 hazwong frank        0 Dec  7 00:06 /scratch/hazwong/824140/4A4T_4/usrc/4A4T_4_fmo_input.F27.015
-rw-r--r-- 1 hazwong frank 15876096 Dec  7 02:55 /scratch/hazwong/824140/4A4T_4/usrc/4A4T_4_fmo_input.F40.000
-rw-r--r-- 1 hazwong frank 15876096 Dec  7 02:55 /scratch/hazwong/824140/4A4T_4/usrc/4A4T_4_fmo_input.F40.001
-rw-r--r-- 1 hazwong frank 15876096 Dec  7 02:55 /scratch/hazwong/824140/4A4T_4/usrc/4A4T_4_fmo_input.F40.002
-rw-r--r-- 1 hazwong frank 15876096 Dec  7 02:55 /scratch/hazwong/824140/4A4T_4/usrc/4A4T_4_fmo_input.F40.003
-rw-r--r-- 1 hazwong frank 15876096 Dec  7 02:55 /scratch/hazwong/824140/4A4T_4/usrc/4A4T_4_fmo_input.F40.004
-rw-r--r-- 1 hazwong frank 15876096 Dec  7 02:55 /scratch/hazwong/824140/4A4T_4/usrc/4A4T_4_fmo_input.F40.005
-rw-r--r-- 1 hazwong frank 15876096 Dec  7 02:55 /scratch/hazwong/824140/4A4T_4/usrc/4A4T_4_fmo_input.F40.006
-rw-r--r-- 1 hazwong frank 15876096 Dec  7 02:55 /scratch/hazwong/824140/4A4T_4/usrc/4A4T_4_fmo_input.F40.007
-rw-r--r-- 1 hazwong frank 15876096 Dec  7 02:55 /scratch/hazwong/824140/4A4T_4/usrc/4A4T_4_fmo_input.F40.008
-rw-r--r-- 1 hazwong frank 15876096 Dec  7 02:55 /scratch/hazwong/824140/4A4T_4/usrc/4A4T_4_fmo_input.F40.009
-rw-r--r-- 1 hazwong frank 15876096 Dec  7 02:55 /scratch/hazwong/824140/4A4T_4/usrc/4A4T_4_fmo_input.F40.010
-rw-r--r-- 1 hazwong frank 15876096 Dec  7 02:55 /scratch/hazwong/824140/4A4T_4/usrc/4A4T_4_fmo_input.F40.011
-rw-r--r-- 1 hazwong frank 15876096 Dec  7 02:55 /scratch/hazwong/824140/4A4T_4/usrc/4A4T_4_fmo_input.F40.012
-rw-r--r-- 1 hazwong frank 15876096 Dec  7 02:55 /scratch/hazwong/824140/4A4T_4/usrc/4A4T_4_fmo_input.F40.013
-rw-r--r-- 1 hazwong frank 15876096 Dec  7 02:55 /scratch/hazwong/824140/4A4T_4/usrc/4A4T_4_fmo_input.F40.014
-rw-r--r-- 1 hazwong frank 15876096 Dec  7 02:55 /scratch/hazwong/824140/4A4T_4/usrc/4A4T_4_fmo_input.F40.015
ls: No match.
ls: No match.
ls: No match.
Sat Dec  7 07:57:46 EST 2019
0.196u 0.064s 7:51:22.36 0.0%	0+0k 1096+120io 19pf+0w
